Title
81371
    1CHL1    C3    1   5.698   6.205   9.782 -0.1907 -0.2828 -0.4352
    1CHL1    H3    2   5.712   6.099   9.751 -0.7710  0.1033 -2.0903
    1CHL1    O3    3   5.621   6.220   9.903  0.4433 -0.0683  0.4249
    1CHL1   H3'    4   5.672   6.282   9.956  0.7970 -1.7669  2.1630
    1CHL1    C4    5   5.839   6.253   9.814  0.1181 -0.2967  0.2113
    1CHL1   H4A    6   5.820   6.360   9.836 -3.8690 -0.5831 -1.0398
    1CHL1   H4B    7   5.889   6.205   9.901  0.5260  2.2859  1.4875
    1CHL1    C5    8   5.921   6.233   9.690 -0.2547 -0.3066  0.3359
    1CHL1    C6    9   6.041   6.171   9.691 -0.0329 -0.5296  0.0873
    1CHL1    H6   10   6.081   6.129   9.785  2.4789 -1.2056 -1.1759
    1CHL1    C7   11   6.132   6.157   9.574  0.5097 -0.1617 -0.0357
    1CHL1   H7A   12   6.233   6.191   9.602 -0.0206  1.7562 -0.3145
    1CHL1   H7B   13   6.125   6.049   9.547 -2.0411  0.2716 -1.4615
    1CHL1    C8   14   6.094   6.235   9.446 -0.4154  0.3704  0.1034
    1CHL1    H8   15   6.146   6.331   9.470 -0.2387 -0.0578  1.5198
    1CHL1   C14   16   6.154   6.179   9.324 -0.0426  0.3230  0.2098
    1CHL1   H14   17   6.094   6.088   9.303 -0.4122  1.2959 -3.5962
    1CHL1   C15   18   6.301   6.135   9.324 -0.2429 -0.1940  0.5047
    1CHL1  H15A   19   6.371   6.211   9.365 -1.4330 -0.1918  2.6870
    1CHL1  H15B   20   6.312   6.032   9.365  0.9277 -0.2609  0.0631
    1CHL1   C16   21   6.344   6.145   9.180  0.9603 -0.0281  0.3728
    1CHL1  H16A   22   6.426   6.219   9.167  1.3275 -0.8647 -2.8038
    1CHL1  H16B   23   6.378   6.044   9.150 -0.8571 -0.3698 -0.6683
    1CHL1   C17   24   6.218   6.187   9.103 -0.2596 -0.2278  0.0727
    1CHL1   H17   25   6.164   6.097   9.067  0.3963 -1.0037  0.9880
    1CHL1   C13   26   6.126   6.255   9.200  0.2319  0.3808 -0.5783
    1CHL1   C18   27   6.179   6.398   9.226  0.3287 -0.0721 -0.7520
    1CHL1  H18A   28   6.287   6.397   9.253 -0.1163  0.3349  1.2046
    1CHL1  H18B   29   6.168   6.461   9.135  0.7630 -2.4455 -2.5396
    1CHL1  H18C   30   6.119   6.438   9.311  1.9611 -1.9732  1.4194
    1CHL1   C12   31   5.969   6.244   9.182 -0.0704 -0.2616  0.3841
    1CHL1  H12A   32   5.940   6.296   9.088 -0.1187  1.1368  1.1438
    1CHL1  H12B   33   5.943   6.138   9.164  1.4683 -0.6202  0.0978
    1CHL1   C11   34   5.891   6.293   9.306 -0.2958  0.2437  0.8483
    1CHL1  H11A   35   5.900   6.403   9.306  3.6603  0.1807 -2.5192
    1CHL1  H11B   36   5.782   6.276   9.289 -0.5540  2.3981  0.1246
    1CHL1    C9   37   5.942   6.233   9.438  0.0089 -0.0710 -0.8598
    1CHL1    H9   38   5.919   6.124   9.434  2.5216 -0.6404 -1.4930
    1CHL1   C10   39   5.861   6.281   9.560  0.1041 -0.3095  0.2459
    1CHL1   C19   40   5.861   6.436   9.565 -0.2862  0.2927  0.5225
    1CHL1  H19A   41   5.829   6.473   9.664 -1.3078  2.7527 -0.6426
    1CHL1  H19B   42   5.966   6.471   9.559  0.6727 -2.2178  1.3167
    1CHL1  H19C   43   5.802   6.486   9.484  2.5138  0.4014 -1.6020
    1CHL1    C1   44   5.710   6.237   9.541  0.1395 -0.0627  0.3154
    1CHL1   H1A   45   5.659   6.285   9.454 -0.6641 -0.8522  0.3312
    1CHL1   H1B   46   5.706   6.128   9.520  0.1111 -0.1026  0.5229
    1CHL1    C2   47   5.632   6.267   9.663  0.3518 -0.0806 -1.4572
    1CHL1   H2A   48   5.527   6.232   9.673  1.0777 -1.7984  1.0489
    1CHL1   H2B   49   5.624   6.377   9.678  0.5329  0.0198 -2.0347
    1CHL1   C20   50   6.255   6.266   8.973 -0.5939  0.6158 -0.3833
    1CHL1   H20   51   6.304   6.360   9.008 -0.2550 -0.3577  1.9692
    1CHL1   C21   52   6.129   6.298   8.892  0.3002  0.1966 -0.2744
    1CHL1  H21A   53   6.076   6.201   8.883  1.0139 -0.2311  0.1268
    1CHL1  H21B   54   6.156   6.330   8.789 -1.5461  0.2023 -0.7932
    1CHL1  H21C   55   6.072   6.371   8.954 -0.1104 -0.6318  0.3399
    1CHL1   C22   56   6.357   6.187   8.892  0.0242 -0.3893  0.8833
    1CHL1  H22A   57   6.443   6.151   8.953 -0.8051 -1.0968  1.6638
    1CHL1  H22B   58   6.324   6.086   8.858  0.7846 -0.2864 -0.2191
    1CHL1   C23   59   6.410   6.263   8.760 -0.8137  0.3883  0.2224
    1CHL1  H23A   60   6.484   6.194   8.713  2.7846  2.4603  2.3809
    1CHL1  H23B   61   6.325   6.284   8.692 -1.6450 -2.1158  0.4002
    1CHL1   C24   62   6.485   6.393   8.792 -0.3755 -0.4883 -0.0432
    1CHL1  H24A   63   6.418   6.477   8.822  0.5626  0.8114 -1.4361
    1CHL1  H24B   64   6.552   6.376   8.878  0.2243  1.0823 -0.1676
    1CHL1   C25   65   6.554   6.452   8.668  0.1776  0.1088  0.3124
    1CHL1   H25   66   6.627   6.376   8.633  0.9607  2.0146 -2.6879
    1CHL1   C26   67   6.459   6.495   8.546  0.1037 -0.3305  0.1216
    1CHL1  H26A   68   6.413   6.409   8.494 -1.1771  0.7785 -0.6476
    1CHL1  H26B   69   6.377   6.556   8.589  0.0226 -0.5412  0.2662
    1CHL1  H26C   70   6.517   6.552   8.469 -0.9834  0.7104  0.0501
    1CHL1   C27   71   6.646   6.568   8.704  0.1247  0.6551  0.4512
    1CHL1  H27A   72   6.702   6.605   8.616 -1.0429 -3.4059 -2.2747
    1CHL1  H27B   73   6.592   6.649   8.758 -0.3799  0.8620 -0.3427
    1CHL1  H27C   74   6.735   6.533   8.762 -0.6060 -1.4646  0.3483
    2CHL1    C3   75   0.014   4.420   9.965 -0.5689  0.7187  0.4579
    2CHL1    H3   76   0.099   4.359   9.930 -1.8931 -1.1768  0.3815
    2CHL1    O3   77   0.033   4.434  10.104 -0.0159 -0.1648  0.1347
    2CHL1   H3'   78   0.024   4.343  10.134  1.8110  0.2540  2.2108
    2CHL1    C4   79  -0.009   4.557   9.894  0.0389 -0.0937 -0.6863
    2CHL1   H4A   80  -0.099   4.599   9.945 -0.4854  0.1481 -1.7861
    2CHL1   H4B   81   0.073   4.631   9.909 -1.0748  0.9885  0.2750
    2CHL1    C5   82  -0.025   4.532   9.742  0.6921 -0.1097  0.4727
    2CHL1    C6   83   0.054   4.593   9.663 -1.0446  0.2395  0.3755
    2CHL1    H6   84   0.135   4.655   9.703  0.9316 -1.8398 -0.1998
    2CHL1    C7   85   0.034   4.590   9.510 -0.7519  0.4210 -1.0830
    2CHL1   H7A   86   0.036   4.693   9.468 -2.4072  0.5061 -1.0082
    2CHL1   H7B   87   0.123   4.542   9.465 -0.4680 -1.5120  1.3255
    2CHL1    C8   88  -0.092   4.509   9.465  0.4896 -0.1686  0.7957
    2CHL1    H8   89  -0.184   4.571   9.463  1.4890  1.5886  3.5259
    2CHL1   C14   90  -0.061   4.451   9.324 -0.0603 -0.9262  0.6528
    2CHL1   H14   91   0.015   4.371   9.335  1.8646  0.4800 -1.5905
    2CHL1   C15   92  -0.008   4.548   9.221 -0.2566 -0.6525 -0.1529
    2CHL1  H15A   93  -0.067   4.642   9.235 -0.2388 -0.8419  1.4166
    2CHL1  H15B   94   0.101   4.569   9.228  0.3909 -3.7965  0.3985
    2CHL1   C16   95  -0.032   4.481   9.088  0.2183  0.1664 -0.6572
    2CHL1  H16A   96  -0.105   4.539   9.027 -0.3232  0.5135  0.2864
    2CHL1  H16B   97   0.064   4.460   9.038 -0.0045  0.7564 -1.3458
    2CHL1   C17   98  -0.106   4.348   9.123 -0.2737  0.5855 -0.0156
    2CHL1   H17   99  -0.030   4.269   9.137  0.6749  1.4483 -0.1862
    2CHL1   C13  100  -0.170   4.368   9.260 -0.1386  0.0152  0.2494
    2CHL1   C18  101  -0.300   4.453   9.243 -0.1827 -0.3524 -0.0560
    2CHL1  H18A  102  -0.288   4.549   9.188 -1.0480 -0.0810  0.2096
    2CHL1  H18B  103  -0.388   4.391   9.215  0.9278 -1.1700 -1.8995
    2CHL1  H18C  104  -0.334   4.490   9.342 -0.2887 -0.6024  0.0010
    2CHL1   C12  105  -0.210   4.245   9.342  0.3448 -0.5979 -0.3285
    2CHL1  H12A  106  -0.308   4.201   9.313 -0.7482  0.2106  1.8989
    2CHL1  H12B  107  -0.119   4.181   9.339  0.5040 -0.4122  0.2911
    2CHL1   C11  108  -0.229   4.285   9.495  0.2032  0.4036  0.6956
    2CHL1  H11A  109  -0.330   4.330   9.498 -1.1365 -2.4479  1.8518
    2CHL1  H11B  110  -0.231   4.186   9.545  0.1024  1.4038  2.7302
    2CHL1    C9  111  -0.118   4.381   9.550  0.0931 -0.3499 -0.5009
    2CHL1    H9  112  -0.027   4.318   9.558 -1.6848 -2.9322  0.6712
    2CHL1   C10  113  -0.137   4.431   9.698 -0.7500  0.1258 -0.1507
    2CHL1   C19  114  -0.272   4.494   9.718 -0.4229 -0.1774 -0.5885
    2CHL1  H19A  115  -0.296   4.571   9.641 -2.2765  1.1039  1.1499
    2CHL1  H19B  116  -0.356   4.421   9.715  0.7454 -1.5614 -3.1860
    2CHL1  H19C  117  -0.274   4.534   9.821 -0.7335  1.4042 -1.1703
    2CHL1    C1  118  -0.118   4.303   9.789  0.2662  0.1739 -0.0681
    2CHL1   H1A  119  -0.206   4.237   9.771 -0.0383  0.7161 -0.6054
    2CHL1   H1B  120  -0.026   4.251   9.754 -0.0256 -0.7669  0.5266
    2CHL1    C2  121  -0.110   4.334   9.945 -0.6527  0.8974  0.3965
    2CHL1   H2A  122  -0.097   4.243  10.007  0.3236  0.9218  0.2438
    2CHL1   H2B  123  -0.208   4.384   9.966 -0.8652  0.3755  0.6642
    2CHL1   C20  124  -0.196   4.301   9.002 -0.6053  0.5269 -0.0582
    2CHL1   H20  125  -0.269   4.380   8.976 -1.1894  0.6604  1.8588
    2CHL1   C21  126  -0.290   4.172   9.035 -0.5383 -0.0087 -0.2420
    2CHL1  H21A  127  -0.232   4.099   9.095 -1.0471  2.5414  3.6916
    2CHL1  H21B  128  -0.311   4.113   8.942 -0.4588 -0.1889 -0.1462
    2CHL1  H21C  129  -0.375   4.211   9.095 -0.0721 -0.8266  0.9773
    2CHL1   C22  130  -0.112   4.272   8.873 -0.1101 -0.0480  0.2006
    2CHL1  H22A  131  -0.059   4.369   8.857 -3.5877  1.8990 -0.6136
    2CHL1  H22B  132  -0.037   4.196   8.903 -0.8629 -0.8579  0.0599
    2CHL1   C23  133  -0.193   4.248   8.746  0.3832  0.4710 -0.5065
    2CHL1  H23A  134  -0.268   4.166   8.759  0.2740  0.1979 -2.5053
    2CHL1  H23B  135  -0.242   4.340   8.708 -1.3040  0.8010  2.2046
    2CHL1   C24  136  -0.102   4.205   8.624 -0.2156 -0.3396 -0.0893
    2CHL1  H24A  137  -0.039   4.293   8.599 -0.7512  0.1940  0.4240
    2CHL1  H24B  138  -0.032   4.137   8.677  0.7655  0.4609 -0.3108
    2CHL1   C25  139  -0.167   4.142   8.497 -0.0593  0.8461  0.6077
    2CHL1   H25  140  -0.213   4.048   8.533  0.1950  0.0476 -1.0861
    2CHL1   C26  141  -0.272   4.242   8.449 -0.0018  0.2586  0.5022
    2CHL1  H26A  142  -0.313   4.199   8.355  0.8404  1.9406 -0.6910
    2CHL1  H26B  143  -0.366   4.248   8.506  0.2811  1.7731  0.8468
    2CHL1  H26C  144  -0.244   4.346   8.423  0.4026  0.1194  0.3662
    2CHL1   C27  145  -0.046   4.110   8.400  0.8522  0.0580  0.3400
    2CHL1  H27A  146  -0.086   4.067   8.306  0.5562  1.2831 -0.1188
    2CHL1  H27B  147   0.021   4.196   8.378  1.2750 -0.5884 -1.0142
    2CHL1  H27C  148   0.022   4.033   8.442  1.9106  1.4573  1.2832
    3CHL1    C3  149   0.358   3.393   9.939 -0.2095  0.1520 -0.3264
    3CHL1    H3  150   0.459   3.387   9.893 -0.7890  0.7325 -1.7171
    3CHL1    O3  151   0.364   3.428  10.078 -0.4560 -0.0977  0.1931
    3CHL1   H3'  152   0.413   3.510  10.086  2.5189 -1.4619 -2.1340
    3CHL1    C4  153   0.291   3.506   9.859  0.2289 -0.1295  0.6353
    3CHL1   H4A  154   0.194   3.533   9.906 -0.9240 -1.3197 -0.9474
    3CHL1   H4B  155   0.354   3.597   9.860  0.4201 -0.2294 -0.7211
    3CHL1    C5  156   0.263   3.470   9.716  0.6532 -0.4110  0.7185
    3CHL1    C6  157   0.310   3.542   9.616  0.5281  0.0401 -0.2647
    3CHL1    H6  158   0.371   3.630   9.643  0.7724 -0.1992 -0.0341
    3CHL1    C7  159   0.279   3.511   9.481  0.2883 -0.0682  0.6215
    3CHL1   H7A  160   0.246   3.603   9.429 -2.2889 -0.8168  0.7921
    3CHL1   H7B  161   0.370   3.465   9.435 -0.7845 -0.2285 -1.4782
    3CHL1    C8  162   0.161   3.413   9.457  0.3332  0.2900 -0.5035
    3CHL1    H8  163   0.070   3.459   9.500 -0.6737  0.3068 -2.5422
    3CHL1   C14  164   0.149   3.369   9.316 -0.5232 -0.1218 -0.4515
    3CHL1   H14  165   0.233   3.304   9.283 -1.5295 -1.3322 -0.6783
    3CHL1   C15  166   0.152   3.476   9.199 -0.0152  0.6813 -0.4623
    3CHL1  H15A  167   0.110   3.574   9.228  0.1219  0.8002 -0.6652
    3CHL1  H15B  168   0.255   3.485   9.159 -0.6856 -1.9712 -3.1857
    3CHL1   C16  169   0.069   3.400   9.087  0.0028 -0.1204 -0.3472
    3CHL1  H16A  170  -0.025   3.457   9.069 -0.2899  0.4105  2.4707
    3CHL1  H16B  171   0.131   3.396   8.995  0.0861 -0.2345 -0.2861
    3CHL1   C17  172   0.046   3.257   9.137 -0.6172 -0.1815  0.3317
    3CHL1   H17  173   0.144   3.207   9.122 -0.3312  0.7883 -1.2219
    3CHL1   C13  174   0.033   3.265   9.289 -0.1103  0.0342 -0.0147
    3CHL1   C18  175  -0.098   3.343   9.329  0.2806  0.0436 -0.2838
    3CHL1  H18A  176  -0.177   3.284   9.277  0.4862 -1.3190  0.8993
    3CHL1  H18B  177  -0.122   3.337   9.437 -1.8218  0.2305 -0.6901
    3CHL1  H18C  178  -0.106   3.448   9.294 -3.0214 -0.1911 -0.6212
    3CHL1   C12  179   0.054   3.141   9.371 -0.3733 -0.2226  0.4335
    3CHL1  H12A  180  -0.025   3.064   9.365 -1.5221  0.9469  0.0985
    3CHL1  H12B  181   0.152   3.098   9.339 -0.0353  1.1935 -0.5706
    3CHL1   C11  182   0.080   3.172   9.518  0.5811 -0.3840  0.3966
    3CHL1  H11A  183  -0.022   3.192   9.559  0.8633  1.1456  0.4292
    3CHL1  H11B  184   0.116   3.079   9.566 -0.4814 -0.7873  0.4479
    3CHL1    C9  185   0.178   3.297   9.551 -0.2290 -0.9167  0.2966
    3CHL1    H9  186   0.277   3.255   9.523  0.7697  2.7888 -2.6823
    3CHL1   C10  187   0.187   3.340   9.702  0.5636 -0.5829 -0.6907
    3CHL1   C19  188   0.042   3.356   9.757  0.2337 -0.2982 -0.4858
    3CHL1  H19A  189  -0.019   3.263   9.756 -0.8599  0.3824 -2.3398
    3CHL1  H19B  190   0.031   3.389   9.862  0.8948  0.8981 -0.7695
    3CHL1  H19C  191  -0.021   3.428   9.701 -0.0410  2.9829  3.5805
    3CHL1    C1  192   0.265   3.225   9.774  0.3286 -0.4432  0.2040
    3CHL1   H1A  193   0.205   3.133   9.761 -0.8660  0.3614 -0.1189
    3CHL1   H1B  194   0.368   3.206   9.737  0.4827 -0.1377  0.4655
    3CHL1    C2  195   0.287   3.256   9.923  0.0884  0.1865 -1.2693
    3CHL1   H2A  196   0.363   3.181   9.953  0.2256  0.7544 -0.1503
    3CHL1   H2B  197   0.195   3.240   9.984  2.0000 -2.8200  1.1492
    3CHL1   C20  198  -0.051   3.190   9.046  0.5992  0.8619 -0.9133
    3CHL1   H20  199  -0.154   3.212   9.081  0.9673 -0.3701  1.1235
    3CHL1   C21  200  -0.032   3.031   9.063 -0.3257  0.0842 -0.1525
    3CHL1  H21A  201  -0.106   2.980   8.997  1.3849  0.1512 -2.2351
    3CHL1  H21B  202  -0.047   2.988   9.164  1.8740 -0.2492  0.0805
    3CHL1  H21C  203   0.065   2.998   9.019 -0.2592  0.7639 -0.5419
    3CHL1   C22  204  -0.051   3.225   8.892 -0.7761  0.7608  0.0441
    3CHL1  H22A  205  -0.135   3.173   8.841 -1.2151  0.5838  0.9312
    3CHL1  H22B  206  -0.093   3.328   8.885 -0.4763  0.8812  0.0023
    3CHL1   C23  207   0.077   3.210   8.813 -0.4213 -0.3055 -0.4311
    3CHL1  H23A  208   0.152   3.285   8.845 -1.3362  0.3008  0.3557
    3CHL1  H23B  209   0.125   3.112   8.833  0.6117  0.7583  2.8760
    3CHL1   C24  210   0.066   3.236   8.658 -0.6010  0.0503  1.0683
    3CHL1  H24A  211   0.003   3.156   8.614  1.1037  0.9713 -3.5097
    3CHL1  H24B  212   0.011   3.331   8.638 -2.3209 -0.7563  1.7119
    3CHL1   C25  213   0.206   3.237   8.575  0.3350 -1.1731 -0.4783
    3CHL1   H25  214   0.241   3.131   8.577  0.1038 -1.3425 -2.7032
    3CHL1   C26  215   0.178   3.271   8.428  0.8257  0.6711  0.0340
    3CHL1  H26A  216   0.068   3.272   8.410  0.7335 -1.6431  0.0869
    3CHL1  H26B  217   0.204   3.376   8.403  3.4753  0.1450  0.3189
    3CHL1  H26C  218   0.225   3.188   8.371 -1.3730 -1.3532  0.9746
    3CHL1   C27  219   0.303   3.336   8.648  0.5157  0.6827  0.5038
    3CHL1  H27A  220   0.344   3.283   8.736  1.1981  0.4110  0.0298
    3CHL1  H27B  221   0.384   3.372   8.582  1.2312  0.7648  1.4142
    3CHL1  H27C  222   0.249   3.426   8.683 -0.4521  0.4260 -0.2736
    4CHL1    C3  223   6.413   5.057   9.759  0.5062 -0.0621  0.1728
    4CHL1    H3  224   6.325   4.993   9.735  1.4255 -1.1796 -0.3118
    4CHL1    O3  225   6.432   5.061   9.898 -0.1757 -0.5845 -0.3741
    4CHL1   H3'  226   6.502   4.998   9.917  1.5994  1.1560 -0.8518
    4CHL1    C4  227   6.533   4.996   9.689  0.5119  0.2199 -0.2214
    4CHL1   H4A  228   6.626   5.052   9.710  2.3820 -3.6566  3.4577
    4CHL1   H4B  229   6.556   4.895   9.731 -0.1745  0.1145 -0.0947
    4CHL1    C5  230   6.514   4.989   9.544  0.2458 -0.5733  1.0983
    4CHL1    C6  231   6.526   4.875   9.474  0.0257 -0.3605 -0.3342
    4CHL1    H6  232   6.551   4.788   9.536  0.5601  0.3615  0.4930
    4CHL1    C7  233   6.513   4.864   9.326  0.5108 -0.4745 -0.1584
    4CHL1   H7A  234   6.590   4.798   9.281 -2.8462 -2.8841 -2.9703
    4CHL1   H7B  235   6.420   4.809   9.299  0.6186 -0.1672 -1.1762
    4CHL1    C8  236   6.500   5.000   9.254  1.5238  0.9246 -0.0663
    4CHL1    H8  237   6.602   5.041   9.243  1.2020  1.7326 -0.1440
    4CHL1   C14  238   6.444   4.978   9.114  0.4305 -1.5433  0.6629
    4CHL1   H14  239   6.337   4.951   9.119 -0.5265  1.8786  4.7130
    4CHL1   C15  240   6.514   4.876   9.023  0.3651 -0.3949  0.0087
    4CHL1  H15A  241   6.621   4.869   9.052  0.1212 -3.4730  0.4702
    4CHL1  H15B  242   6.470   4.776   9.039  2.1565 -1.1035  0.7798
    4CHL1   C16  243   6.482   4.928   8.878  0.7451 -0.5318 -0.2167
    4CHL1  H16A  244   6.572   4.950   8.817  0.3247  0.6536 -0.4382
    4CHL1  H16B  245   6.430   4.854   8.815  1.4388 -0.6598 -0.6514
    4CHL1   C17  246   6.402   5.065   8.882  0.0806  0.0472  0.3778
    4CHL1   H17  247   6.294   5.040   8.888  0.1409 -0.3470 -0.0846
    4CHL1   C13  248   6.440   5.114   9.029  0.1361 -0.0198  0.0998
    4CHL1   C18  249   6.586   5.169   9.011 -0.3262  0.2246  0.0142
    4CHL1  H18A  250   6.656   5.095   8.967  1.2741  1.5089  0.3047
    4CHL1  H18B  251   6.593   5.258   8.943  0.9978  0.3239  0.2444
    4CHL1  H18C  252   6.634   5.185   9.110 -0.9058 -1.4348  0.5911
    4CHL1   C12  253   6.350   5.206   9.098 -0.2040 -0.5871  0.8995
    4CHL1  H12A  254   6.341   5.301   9.040  0.1186  0.7331  2.8949
    4CHL1  H12B  255   6.254   5.150   9.103 -0.6488  0.1163  0.4128
    4CHL1   C11  256   6.392   5.232   9.242 -0.5367  0.4889  0.6468
    4CHL1  H11A  257   6.490   5.283   9.231  0.2775 -1.0346  0.5352
    4CHL1  H11B  258   6.322   5.300   9.297 -1.1983 -0.8192  1.4794
    4CHL1    C9  259   6.411   5.099   9.329  0.6183 -0.5381  0.5471
    4CHL1    H9  260   6.311   5.052   9.339  0.5332  0.0626  2.9781
    4CHL1   C10  261   6.473   5.123   9.473 -0.5277  0.0820  0.0195
    4CHL1   C19  262   6.604   5.211   9.464  0.3609 -0.5693  0.4115
    4CHL1  H19A  263   6.693   5.168   9.412  1.3248  0.8233  0.8437
    4CHL1  H19B  264   6.579   5.310   9.421  0.9479 -1.8442 -3.2318
    4CHL1  H19C  265   6.624   5.241   9.569  3.5040  1.3418 -0.5700
    4CHL1    C1  266   6.364   5.189   9.554  0.5664 -0.5927 -0.4455
    4CHL1   H1A  267   6.339   5.292   9.521 -3.6610 -0.9293  1.1158
    4CHL1   H1B  268   6.262   5.147   9.545  0.2045 -0.1594  1.2146
    4CHL1    C2  269   6.391   5.205   9.701 -0.2342  0.8697 -0.3256
    4CHL1   H2A  270   6.314   5.269   9.751  0.4078  1.2999  0.1322
    4CHL1   H2B  271   6.487   5.259   9.718 -0.2868  0.5736  1.0430
    4CHL1   C20  272   6.421   5.161   8.759  0.5219  0.3176  0.6918
    4CHL1   H20  273   6.526   5.197   8.753  1.3577 -2.0157 -0.0401
    4CHL1   C21  274   6.336   5.278   8.776  0.3656 -1.4737 -0.2812
    4CHL1  H21A  275   6.376   5.339   8.860 -1.9556 -2.5132  1.7109
    4CHL1  H21B  276   6.229   5.261   8.799  0.1989  1.3692  1.4629
    4CHL1  H21C  277   6.340   5.350   8.691 -1.6011  0.3686  1.0679
    4CHL1   C22  278   6.389   5.089   8.628  0.6272  0.2609 -1.1351
    4CHL1  H22A  279   6.425   4.984   8.636 -1.6183 -0.4766  0.7881
    4CHL1  H22B  280   6.279   5.071   8.623  0.8438 -2.1792  0.6783
    4CHL1   C23  281   6.449   5.144   8.494  0.3705 -0.3349  0.2354
    4CHL1  H23A  282   6.410   5.246   8.473  0.7897 -0.3502 -0.6712
    4CHL1  H23B  283   6.555   5.157   8.523  0.5242 -0.6430 -0.1866
    4CHL1   C24  284   6.434   5.050   8.380 -0.2179  0.0656 -0.5979
    4CHL1  H24A  285   6.493   4.958   8.401  1.3238  1.0753 -0.3712
    4CHL1  H24B  286   6.332   5.007   8.373  0.0221 -0.4990 -0.6978
    4CHL1   C25  287   6.463   5.116   8.242 -0.5640 -0.6054 -0.3568
    4CHL1   H25  288   6.397   5.205   8.236  0.3673  0.2069  0.8109
    4CHL1   C26  289   6.605   5.177   8.243 -0.5247  0.0628 -0.2961
    4CHL1  H26A  290   6.672   5.091   8.265  0.8023  1.2602  0.4665
    4CHL1  H26B  291   6.644   5.219   8.148  2.8115 -0.4743  0.7179
    4CHL1  H26C  292   6.626   5.259   8.315 -0.9152  1.4824 -1.7535
    4CHL1   C27  293   6.460   5.021   8.126 -0.1183  0.3867 -1.0175
    4CHL1  H27A  294   6.377   4.948   8.116  0.2683 -0.1280 -0.5183
    4CHL1  H27B  295   6.456   5.078   8.031 -0.0199  2.0142 -0.0882
    4CHL1  H27C  296   6.549   4.954   8.123 -0.0337  0.3066  1.2075
    5CHL1    C3  297   0.351   4.100  10.261 -0.0212  1.1062 -0.0590
    5CHL1    H3  298   0.242   4.120  10.252  0.0392  1.1691 -0.6452
    5CHL1    O3  299   0.394   4.073  10.400  0.0636 -0.0359  0.1905
    5CHL1   H3'  300   0.468   4.012  10.399 -0.4731 -0.7000  0.4197
    5CHL1    C4  301   0.376   3.976  10.171  0.7373 -0.0018  1.3568
    5CHL1   H4A  302   0.481   3.941  10.181  0.7910 -0.4244 -0.3971
    5CHL1   H4B  303   0.319   3.890  10.213  1.8565 -0.8961  1.0940
    5CHL1    C5  304   0.340   4.004  10.030 -0.6258 -0.0408 -0.9550
    5CHL1    C6  305   0.240   3.941   9.966  0.5556  0.8330  0.2145
    5CHL1    H6  306   0.186   3.858  10.015 -0.2255 -0.3202 -2.4006
    5CHL1    C7  307   0.216   3.961   9.819 -0.6208  0.2513 -0.4793
    5CHL1   H7A  308   0.214   3.863   9.767  0.0684 -0.4142  0.7261
    5CHL1   H7B  309   0.117   4.010   9.808 -1.0388 -0.3531  0.5186
    5CHL1    C8  310   0.322   4.050   9.750 -0.0820  0.3848  0.9356
    5CHL1    H8  311   0.410   3.987   9.725 -0.2149  0.8265 -0.7571
    5CHL1   C14  312   0.266   4.096   9.619 -0.0682  0.5489  0.1616
    5CHL1   H14  313   0.183   4.168   9.639  0.8404  1.8336 -0.5172
    5CHL1   C15  314   0.226   3.992   9.514  0.3026 -0.2975  0.0195
    5CHL1  H15A  315   0.311   3.921   9.515  0.1272 -0.5123 -0.1721
    5CHL1  H15B  316   0.130   3.945   9.544  0.4858  0.1403  1.3663
    5CHL1   C16  317   0.207   4.078   9.384 -0.3376  0.1480 -0.0579
    5CHL1  H16A  318   0.235   4.014   9.298  1.5214  2.4174 -1.2501
    5CHL1  H16B  319   0.101   4.104   9.367  0.2561  0.7067 -3.6335
    5CHL1   C17  320   0.286   4.204   9.405 -0.7712  0.5158 -0.0777
    5CHL1   H17  321   0.215   4.286   9.427 -0.1261  1.3202 -0.9345
    5CHL1   C13  322   0.362   4.179   9.542  0.6817 -0.0588  1.0774
    5CHL1   C18  323   0.493   4.113   9.512 -0.3107  0.1801 -0.1542
    5CHL1  H18A  324   0.542   4.061   9.597  2.1124  0.7899 -1.1035
    5CHL1  H18B  325   0.488   4.033   9.435 -1.5905  1.0807 -1.0448
    5CHL1  H18C  326   0.574   4.184   9.485 -0.1342  0.1735  0.3362
    5CHL1   C12  327   0.389   4.308   9.623  0.1796 -0.5135  0.4496
    5CHL1  H12A  328   0.462   4.375   9.572  1.1151 -1.2604  0.7769
    5CHL1  H12B  329   0.294   4.365   9.635 -0.2151 -1.2534  0.9317
    5CHL1   C11  330   0.448   4.269   9.760 -0.3207 -0.4646  0.5450
    5CHL1  H11A  331   0.552   4.234   9.742 -0.8546 -1.3849 -1.0281
    5CHL1  H11B  332   0.457   4.365   9.815  0.2498 -0.1154 -0.1383
    5CHL1    C9  333   0.355   4.175   9.834  0.2184 -0.3359  0.3905
    5CHL1    H9  334   0.257   4.225   9.848 -0.2483 -0.9866 -0.4550
    5CHL1   C10  335   0.412   4.132   9.970 -0.0289 -0.0459 -0.1474
    5CHL1   C19  336   0.564   4.090   9.961 -0.6578 -0.6021  0.1128
    5CHL1  H19A  337   0.585   3.995   9.907  0.0417 -1.8282  2.4350
    5CHL1  H19B  338   0.631   4.173   9.929  1.5469 -2.1212  0.6062
    5CHL1  H19C  339   0.608   4.065  10.060 -0.8272  0.9728  0.6196
    5CHL1    C1  340   0.397   4.257  10.065 -0.4966  0.1382 -0.6507
    5CHL1   H1A  341   0.460   4.342  10.029  0.7699 -0.7596 -0.6272
    5CHL1   H1B  342   0.290   4.285  10.059 -0.0685  2.0272 -0.1241
    5CHL1    C2  343   0.431   4.226  10.213  0.1320  0.1429  0.1211
    5CHL1   H2A  344   0.417   4.315  10.278  3.1739 -0.3516  1.6238
    5CHL1   H2B  345   0.541   4.207  10.208  0.4497  1.8575  0.0035
    5CHL1   C20  346   0.368   4.240   9.274  0.2789 -0.3321 -0.7303
    5CHL1   H20  347   0.459   4.177   9.277 -0.3675 -1.2588  2.0842
    5CHL1   C21  348   0.417   4.385   9.284 -0.5145 -0.0379 -0.4855
    5CHL1  H21A  349   0.331   4.454   9.291 -1.0851 -0.8385  0.5590
    5CHL1  H21B  350   0.479   4.408   9.194  0.3999  2.2867  0.6563
    5CHL1  H21C  351   0.483   4.403   9.372  0.4641  0.9417 -1.3760
    5CHL1   C22  352   0.292   4.233   9.138 -0.1677 -0.7252 -0.1351
    5CHL1  H22A  353   0.216   4.153   9.132 -0.1489 -0.7147 -0.5727
    5CHL1  H22B  354   0.236   4.328   9.128 -0.0323 -0.5143  1.0010
    5CHL1   C23  355   0.379   4.224   9.010 -0.7176 -0.5018  0.2567
    5CHL1  H23A  356   0.469   4.290   9.011 -1.2817  0.3023 -0.5214
    5CHL1  H23B  357   0.412   4.118   9.003  1.8899  0.1328  1.6549
    5CHL1   C24  358   0.301   4.256   8.884 -0.9499  0.0423 -0.5006
    5CHL1  H24A  359   0.212   4.189   8.884 -0.8873 -0.0739 -2.0720
    5CHL1  H24B  360   0.265   4.361   8.879 -0.2224  0.2779 -1.0730
    5CHL1   C25  361   0.375   4.236   8.753 -0.4600 -0.2459 -0.8367
    5CHL1   H25  362   0.432   4.141   8.754 -0.8864 -0.5015 -0.5503
    5CHL1   C26  363   0.285   4.247   8.633 -0.2102 -0.0959  0.0807
    5CHL1  H26A  364   0.204   4.171   8.648 -0.2298 -0.5782 -2.1456
    5CHL1  H26B  365   0.235   4.346   8.640  1.5961  1.2389 -3.6035
    5CHL1  H26C  366   0.339   4.226   8.538 -0.8432 -2.4933  0.1813
    5CHL1   C27  367   0.483   4.344   8.733  0.1692 -0.6031  0.2169
    5CHL1  H27A  368   0.439   4.443   8.758  1.9177  0.1598  0.4086
    5CHL1  H27B  369   0.559   4.337   8.813 -0.8115  0.2430  1.2634
    5CHL1  H27C  370   0.533   4.350   8.634  3.4144 -0.0954  1.7505
    6CHL1    C3  371   1.118   0.147   9.750  0.5909  0.5973  0.1353
    6CHL1    H3  372   1.067   0.229   9.696  2.4414  2.0933  0.5517
    6CHL1    O3  373   1.058   0.145   9.879 -0.1054  0.1103 -0.1112
    6CHL1   H3'  374   1.079   0.057   9.912 -2.7238 -1.3826 -1.9573
    6CHL1    C4  375   1.085   0.010   9.684  0.0949 -0.7281 -0.8488
    6CHL1   H4A  376   1.137  -0.064   9.747  1.4471  0.9425  0.1011
    6CHL1   H4B  377   0.981  -0.022   9.702 -0.2226  1.8294  3.1413
    6CHL1    C5  378   1.142   0.020   9.542  1.0263  0.3903  0.5416
    6CHL1    C6  379   1.065  -0.004   9.439 -0.0734  0.0600 -0.0838
    6CHL1    H6  380   0.957  -0.011   9.461  0.0902 -1.2338  0.3945
    6CHL1    C7  381   1.112  -0.007   9.295  1.1159 -0.0796  0.0293
    6CHL1   H7A  382   1.066  -0.087   9.233  1.2361  0.7412 -1.1543
    6CHL1   H7B  383   1.079   0.091   9.253 -1.3325 -0.4979  0.7827
    6CHL1    C8  384   1.264  -0.017   9.282  0.5577  0.2263  0.1878
    6CHL1    H8  385   1.290  -0.122   9.308 -2.8355 -0.5946  0.7506
    6CHL1   C14  386   1.305   0.024   9.139 -0.7219  0.4093 -0.3178
    6CHL1   H14  387   1.289   0.133   9.125  1.5953  0.9334  0.7252
    6CHL1   C15  388   1.243  -0.042   9.023 -0.1993  0.5973  0.4175
    6CHL1  H15A  389   1.246  -0.151   9.041  4.3556  0.6120  0.8017
    6CHL1  H15B  390   1.147   0.009   8.998 -0.8934 -2.1085 -3.3061
    6CHL1   C16  391   1.336  -0.006   8.906  0.1092 -0.1643 -0.0636
    6CHL1  H16A  392   1.353  -0.100   8.850 -0.8469 -0.3055 -0.1364
    6CHL1  H16B  393   1.279   0.066   8.844 -0.4237  1.2722  1.9913
    6CHL1   C17  394   1.461   0.050   8.963 -0.2893 -0.7224  0.1767
    6CHL1   H17  395   1.451   0.160   8.964  1.5386 -0.5244 -0.4970
    6CHL1   C13  396   1.452   0.013   9.108 -0.1381 -0.4296 -0.4201
    6CHL1   C18  397   1.506  -0.130   9.132 -0.2900 -0.0734 -0.2870
    6CHL1  H18A  398   1.614  -0.130   9.110  0.0921  4.0157  0.7532
    6CHL1  H18B  399   1.497  -0.157   9.240 -0.3443  3.2221  0.6224
    6CHL1  H18C  400   1.447  -0.214   9.088 -2.3967 -0.5548  3.0621
    6CHL1   C12  401   1.531   0.107   9.212 -0.0489 -0.6830 -0.3619
    6CHL1  H12A  402   1.639   0.086   9.198 -0.0456 -1.2011  0.3856
    6CHL1  H12B  403   1.516   0.213   9.183  0.2502 -0.5174  0.0921
    6CHL1   C11  404   1.495   0.084   9.359 -0.7467 -0.1991 -0.1260
    6CHL1  H11A  405   1.549  -0.008   9.388  0.1407  0.3009 -0.1688
    6CHL1  H11B  406   1.534   0.162   9.428  0.0544  0.4286 -1.2514
    6CHL1    C9  407   1.343   0.074   9.384  0.3924 -0.0492 -0.1496
    6CHL1    H9  408   1.298   0.173   9.361 -1.2866 -0.2895  1.7637
    6CHL1   C10  409   1.294   0.051   9.530 -0.4254 -0.5433 -0.2560
    6CHL1   C19  410   1.377  -0.069   9.580 -0.0095  0.5145  0.0886
    6CHL1  H19A  411   1.484  -0.042   9.598  0.5093 -2.0236  1.3157
    6CHL1  H19B  412   1.347  -0.108   9.679 -0.5714  0.7400  0.0093
    6CHL1  H19C  413   1.373  -0.148   9.501 -2.6242  1.4126 -0.7895
    6CHL1    C1  414   1.331   0.176   9.617 -0.4295 -0.0688  0.1845
    6CHL1   H1A  415   1.441   0.187   9.624 -0.3081  0.0966 -1.5365
    6CHL1   H1B  416   1.282   0.263   9.568 -0.1605 -0.0717 -0.0899
    6CHL1    C2  417   1.269   0.171   9.759 -0.1327  0.6175  0.1599
    6CHL1   H2A  418   1.289   0.274   9.796 -0.6900  1.1022 -0.8479
    6CHL1   H2B  419   1.325   0.091   9.813  0.8462  1.3299  0.2162
    6CHL1   C20  420   1.582   0.009   8.886  0.5234 -0.0611  1.0417
    6CHL1   H20  421   1.591  -0.101   8.900 -0.5711 -0.2051  0.6862
    6CHL1   C21  422   1.710   0.078   8.938 -0.3488  1.0402 -0.0165
    6CHL1  H21A  423   1.738   0.028   9.033 -1.9434 -1.8851 -0.9680
    6CHL1  H21B  424   1.697   0.188   8.944 -0.8897  1.0306 -0.8007
    6CHL1  H21C  425   1.792   0.053   8.867 -0.5385 -0.5363  0.2793
    6CHL1   C22  426   1.570   0.030   8.727  0.1922  0.7731  0.1776
    6CHL1  H22A  427   1.670   0.013   8.680  0.3316  1.5223  0.1861
    6CHL1  H22B  428   1.497  -0.046   8.692  1.6935 -0.8994  0.5018
    6CHL1   C23  429   1.534   0.170   8.685  0.2260 -0.9464 -0.7430
    6CHL1  H23A  430   1.451   0.211   8.746  0.9275  2.0811 -1.6474
    6CHL1  H23B  431   1.622   0.233   8.710 -0.0574 -1.0969  0.7046
    6CHL1   C24  432   1.505   0.178   8.536  0.1890  0.1416 -0.1938
    6CHL1  H24A  433   1.425   0.102   8.518  1.3370 -1.3618  0.8030
    6CHL1  H24B  434   1.457   0.274   8.508 -0.4970 -0.3477 -0.7617
    6CHL1   C25  435   1.621   0.153   8.434  0.0131 -0.0764  0.5598
    6CHL1   H25  436   1.660   0.052   8.459 -1.3582 -0.9651 -0.7518
    6CHL1   C26  437   1.575   0.141   8.289  0.2887  0.2361  0.9390
    6CHL1  H26A  438   1.534   0.240   8.260  1.2603  0.3878  0.0269
    6CHL1  H26B  439   1.662   0.117   8.224  1.3953  1.1589  2.0441
    6CHL1  H26C  440   1.496   0.063   8.285 -0.8047  1.3824 -0.7302
    6CHL1   C27  441   1.743   0.251   8.456  0.4856 -0.3869  0.3322
    6CHL1  H27A  442   1.714   0.352   8.419  1.6917 -0.2135 -0.1779
    6CHL1  H27B  443   1.775   0.266   8.562 -1.3181 -1.7034  1.1288
    6CHL1  H27C  444   1.821   0.205   8.393  2.6612  0.1009  2.5123
    7CHL1    C3  445   2.041   3.152  10.209 -0.2826 -0.3100 -0.5978
    7CHL1    H3  446   2.038   3.262  10.191 -1.4395 -0.5953 -2.3858
    7CHL1    O3  447   2.020   3.120  10.347  0.2664 -0.2343  0.0156
    7CHL1   H3'  448   2.018   3.025  10.357  1.2749 -0.0343  3.2063
    7CHL1    C4  449   1.935   3.077  10.128 -0.1576 -0.0026  0.6743
    7CHL1   H4A  450   1.945   2.969  10.152 -1.3722 -0.0876  0.8675
    7CHL1   H4B  451   1.836   3.114  10.162 -0.2131  2.4074 -1.7129
    7CHL1    C5  452   1.953   3.110   9.977  0.3287 -0.1654  0.1649
    7CHL1    C6  453   1.861   3.180   9.909  0.8613  0.3553  0.0166
    7CHL1    H6  454   1.769   3.203   9.965  0.9964 -1.1408  0.8911
    7CHL1    C7  455   1.864   3.217   9.766 -0.3789 -0.1982  0.3891
    7CHL1   H7A  456   1.765   3.213   9.717 -1.2269  0.9716  1.9440
    7CHL1   H7B  457   1.900   3.322   9.761  2.5033 -1.1306 -0.3270
    7CHL1    C8  458   1.987   3.142   9.699 -0.5550  0.5746  0.0865
    7CHL1    H8  459   1.941   3.041   9.685  0.0590  0.4125 -0.8717
    7CHL1   C14  460   2.013   3.214   9.564 -0.3385  0.3659 -0.3772
    7CHL1   H14  461   2.053   3.315   9.589 -3.2187  1.4592  0.1582
    7CHL1   C15  462   1.898   3.238   9.463 -0.1344  0.9333 -1.4076
    7CHL1  H15A  463   1.832   3.149   9.464 -0.3977  1.1183 -1.8909
    7CHL1  H15B  464   1.835   3.327   9.487  1.2186  2.2777 -2.6468
    7CHL1   C16  465   1.966   3.259   9.328  0.5125  0.3832 -0.0584
    7CHL1  H16A  466   1.919   3.188   9.257 -0.4335  1.1482 -0.2079
    7CHL1  H16B  467   1.960   3.363   9.292 -2.1267  1.1420  2.1947
    7CHL1   C17  468   2.118   3.216   9.351  0.2759 -0.4427 -0.1885
    7CHL1   H17  469   2.174   3.310   9.373  0.5881 -0.8873  0.9322
    7CHL1   C13  470   2.114   3.132   9.478 -0.2064  0.1283  0.1281
    7CHL1   C18  471   2.071   2.982   9.444 -0.3944  0.0153 -0.1474
    7CHL1  H18A  472   2.136   2.938   9.366  0.6611  1.2702 -0.0072
    7CHL1  H18B  473   2.077   2.919   9.535 -0.0736 -0.0915 -0.2437
    7CHL1  H18C  474   1.968   2.987   9.402 -0.9802 -0.4913  1.1665
    7CHL1   C12  475   2.244   3.136   9.563  0.0317  0.5551  0.6629
    7CHL1  H12A  476   2.312   3.067   9.509 -0.2963 -0.4490  1.5002
    7CHL1  H12B  477   2.279   3.241   9.569  0.8839  0.2725  0.7327
    7CHL1   C11  478   2.232   3.077   9.707  0.2064  0.1888 -0.0170
    7CHL1  H11A  479   2.213   2.968   9.707  1.6027 -0.0882 -0.7152
    7CHL1  H11B  480   2.332   3.077   9.756 -0.4895 -0.4653  1.4330
    7CHL1    C9  481   2.114   3.135   9.794 -0.3821 -0.4873  0.9559
    7CHL1    H9  482   2.139   3.241   9.812  1.1555 -0.5663 -0.3967
    7CHL1   C10  483   2.096   3.067   9.928 -0.8423  0.2799 -0.3705
    7CHL1   C19  484   2.091   2.915   9.908 -0.4306 -0.0347  0.6407
    7CHL1  H19A  485   2.182   2.866   9.866 -1.3132 -1.4342  0.2956
    7CHL1  H19B  486   2.064   2.868  10.005 -1.1177 -1.3944 -0.1656
    7CHL1  H19C  487   2.011   2.891   9.835 -0.5088  0.6254  0.5026
    7CHL1    C1  488   2.209   3.112  10.029  0.3231  0.2775  0.2818
    7CHL1   H1A  489   2.305   3.071   9.991  0.9904  0.3803  1.7591
    7CHL1   H1B  490   2.226   3.222  10.020  0.0474  0.4962  1.9883
    7CHL1    C2  491   2.181   3.089  10.176 -0.0087  0.1757 -0.6471
    7CHL1   H2A  492   2.248   3.136  10.251  0.1585  0.1918 -0.8056
    7CHL1   H2B  493   2.184   2.979  10.196 -1.0884  0.1646 -0.4785
    7CHL1   C20  494   2.178   3.153   9.226 -0.3647  0.2894  0.1995
    7CHL1   H20  495   2.124   3.059   9.201  3.2783 -1.7527 -0.7168
    7CHL1   C21  496   2.322   3.087   9.246  0.3131  0.1935 -0.2458
    7CHL1  H21A  497   2.337   3.005   9.319  0.6162 -0.1234 -0.6539
    7CHL1  H21B  498   2.407   3.158   9.257  0.8604 -0.0724 -2.2546
    7CHL1  H21C  499   2.330   3.039   9.146 -0.4633 -1.7406  0.5643
    7CHL1   C22  500   2.181   3.242   9.097  0.7052 -0.1435  0.3734
    7CHL1  H22A  501   2.127   3.338   9.110  0.6828  0.1537 -1.6685
    7CHL1  H22B  502   2.285   3.283   9.096  0.3852  0.7755  1.6343
    7CHL1   C23  503   2.144   3.168   8.969  0.3590 -0.0133  0.6823
    7CHL1  H23A  504   2.192   3.069   8.953  0.6824  0.2989 -0.3631
    7CHL1  H23B  505   2.042   3.128   8.989  0.7767 -0.8232  1.2761
    7CHL1   C24  506   2.152   3.261   8.845  0.2751 -0.1562  0.7391
    7CHL1  H24A  507   2.133   3.188   8.763 -1.4815 -0.0600  1.0284
    7CHL1  H24B  508   2.072   3.336   8.862  1.8638  1.3995  1.7408
    7CHL1   C25  509   2.288   3.345   8.831 -0.7042  0.0585 -0.2957
    7CHL1   H25  510   2.301   3.414   8.917  0.0516 -2.5091  1.7630
    7CHL1   C26  511   2.420   3.260   8.824  0.7642  0.3675 -0.1492
    7CHL1  H26A  512   2.504   3.333   8.817  0.9596  0.2455  0.8376
    7CHL1  H26B  513   2.428   3.204   8.919 -1.9342 -1.0262 -0.6385
    7CHL1  H26C  514   2.409   3.187   8.741 -0.6414 -1.8984  1.9344
    7CHL1   C27  515   2.279   3.426   8.693  0.0960  0.0960  0.2867
    7CHL1  H27A  516   2.294   3.362   8.604  0.5259  0.8011 -0.1530
    7CHL1  H27B  517   2.181   3.479   8.691  0.1695  0.2138 -0.4286
    7CHL1  H27C  518   2.355   3.507   8.690  0.5371 -0.2818  1.0485
    8CHL1    C3  519   2.164   4.192  10.209 -0.4063 -0.2391  0.6403
    8CHL1    H3  520   2.217   4.289  10.198 -0.1664 -0.2355  1.7407
    8CHL1    O3  521   2.176   4.165  10.347 -0.2363 -0.8772  1.1181
    8CHL1   H3'  522   2.153   4.073  10.358  0.7815 -1.1280  1.2708
    8CHL1    C4  523   2.013   4.206  10.171 -0.0496 -0.4707  0.9878
    8CHL1   H4A  524   1.955   4.113  10.189 -0.1712 -1.2518 -2.6376
    8CHL1   H4B  525   1.957   4.281  10.230 -1.1761  0.8741 -1.6093
    8CHL1    C5  526   2.002   4.223  10.014 -0.1188  0.6046 -0.2273
    8CHL1    C6  527   1.949   4.336   9.968 -0.5436  0.0227  0.2339
    8CHL1    H6  528   1.897   4.408  10.033 -0.1321 -0.2041  0.8229
    8CHL1    C7  529   1.922   4.364   9.823 -0.3599 -0.0851  0.0732
    8CHL1   H7A  530   1.820   4.407   9.814  0.1169  1.3505  1.1144
    8CHL1   H7B  531   1.999   4.440   9.794  0.7394 -1.0577  0.3512
    8CHL1    C8  532   1.942   4.235   9.736  0.6444 -0.7543  0.0257
    8CHL1    H8  533   1.857   4.168   9.758 -0.0372  0.6678  1.9255
    8CHL1   C14  534   1.943   4.258   9.587  0.1547  0.5394  0.3841
    8CHL1   H14  535   2.032   4.315   9.554  1.7493 -1.3476  1.1825
    8CHL1   C15  536   1.834   4.346   9.521 -0.2876 -0.0273 -0.3759
    8CHL1  H15A  537   1.731   4.334   9.561 -0.0925 -0.1151  0.1077
    8CHL1  H15B  538   1.881   4.447   9.532  0.6709 -0.4960 -0.0336
    8CHL1   C16  539   1.828   4.308   9.380 -0.0828  0.0539  1.2037
    8CHL1  H16A  540   1.728   4.262   9.364  0.5088 -1.2359  1.0422
    8CHL1  H16B  541   1.843   4.394   9.312 -0.7939  0.1433  1.1473
    8CHL1   C17  542   1.944   4.207   9.352 -0.5067 -0.1187  1.0382
    8CHL1   H17  543   2.031   4.270   9.327  1.3852 -1.9573  2.6184
    8CHL1   C13  544   1.968   4.142   9.492 -0.4025 -0.0202  0.3168
    8CHL1   C18  545   1.871   4.014   9.516 -0.4934  0.5855  0.7178
    8CHL1  H18A  546   1.920   3.929   9.464  0.1820  0.5239  1.4300
    8CHL1  H18B  547   1.869   3.996   9.626 -0.0630 -0.2309  0.5946
    8CHL1  H18C  548   1.766   4.036   9.487 -0.9401 -0.5461  1.3945
    8CHL1   C12  549   2.114   4.105   9.531  0.4255  0.1238 -0.3299
    8CHL1  H12A  550   2.161   4.022   9.475  1.9212 -0.1368  1.2412
    8CHL1  H12B  551   2.180   4.188   9.496  2.2307 -0.7632  0.8503
    8CHL1   C11  552   2.121   4.056   9.678 -0.0369  0.3624  0.0658
    8CHL1  H11A  553   2.050   3.971   9.689 -0.1616  0.3063 -0.9955
    8CHL1  H11B  554   2.220   4.010   9.700 -0.0282  1.2708  2.1061
    8CHL1    C9  555   2.072   4.164   9.776  0.2442  0.5343 -0.3937
    8CHL1    H9  556   2.158   4.234   9.782  1.4806 -1.0848  2.1349
    8CHL1   C10  557   2.069   4.113   9.928 -0.1111  0.1386 -0.4705
    8CHL1   C19  558   1.986   3.978   9.939 -0.7508 -0.0898 -0.2717
    8CHL1  H19A  559   1.989   3.947  10.046 -1.2501  2.3224  0.5110
    8CHL1  H19B  560   1.876   3.990   9.925 -0.4588  1.0689 -1.9657
    8CHL1  H19C  561   2.029   3.897   9.876 -0.1100 -0.0718  0.1387
    8CHL1    C1  562   2.215   4.103   9.972 -0.6842  0.8999 -0.5774
    8CHL1   H1A  563   2.271   4.022   9.919  0.0068  1.5591 -0.8801
    8CHL1   H1B  564   2.270   4.199   9.956  1.3348  0.1119  1.0551
    8CHL1    C2  565   2.220   4.074  10.127 -0.5499  0.1687 -1.3035
    8CHL1   H2A  566   2.326   4.047  10.150 -0.2048  1.1733 -1.6708
    8CHL1   H2B  567   2.154   3.987  10.150 -1.0747  0.7933 -0.3773
    8CHL1   C20  568   1.912   4.101   9.236 -0.7632 -0.1357 -0.6169
    8CHL1   H20  569   1.850   4.014   9.264 -4.4481  1.6105 -2.6813
    8CHL1   C21  570   2.053   4.040   9.198 -0.3169  0.1971 -0.7566
    8CHL1  H21A  571   2.081   3.979   9.286 -4.3125 -1.3314 -0.3048
    8CHL1  H21B  572   2.128   4.117   9.172 -0.1342  0.2773  0.0108
    8CHL1  H21C  573   2.046   3.978   9.105  1.2595 -0.5112 -0.4325
    8CHL1   C22  574   1.845   4.168   9.113  0.4176 -0.0180 -0.5478
    8CHL1  H22A  575   1.750   4.221   9.138 -0.4051 -1.1826 -1.1080
    8CHL1  H22B  576   1.917   4.245   9.080  1.7737 -1.0170 -0.0212
    8CHL1   C23  577   1.811   4.062   9.009 -0.4781  0.2177 -0.0344
    8CHL1  H23A  578   1.902   4.009   8.975 -0.2816  1.2907 -1.2478
    8CHL1  H23B  579   1.754   3.985   9.065 -1.1080  0.7286  0.0326
    8CHL1   C24  580   1.729   4.117   8.890  0.1358  0.3403 -0.8240
    8CHL1  H24A  581   1.640   4.167   8.934 -0.1944 -0.1041 -0.9887
    8CHL1  H24B  582   1.786   4.193   8.832 -1.0292  1.0823 -1.0197
    8CHL1   C25  583   1.672   3.995   8.811  0.2088 -0.2173 -0.1035
    8CHL1   H25  584   1.761   3.932   8.790 -0.1587 -1.3621  1.5516
    8CHL1   C26  585   1.566   3.909   8.877  0.1260  0.4910 -0.3471
    8CHL1  H26A  586   1.593   3.850   8.967 -2.0023 -2.6242 -1.5624
    8CHL1  H26B  587   1.475   3.964   8.907 -0.4199 -1.1210  1.1192
    8CHL1  H26C  588   1.530   3.837   8.800  1.5623  0.0736 -0.6579
    8CHL1   C27  589   1.618   4.052   8.678  0.3378 -0.7644  0.2924
    8CHL1  H27A  590   1.510   4.077   8.678  0.9577  2.7552 -2.9519
    8CHL1  H27B  591   1.663   4.149   8.651  1.2200 -1.2838 -0.1351
    8CHL1  H27C  592   1.642   3.982   8.596 -1.4143 -1.4175  0.2893
    9CHL1    C3  593   6.510   2.359   9.934 -0.0383 -0.4571  0.1376
    9CHL1    H3  594   6.511   2.259   9.887  0.2246 -0.3838 -0.0150
    9CHL1    O3  595   6.520   2.353  10.074 -0.0624  0.8485 -0.8482
    9CHL1   H3'  596   6.512   2.437  10.120  0.5480  0.2842  0.3024
    9CHL1    C4  597   6.627   2.432   9.868 -0.4982 -0.8401 -0.2179
    9CHL1   H4A  598   6.626   2.532   9.917  0.6682 -1.3246  0.8327
    9CHL1   H4B  599   6.721   2.378   9.890 -0.2488 -0.3207 -0.0027
    9CHL1    C5  600   6.613   2.455   9.715 -0.0967  0.1792  0.4076
    9CHL1    C6  601   6.717   2.407   9.642  0.2004 -0.3331  0.0555
    9CHL1    H6  602   6.800   2.353   9.689  0.7974  0.5029 -0.0193
    9CHL1    C7  603   6.706   2.410   9.486  0.1285 -0.3454 -0.0504
    9CHL1   H7A  604   6.803   2.431   9.436 -0.3366 -0.1006 -0.8577
    9CHL1   H7B  605   6.673   2.313   9.444 -1.5874  1.1887 -2.4552
    9CHL1    C8  606   6.606   2.514   9.429 -0.8223  0.5768 -0.4357
    9CHL1    H8  607   6.638   2.616   9.460 -1.8066  1.1574 -1.2542
    9CHL1   C14  608   6.597   2.498   9.276 -0.7905 -0.0691 -0.0064
    9CHL1   H14  609   6.564   2.392   9.271 -0.1081 -0.2623 -0.6105
    9CHL1   C15  610   6.735   2.507   9.202 -0.0979 -0.1037  0.4852
    9CHL1  H15A  611   6.800   2.596   9.221  0.9497 -0.9745  1.1008
    9CHL1  H15B  612   6.791   2.411   9.207  0.3180  0.1695  1.1741
    9CHL1   C16  613   6.680   2.525   9.058 -0.1195 -0.4707 -0.1440
    9CHL1  H16A  614   6.713   2.622   9.015  1.8718 -0.5596  1.0998
    9CHL1  H16B  615   6.713   2.438   8.997 -0.3530 -0.2592 -0.5778
    9CHL1   C17  616   6.523   2.534   9.059 -0.6869  0.3864 -0.5057
    9CHL1   H17  617   6.485   2.430   9.052 -0.0209  0.1900 -1.4124
    9CHL1   C13  618   6.491   2.583   9.203  0.5675 -0.9501  0.1918
    9CHL1   C18  619   6.532   2.735   9.218  0.2860 -0.5727 -0.2140
    9CHL1  H18A  620   6.620   2.753   9.153  1.2021  0.1048  1.1485
    9CHL1  H18B  621   6.447   2.791   9.175  0.6526 -1.0002 -1.5411
    9CHL1  H18C  622   6.571   2.768   9.317  1.5440  0.6739 -1.0919
    9CHL1   C12  623   6.352   2.557   9.275 -0.3321 -0.0778  1.0752
    9CHL1  H12A  624   6.291   2.638   9.229 -0.1413 -1.0174 -0.9468
    9CHL1  H12B  625   6.321   2.456   9.242 -1.6542  0.3537  0.9409
    9CHL1   C11  626   6.356   2.568   9.428 -0.1230 -0.4519  0.3189
    9CHL1  H11A  627   6.372   2.678   9.434 -0.7773 -0.2580 -1.0343
    9CHL1  H11B  628   6.259   2.548   9.479 -0.7056  0.0087 -0.5613
    9CHL1    C9  629   6.473   2.491   9.506  0.7280 -0.6185  0.9045
    9CHL1    H9  630   6.456   2.382   9.494  2.3393 -1.3481  4.1076
    9CHL1   C10  631   6.487   2.515   9.658  0.3357 -1.0579  0.0071
    9CHL1   C19  632   6.475   2.662   9.696  0.1926 -0.1316  0.3192
    9CHL1  H19A  633   6.495   2.694   9.800 -0.0225 -0.2915  0.4103
    9CHL1  H19B  634   6.543   2.728   9.638 -0.1835  1.7384  1.9048
    9CHL1  H19C  635   6.375   2.703   9.670 -0.2869  0.5045  2.9164
    9CHL1    C1  636   6.369   2.439   9.736 -0.4176  0.5376  0.0617
    9CHL1   H1A  637   6.269   2.483   9.711 -0.6109 -0.6226 -1.3703
    9CHL1   H1B  638   6.367   2.336   9.693  0.3366  0.9414 -0.9739
    9CHL1    C2  639   6.376   2.432   9.892 -0.0453  0.6414  0.2063
    9CHL1   H2A  640   6.288   2.378   9.931  0.8539 -0.0253  1.3863
    9CHL1   H2B  641   6.374   2.533   9.938 -1.8922  1.0186 -0.6247
    9CHL1   C20  642   6.464   2.600   8.936 -0.2463 -0.0807 -0.4681
    9CHL1   H20  643   6.506   2.701   8.916  1.5228 -0.6470  0.1719
    9CHL1   C21  644   6.313   2.629   8.949  0.9624  0.0925 -0.1231
    9CHL1  H21A  645   6.255   2.541   8.986  3.5436 -1.5542  0.2616
    9CHL1  H21B  646   6.277   2.652   8.847  2.5510 -1.5265 -1.1110
    9CHL1  H21C  647   6.292   2.708   9.024  0.6018 -0.5153  0.4360
    9CHL1   C22  648   6.477   2.513   8.807 -0.2329 -0.0494  0.1802
    9CHL1  H22A  649   6.568   2.451   8.821 -0.3379 -0.2085  0.1520
    9CHL1  H22B  650   6.387   2.448   8.798 -0.5117  0.3969 -0.2734
    9CHL1   C23  651   6.484   2.591   8.675 -0.3394 -0.6587  0.4517
    9CHL1  H23A  652   6.493   2.518   8.591  1.3780 -0.2848  0.2777
    9CHL1  H23B  653   6.391   2.650   8.661  1.1394  2.5065  2.9558
    9CHL1   C24  654   6.596   2.689   8.661 -0.0758 -0.2715  0.8095
    9CHL1  H24A  655   6.609   2.751   8.752 -0.6087 -0.8932  1.3144
    9CHL1  H24B  656   6.696   2.640   8.656  0.2068  0.2808  0.8277
    9CHL1   C25  657   6.582   2.784   8.541 -0.0627  0.8310  0.7096
    9CHL1   H25  658   6.477   2.820   8.536 -1.1363 -2.0777  0.4303
    9CHL1   C26  659   6.676   2.904   8.551  0.0554  0.3879 -0.7370
    9CHL1  H26A  660   6.778   2.869   8.578 -0.7666 -0.0728  2.1262
    9CHL1  H26B  661   6.693   2.953   8.453  0.8223 -1.5841 -1.6435
    9CHL1  H26C  662   6.647   2.975   8.631  1.1271 -0.9629  0.9385
    9CHL1   C27  663   6.598   2.700   8.405  0.5697  0.2591 -0.3669
    9CHL1  H27A  664   6.690   2.638   8.397 -0.1169 -0.9362  0.8485
    9CHL1  H27B  665   6.511   2.633   8.394  1.2486 -0.6743 -0.1951
    9CHL1  H27C  666   6.610   2.771   8.320 -0.1364  1.1791  0.2854
   10CHL1    C3  667   4.543   4.766  10.224  0.3873  0.6139 -0.1249
   10CHL1    H3  668   4.619   4.846  10.232  2.0161 -0.7500 -1.3782
   10CHL1    O3  669   4.509   4.729  10.355 -0.1019  0.8298 -1.1362
   10CHL1   H3'  670   4.432   4.673  10.342 -0.8828  1.6574 -0.1728
   10CHL1    C4  671   4.414   4.809  10.154 -0.5082  0.8931  0.1362
   10CHL1   H4A  672   4.348   4.722  10.134  1.1050 -0.7117  1.5254
   10CHL1   H4B  673   4.355   4.890  10.203 -1.3454  0.3990 -0.0442
   10CHL1    C5  674   4.460   4.848  10.015  0.6862 -1.0194  0.1494
   10CHL1    C6  675   4.430   4.976   9.978 -0.1126  0.5451  0.4042
   10CHL1    H6  676   4.383   5.044  10.051 -1.6171  0.1299 -0.1366
   10CHL1    C7  677   4.459   5.016   9.835 -0.2912 -0.5330 -0.5987
   10CHL1   H7A  678   4.373   5.065   9.784  0.1298  0.7414 -0.1307
   10CHL1   H7B  679   4.527   5.104   9.841 -1.2312  0.5374 -3.7272
   10CHL1    C8  680   4.513   4.903   9.743 -0.2159 -0.3294 -0.0809
   10CHL1    H8  681   4.428   4.843   9.703  0.8785 -1.0816 -1.3736
   10CHL1   C14  682   4.584   4.960   9.623  0.1253 -0.8595  0.0604
   10CHL1   H14  683   4.668   5.015   9.672 -2.9474  2.4883  2.0502
   10CHL1   C15  684   4.506   5.062   9.527 -0.5193  0.4534  0.0565
   10CHL1  H15A  685   4.410   5.017   9.495  0.0955 -0.7052 -0.2287
   10CHL1  H15B  686   4.489   5.161   9.573  1.0696  1.2050 -0.8877
   10CHL1   C16  687   4.588   5.068   9.397 -0.4050  0.1007 -0.3899
   10CHL1  H16A  688   4.517   5.044   9.315 -0.7093  0.5377 -0.2623
   10CHL1  H16B  689   4.647   5.157   9.368 -0.3912 -0.3317 -1.7440
   10CHL1   C17  690   4.685   4.945   9.405  0.5549 -0.4538  0.1029
   10CHL1   H17  691   4.779   4.989   9.445 -0.1254 -0.7704  2.1669
   10CHL1   C13  692   4.631   4.856   9.520 -0.1233 -0.7502  0.1319
   10CHL1   C18  693   4.518   4.765   9.452 -0.1638 -0.2218  0.5330
   10CHL1  H18A  694   4.448   4.826   9.391 -0.2900 -0.5146  0.3848
   10CHL1  H18B  695   4.563   4.688   9.385  0.5291  0.2002  0.5096
   10CHL1  H18C  696   4.455   4.703   9.520 -0.8422 -0.5509 -0.3771
   10CHL1   C12  697   4.731   4.756   9.589  0.6295 -0.1660  0.1689
   10CHL1  H12A  698   4.746   4.669   9.522  0.5074  1.2167 -1.7217
   10CHL1  H12B  699   4.824   4.816   9.602  0.6570 -0.1636 -0.0350
   10CHL1   C11  700   4.670   4.698   9.713  0.1554  0.3342  0.1698
   10CHL1  H11A  701   4.588   4.627   9.689 -1.2873  1.2380  2.1232
   10CHL1  H11B  702   4.753   4.651   9.770  0.0361  0.7597  0.7058
   10CHL1    C9  703   4.604   4.803   9.816 -0.0064  0.8306 -0.2222
   10CHL1    H9  704   4.696   4.858   9.847  0.3218  0.1303  0.0743
   10CHL1   C10  705   4.533   4.737   9.930 -0.3647  0.0642 -0.1585
   10CHL1   C19  706   4.425   4.629   9.886 -0.5707 -0.0796  0.1179
   10CHL1  H19A  707   4.362   4.596   9.971 -1.9026 -3.5706 -1.9736
   10CHL1  H19B  708   4.352   4.677   9.817  0.6497 -0.2035 -1.3198
   10CHL1  H19C  709   4.477   4.540   9.843  0.2606  0.7182 -0.5728
   10CHL1    C1  710   4.647   4.674  10.013 -0.2080  0.4782  0.3992
   10CHL1   H1A  711   4.683   4.581   9.965  0.3263  1.2212 -0.6819
   10CHL1   H1B  712   4.736   4.739  10.026 -1.0424  1.3720  1.8694
   10CHL1    C2  713   4.603   4.639  10.162 -0.0420  0.1842 -0.0461
   10CHL1   H2A  714   4.683   4.588  10.221  0.6844 -0.3156 -1.4269
   10CHL1   H2B  715   4.522   4.567  10.139  1.8337 -1.0406 -3.4456
   10CHL1   C20  716   4.716   4.887   9.266 -0.0192  0.2579  0.0835
   10CHL1   H20  717   4.619   4.868   9.218 -0.1279  0.7208  0.1111
   10CHL1   C21  718   4.797   4.760   9.273  0.5718 -0.8344  0.2707
   10CHL1  H21A  719   4.754   4.676   9.331  0.4127 -0.6870  0.3680
   10CHL1  H21B  720   4.899   4.772   9.314  1.3251 -2.1100 -1.1170
   10CHL1  H21C  721   4.808   4.710   9.174 -1.2189 -2.8566  1.0001
   10CHL1   C22  722   4.791   4.996   9.176  0.0637  0.7558 -0.2473
   10CHL1  H22A  723   4.718   5.080   9.172 -2.1870 -0.9835  1.2683
   10CHL1  H22B  724   4.886   5.019   9.228  0.5664  0.1323 -0.8669
   10CHL1   C23  725   4.817   4.955   9.034 -0.1413  0.1340  0.0111
   10CHL1  H23A  726   4.884   4.866   9.030 -1.4343 -0.8607 -0.0814
   10CHL1  H23B  727   4.728   4.918   8.979 -0.7057  1.3370  0.0789
   10CHL1   C24  728   4.888   5.065   8.944 -0.2379  0.7582  0.3519
   10CHL1  H24A  729   4.988   5.066   8.992 -1.0014  1.5613  2.0345
   10CHL1  H24B  730   4.885   5.037   8.837 -1.7685  4.9264 -0.8989
   10CHL1   C25  731   4.824   5.206   8.959  0.4313 -0.4459  0.5160
   10CHL1   H25  732   4.822   5.235   9.067 -0.0479  3.0167 -0.2962
   10CHL1   C26  733   4.909   5.303   8.874 -0.0883  0.0752  0.8212
   10CHL1  H26A  734   5.010   5.305   8.922 -0.1418  0.2562  0.9288
   10CHL1  H26B  735   4.931   5.266   8.772 -0.8388  0.7664  0.3989
   10CHL1  H26C  736   4.882   5.411   8.866 -0.5830 -0.1574 -1.1591
   10CHL1   C27  737   4.679   5.212   8.907  0.2778  0.0425 -0.1403
   10CHL1  H27A  738   4.668   5.167   8.806  0.0376 -0.0246 -0.0863
   10CHL1  H27B  739   4.609   5.159   8.976 -2.0099  2.3476 -0.5544
   10CHL1  H27C  740   4.648   5.317   8.926  1.0463 -0.3201  4.0510
   11CHL1    C3  741   0.301   2.791  10.067 -0.0522 -0.7576 -0.1217
   11CHL1    H3  742   0.398   2.738  10.082  1.1748  1.8325  1.8639
   11CHL1    O3  743   0.254   2.826  10.196 -0.0971  0.2678  0.2923
   11CHL1   H3'  744   0.294   2.759  10.253  0.3147  1.1275  1.0409
   11CHL1    C4  745   0.314   2.916   9.977 -0.1428 -0.2389  0.5617
   11CHL1   H4A  746   0.217   2.971   9.969 -1.7051 -2.4055  2.7609
   11CHL1   H4B  747   0.388   2.982  10.026 -0.3624  0.6454 -0.2687
   11CHL1    C5  748   0.373   2.868   9.838  0.2318  0.6742 -0.0833
   11CHL1    C6  749   0.483   2.922   9.787  0.3955  0.3285  0.3166
   11CHL1    H6  750   0.527   3.011   9.834  1.0620  1.2539 -1.9371
   11CHL1    C7  751   0.534   2.882   9.656 -0.5805  0.2786  0.6045
   11CHL1   H7A  752   0.556   2.969   9.590  1.4657 -0.6436 -0.0254
   11CHL1   H7B  753   0.632   2.834   9.676 -0.3301  1.4284  2.4326
   11CHL1    C8  754   0.444   2.791   9.567 -0.3520  0.3077 -0.2861
   11CHL1    H8  755   0.364   2.859   9.528  1.5952  2.5824 -0.5495
   11CHL1   C14  756   0.516   2.721   9.449  0.0464 -0.2077  0.1365
   11CHL1   H14  757   0.597   2.658   9.490 -0.6917 -0.3561  1.4291
   11CHL1   C15  758   0.579   2.815   9.350 -0.3896  0.5802 -0.9325
   11CHL1  H15A  759   0.511   2.898   9.322 -0.2645  0.9323 -0.1995
   11CHL1  H15B  760   0.668   2.865   9.393 -0.5661 -0.9391  1.3669
   11CHL1   C16  761   0.610   2.721   9.229  0.1519 -0.1259  0.1938
   11CHL1  H16A  762   0.584   2.758   9.127 -0.0656 -4.2219 -1.4234
   11CHL1  H16B  763   0.719   2.702   9.225  0.6021  2.0706 -4.5443
   11CHL1   C17  764   0.528   2.586   9.262 -0.0993  0.5529 -0.0434
   11CHL1   H17  765   0.597   2.526   9.324  0.6566  2.0291  0.5951
   11CHL1   C13  766   0.433   2.626   9.370  0.3185 -0.0675  0.2554
   11CHL1   C18  767   0.307   2.692   9.309 -0.6046  0.9900  0.2342
   11CHL1  H18A  768   0.322   2.787   9.252 -2.8391 -0.2705 -2.7003
   11CHL1  H18B  769   0.259   2.611   9.251  1.4015 -0.1760  0.1049
   11CHL1  H18C  770   0.243   2.722   9.395 -1.1208 -0.9128  0.5607
   11CHL1   C12  771   0.389   2.518   9.470  0.5382  0.0538  0.5432
   11CHL1  H12A  772   0.324   2.438   9.429 -0.3250  0.5720  0.8771
   11CHL1  H12B  773   0.480   2.462   9.501 -0.6847 -1.6988  1.1860
   11CHL1   C11  774   0.318   2.567   9.594  0.2596  0.3348 -0.2326
   11CHL1  H11A  775   0.216   2.596   9.561 -0.5311 -0.6926  1.1782
   11CHL1  H11B  776   0.302   2.481   9.663 -0.5434 -1.3107 -2.3770
   11CHL1    C9  777   0.390   2.679   9.661  0.8404 -0.3442 -0.1911
   11CHL1    H9  778   0.473   2.633   9.718  1.3564  0.2828 -0.4224
   11CHL1   C10  779   0.299   2.747   9.768  0.2719 -0.0963  0.1382
   11CHL1   C19  780   0.178   2.818   9.713  0.5176  0.0198 -0.6871
   11CHL1  H19A  781   0.123   2.859   9.801  1.4601  0.3140 -0.2225
   11CHL1  H19B  782   0.202   2.907   9.651 -0.8221  1.1495  0.3217
   11CHL1  H19C  783   0.102   2.754   9.663  0.1767 -0.6663  0.6575
   11CHL1    C1  784   0.242   2.640   9.876 -0.3322 -0.2342  0.7924
   11CHL1   H1A  785   0.163   2.578   9.828  1.7642 -1.2103 -1.5683
   11CHL1   H1B  786   0.329   2.580   9.908 -0.7208 -1.0346  0.3782
   11CHL1    C2  787   0.201   2.698  10.004 -0.2141  0.0613  0.0817
   11CHL1   H2A  788   0.193   2.613  10.076  0.9912  1.2988  1.7651
   11CHL1   H2B  789   0.107   2.751   9.978 -0.1777 -0.3593 -0.9470
   11CHL1   C20  790   0.482   2.513   9.140 -0.0177  0.4374  0.1600
   11CHL1   H20  791   0.426   2.586   9.078  0.6162  2.3353  1.6933
   11CHL1   C21  792   0.389   2.386   9.155 -0.4607 -0.7743 -0.0081
   11CHL1  H21A  793   0.354   2.351   9.056 -0.8877 -1.1659  0.2800
   11CHL1  H21B  794   0.297   2.412   9.212 -2.2079 -1.6063 -2.3062
   11CHL1  H21C  795   0.459   2.314   9.204 -1.1550 -1.3045  0.2138
   11CHL1   C22  796   0.603   2.466   9.053  0.1114  0.2877 -0.3455
   11CHL1  H22A  797   0.680   2.547   9.053  1.3560 -0.8603 -0.4915
   11CHL1  H22B  798   0.649   2.388   9.117  1.3835  1.6113  0.4192
   11CHL1   C23  799   0.575   2.414   8.907 -0.7484  0.0818 -0.9502
   11CHL1  H23A  800   0.501   2.331   8.917  0.0847 -0.4620  1.1868
   11CHL1  H23B  801   0.516   2.493   8.856 -0.1399 -1.2357 -3.8961
   11CHL1   C24  802   0.703   2.385   8.824 -0.0074  0.0421 -0.9227
   11CHL1  H24A  803   0.782   2.463   8.827  2.2067 -2.0478 -1.5141
   11CHL1  H24B  804   0.747   2.299   8.880 -0.3585 -0.0201 -0.7412
   11CHL1   C25  805   0.683   2.364   8.674 -0.1050 -0.8040  0.3326
   11CHL1   H25  806   0.583   2.316   8.670 -0.1965 -0.6173  0.3885
   11CHL1   C26  807   0.681   2.497   8.598 -0.0837 -0.0660 -0.4234
   11CHL1  H26A  808   0.777   2.546   8.626 -0.4496  0.1440  0.5021
   11CHL1  H26B  809   0.693   2.470   8.491 -0.7277 -2.1049 -0.0102
   11CHL1  H26C  810   0.590   2.559   8.613  0.4928  0.7196 -0.0720
   11CHL1   C27  811   0.793   2.280   8.615 -0.0335 -0.1029  0.3650
   11CHL1  H27A  812   0.896   2.322   8.623 -0.4463  1.4173 -1.7003
   11CHL1  H27B  813   0.799   2.182   8.668  2.1154  2.0655  4.6391
   11CHL1  H27C  814   0.780   2.255   8.508  1.0799 -0.2930  0.2548
   12CHL1    C3  815   3.087   3.814   9.922  0.0127  0.2989  0.0599
   12CHL1    H3  816   3.051   3.718   9.878  0.6079 -0.6458  1.5244
   12CHL1    O3  817   3.043   3.813  10.054  0.5625 -0.2467  0.1167
   12CHL1   H3'  818   3.082   3.891  10.094 -0.0844 -0.5113  1.2731
   12CHL1    C4  819   3.245   3.830   9.922  0.1709 -0.2999 -0.6056
   12CHL1   H4A  820   3.259   3.915   9.992 -0.6268 -1.8593  1.5728
   12CHL1   H4B  821   3.287   3.737   9.967 -0.9364 -1.9063 -2.7484
   12CHL1    C5  822   3.296   3.849   9.776  0.3463  0.4747 -0.2371
   12CHL1    C6  823   3.395   3.763   9.739  0.4878 -0.3015  0.0308
   12CHL1    H6  824   3.417   3.687   9.816  0.3883 -1.2164 -0.8336
   12CHL1    C7  825   3.467   3.773   9.610 -0.1640  0.4119  0.8467
   12CHL1   H7A  826   3.576   3.774   9.632  0.0487  0.6968 -0.1817
   12CHL1   H7B  827   3.437   3.688   9.545  0.5936  0.2274  0.7313
   12CHL1    C8  828   3.437   3.898   9.528  0.1816 -0.6490 -0.6865
   12CHL1    H8  829   3.502   3.972   9.579  0.0678 -1.6117  0.9415
   12CHL1   C14  830   3.478   3.881   9.377  1.0695 -0.2999  0.0644
   12CHL1   H14  831   3.432   3.783   9.352  1.6996 -1.0523  1.7208
   12CHL1   C15  832   3.619   3.839   9.340 -0.1406 -0.1718 -0.2826
   12CHL1  H15A  833   3.690   3.906   9.393 -1.1744  0.4607  0.3618
   12CHL1  H15B  834   3.643   3.734   9.364 -1.8124  0.0295  2.7535
   12CHL1   C16  835   3.623   3.867   9.188  0.2800 -0.6033 -0.6535
   12CHL1  H16A  836   3.708   3.934   9.163  0.3244 -0.9497 -1.4635
   12CHL1  H16B  837   3.641   3.778   9.123 -0.1332 -0.9679 -0.2733
   12CHL1   C17  838   3.487   3.939   9.147 -0.0340 -0.1849 -0.0036
   12CHL1   H17  839   3.414   3.864   9.111 -1.0539  0.9512 -0.3783
   12CHL1   C13  840   3.437   3.990   9.285 -0.4413 -0.0654  0.5608
   12CHL1   C18  841   3.522   4.113   9.322 -0.5914 -0.4698 -0.5113
   12CHL1  H18A  842   3.531   4.129   9.432 -1.1176 -2.7509 -0.0784
   12CHL1  H18B  843   3.622   4.104   9.274 -0.8242 -0.3978 -1.0061
   12CHL1  H18C  844   3.481   4.206   9.277  1.9036  1.0035  0.0615
   12CHL1   C12  845   3.287   4.021   9.297  0.5607  0.1266  0.5924
   12CHL1  H12A  846   3.254   4.110   9.240 -1.0597  1.2722  3.1335
   12CHL1  H12B  847   3.227   3.934   9.261 -2.6996  1.8507  1.4936
   12CHL1   C11  848   3.244   4.042   9.445 -0.9304 -0.3736  0.2464
   12CHL1  H11A  849   3.288   4.136   9.484  1.1048 -0.8072 -0.8607
   12CHL1  H11B  850   3.133   4.047   9.438 -1.0646 -2.9652 -0.5589
   12CHL1    C9  851   3.284   3.930   9.542 -0.8989 -0.3082  0.1778
   12CHL1    H9  852   3.246   3.835   9.499 -0.3201 -0.5183  0.1234
   12CHL1   C10  853   3.233   3.951   9.694 -0.7400  0.2003 -0.0975
   12CHL1   C19  854   3.268   4.095   9.738  0.5029 -0.7461  0.1966
   12CHL1  H19A  855   3.375   4.124   9.742  0.7597 -1.7770  2.1802
   12CHL1  H19B  856   3.220   4.168   9.669  0.0691 -0.0086  1.2449
   12CHL1  H19C  857   3.236   4.118   9.842 -0.5483 -1.9014  0.1672
   12CHL1    C1  858   3.077   3.921   9.704 -0.3906 -0.5606 -0.7139
   12CHL1   H1A  859   3.022   3.999   9.648 -0.2961  0.6342  0.7922
   12CHL1   H1B  860   3.044   3.823   9.663 -1.3658 -1.1298  1.2785
   12CHL1    C2  861   3.010   3.924   9.844  0.4076 -0.1722  0.5726
   12CHL1   H2A  862   2.904   3.903   9.819  1.0020 -3.0724  0.1246
   12CHL1   H2B  863   3.013   4.018   9.903 -0.0064  1.3952 -1.8015
   12CHL1   C20  864   3.507   4.040   9.026  1.1660 -0.0373 -0.3422
   12CHL1   H20  865   3.593   4.110   9.035  1.4997 -0.2652 -1.5643
   12CHL1   C21  866   3.380   4.132   9.010 -0.1654 -0.0453  0.7115
   12CHL1  H21A  867   3.375   4.210   9.089  0.9248 -0.8942  1.6388
   12CHL1  H21B  868   3.288   4.072   9.021 -0.4350  0.1285 -0.4569
   12CHL1  H21C  869   3.385   4.160   8.902 -2.5115 -2.1081 -0.0129
   12CHL1   C22  870   3.537   3.966   8.898  0.0820 -0.1635  0.1123
   12CHL1  H22A  871   3.586   3.869   8.923  1.0109  0.3575  0.3751
   12CHL1  H22B  872   3.441   3.944   8.848  0.7235 -1.1162 -0.7404
   12CHL1   C23  873   3.636   4.044   8.802  0.0285  0.3204 -0.1733
   12CHL1  H23A  874   3.610   4.151   8.810  0.4905  0.3043  4.5050
   12CHL1  H23B  875   3.739   4.029   8.842 -0.3767 -1.5028  0.2779
   12CHL1   C24  876   3.623   4.005   8.654 -0.2728  0.3454  0.6886
   12CHL1  H24A  877   3.523   4.045   8.630  0.3316 -0.0487 -3.1076
   12CHL1  H24B  878   3.698   4.050   8.585 -2.1838  2.0562 -0.3691
   12CHL1   C25  879   3.611   3.860   8.616  0.6077  0.1627 -0.8331
   12CHL1   H25  880   3.542   3.804   8.683 -1.0646  2.8481 -0.1387
   12CHL1   C26  881   3.559   3.848   8.474  0.8680  0.4172  0.5649
   12CHL1  H26A  882   3.448   3.845   8.474  0.8765 -0.2345  0.0408
   12CHL1  H26B  883   3.606   3.925   8.411 -0.8571  1.9546  1.0600
   12CHL1  H26C  884   3.596   3.748   8.442  1.4050  0.0496  2.2390
   12CHL1   C27  885   3.749   3.795   8.609  0.3968 -0.2363 -0.5600
   12CHL1  H27A  886   3.801   3.820   8.704 -3.6298  2.9024  1.1497
   12CHL1  H27B  887   3.725   3.686   8.609  1.1183 -0.4005 -0.7088
   12CHL1  H27C  888   3.822   3.836   8.536  2.3591  0.6158  1.7599
   13CHL1    C3  889   2.823   6.528   9.771 -0.1892 -0.2696 -0.6841
   13CHL1    H3  890   2.858   6.633   9.766  2.4530 -0.8164  2.6678
   13CHL1    O3  891   2.832   6.485   9.908  0.6014 -0.1958  0.0313
   13CHL1   H3'  892   2.789   6.550   9.964  0.3827  0.6253 -1.0442
   13CHL1    C4  893   2.681   6.515   9.715 -0.2286 -0.1065  0.7343
   13CHL1   H4A  894   2.651   6.409   9.726  0.2025 -0.4512 -1.1299
   13CHL1   H4B  895   2.609   6.569   9.780  2.1745 -0.1211  3.6248
   13CHL1    C5  896   2.672   6.562   9.576  0.2671  0.3635 -0.4380
   13CHL1    C6  897   2.583   6.652   9.546  0.0595 -0.2824  0.4157
   13CHL1    H6  898   2.515   6.691   9.623 -0.2074 -3.1898  1.7769
   13CHL1    C7  899   2.549   6.696   9.408  0.8469 -0.7191 -0.3394
   13CHL1   H7A  900   2.440   6.702   9.386  0.7747  1.5494  0.3768
   13CHL1   H7B  901   2.588   6.799   9.390  5.0680 -2.1315 -0.2651
   13CHL1    C8  902   2.625   6.622   9.300  0.2746  0.0086 -0.3297
   13CHL1    H8  903   2.571   6.526   9.293  1.0946 -0.5116  0.3048
   13CHL1   C14  904   2.639   6.702   9.173  0.3226  0.8668 -0.1059
   13CHL1   H14  905   2.692   6.798   9.192  1.9485 -0.0773  0.3251
   13CHL1   C15  906   2.505   6.749   9.112 -0.2539  0.0712  0.1414
   13CHL1  H15A  907   2.436   6.664   9.091  0.4834 -0.6610  0.6188
   13CHL1  H15B  908   2.460   6.831   9.172 -1.8825 -0.2313 -0.5971
   13CHL1   C16  909   2.543   6.800   8.971 -0.1199  0.3216 -1.0064
   13CHL1  H16A  910   2.472   6.761   8.895 -0.2124 -2.8806  0.5703
   13CHL1  H16B  911   2.568   6.908   8.964 -1.7777  1.0910  2.5931
   13CHL1   C17  912   2.688   6.739   8.945  0.5318 -0.3546  0.2246
   13CHL1   H17  913   2.766   6.811   8.976 -0.0538  0.2037  0.4111
   13CHL1   C13  914   2.710   6.632   9.058 -0.4853 -0.6303  0.5511
   13CHL1   C18  915   2.648   6.499   9.005 -0.0851  0.0108 -0.0235
   13CHL1  H18A  916   2.699   6.445   8.923  0.2114  0.7878 -0.3650
   13CHL1  H18B  917   2.628   6.433   9.092 -1.0633  2.1767  1.4864
   13CHL1  H18C  918   2.545   6.513   8.964 -0.7123 -1.2228  1.0510
   13CHL1   C12  919   2.852   6.615   9.104  0.1673 -0.6444  0.5668
   13CHL1  H12A  920   2.904   6.559   9.023 -1.0244 -0.3541 -0.4363
   13CHL1  H12B  921   2.904   6.713   9.116  1.3884 -1.2423  0.3063
   13CHL1   C11  922   2.851   6.533   9.228 -0.0008 -0.1178 -0.2402
   13CHL1  H11A  923   2.809   6.433   9.207  2.1980 -1.2909  0.6101
   13CHL1  H11B  924   2.952   6.507   9.267 -0.1388 -0.4040 -0.0736
   13CHL1    C9  925   2.769   6.589   9.349  0.1159  0.2941  0.5545
   13CHL1    H9  926   2.823   6.685   9.367  1.1375  0.0001 -0.8142
   13CHL1   C10  927   2.767   6.504   9.478  0.0517 -0.0208  0.5645
   13CHL1   C19  928   2.719   6.363   9.440  0.3548  0.9247 -0.6172
   13CHL1  H19A  929   2.618   6.354   9.394  0.0683  1.5303 -0.1088
   13CHL1  H19B  930   2.793   6.309   9.376  1.5264  1.4388  0.2587
   13CHL1  H19C  931   2.725   6.298   9.530  1.0323 -0.1569 -1.4109
   13CHL1    C1  932   2.913   6.496   9.536  0.1175  0.0701 -0.1937
   13CHL1   H1A  933   2.977   6.428   9.475 -0.8646  0.1960 -1.3981
   13CHL1   H1B  934   2.965   6.594   9.538  2.1910 -0.9640  2.0838
   13CHL1    C2  935   2.924   6.450   9.686  0.2754 -0.5624  0.1878
   13CHL1   H2A  936   3.031   6.456   9.716  0.6460  2.9871 -1.3915
   13CHL1   H2B  937   2.893   6.343   9.693  0.1832 -0.5482 -0.0107
   13CHL1   C20  938   2.710   6.694   8.800 -0.5537 -0.6106 -0.0362
   13CHL1   H20  939   2.784   6.612   8.804  1.0664  0.7531 -1.0627
   13CHL1   C21  940   2.775   6.818   8.735 -0.1675  0.1601  0.3119
   13CHL1  H21A  941   2.875   6.848   8.774  0.3812  0.7558 -1.4733
   13CHL1  H21B  942   2.701   6.901   8.735  1.5131  1.7214  1.8567
   13CHL1  H21C  943   2.805   6.776   8.637 -1.8047 -1.9125  0.6142
   13CHL1   C22  944   2.595   6.644   8.715  0.0589  0.0877 -0.2373
   13CHL1  H22A  945   2.523   6.576   8.764  0.0056 -0.2569 -0.7915
   13CHL1  H22B  946   2.530   6.724   8.674  1.0070  0.1025 -1.8060
   13CHL1   C23  947   2.638   6.572   8.584  0.8370 -0.4052 -0.3853
   13CHL1  H23A  948   2.726   6.624   8.539  2.0084 -0.8085  1.3400
   13CHL1  H23B  949   2.683   6.478   8.622 -1.6482 -0.9941  1.3865
   13CHL1   C24  950   2.514   6.543   8.488 -0.3408  0.3353  0.4809
   13CHL1  H24A  951   2.442   6.484   8.548  0.7336 -1.9009 -0.3218
   13CHL1  H24B  952   2.487   6.646   8.457 -0.9691  0.6129  1.8534
   13CHL1   C25  953   2.551   6.492   8.358 -0.2924  0.2840  0.1129
   13CHL1   H25  954   2.639   6.539   8.308 -0.2067  0.9628  0.8803
   13CHL1   C26  955   2.566   6.339   8.377 -0.1884  0.1907 -0.2510
   13CHL1  H26A  956   2.643   6.307   8.449 -0.4103  1.9139  0.8092
   13CHL1  H26B  957   2.473   6.295   8.420  0.3335  0.6569  1.3913
   13CHL1  H26C  958   2.598   6.288   8.284  2.4571  0.3768  0.4847
   13CHL1   C27  959   2.430   6.507   8.251 -1.0849 -0.8657 -0.0049
   13CHL1  H27A  960   2.424   6.604   8.198 -1.0815 -0.9958 -0.2488
   13CHL1  H27B  961   2.442   6.426   8.176  1.0616  0.1495 -0.8320
   13CHL1  H27C  962   2.334   6.501   8.307 -0.5139  1.8826  1.4193
   14CHL1    C3  963   0.683   2.827  10.276 -0.5414  0.8915  0.5975
   14CHL1    H3  964   0.591   2.871  10.233  0.5307  1.1267 -1.5647
   14CHL1    O3  965   0.699   2.881  10.405 -0.0461  0.3867 -0.1718
   14CHL1   H3'  966   0.785   2.923  10.400  0.0639  1.0605  4.0584
   14CHL1    C4  967   0.700   2.673  10.272 -0.1637  0.2631  0.4114
   14CHL1   H4A  968   0.793   2.649  10.328  0.5265 -1.1373 -1.2707
   14CHL1   H4B  969   0.617   2.628  10.332  1.0919 -0.2955  1.8005
   14CHL1    C5  970   0.709   2.614  10.138 -0.4805 -0.0673  0.2625
   14CHL1    C6  971   0.617   2.522  10.100 -0.4258  0.0052 -0.5708
   14CHL1    H6  972   0.540   2.493  10.173 -1.4531  0.8076 -1.3012
   14CHL1    C7  973   0.615   2.444   9.972 -0.0980 -0.7079  0.1456
   14CHL1   H7A  974   0.577   2.341   9.988 -1.3630 -0.1435  0.8902
   14CHL1   H7B  975   0.539   2.496   9.911  0.9292  1.7549  0.8455
   14CHL1    C8  976   0.751   2.473   9.894  0.1275 -0.0866  0.1813
   14CHL1    H8  977   0.830   2.411   9.942  0.1238 -0.2022  0.0392
   14CHL1   C14  978   0.724   2.437   9.754  0.6725  0.0063 -0.1589
   14CHL1   H14  979   0.643   2.502   9.713 -1.0822 -1.3078  1.0960
   14CHL1   C15  980   0.671   2.296   9.728 -0.5614 -0.6303  0.3653
   14CHL1  H15A  981   0.711   2.229   9.807 -0.6830  0.2142  1.1650
   14CHL1  H15B  982   0.560   2.293   9.725 -0.5561 -0.2833 -0.4001
   14CHL1   C16  983   0.720   2.268   9.587 -0.0796 -0.7147  0.1582
   14CHL1  H16A  984   0.788   2.181   9.603  1.2742 -0.0166 -1.5210
   14CHL1  H16B  985   0.630   2.241   9.528  0.4510 -2.2236 -0.0023
   14CHL1   C17  986   0.796   2.391   9.524  0.2794 -0.1153 -0.1448
   14CHL1   H17  987   0.723   2.468   9.491  1.8936  2.0241  1.0118
   14CHL1   C13  988   0.847   2.452   9.660 -0.1134 -0.2033  0.0794
   14CHL1   C18  989   0.962   2.355   9.708 -0.0022  0.4222  0.2306
   14CHL1  H18A  990   0.978   2.370   9.817  1.0878 -0.8780  0.2835
   14CHL1  H18B  991   0.946   2.245   9.703 -1.3652  0.6640 -1.5261
   14CHL1  H18C  992   1.060   2.364   9.656 -0.4331 -1.4430 -1.0136
   14CHL1   C12  993   0.889   2.596   9.661 -0.2019 -0.2778 -0.1840
   14CHL1  H12A  994   0.977   2.612   9.596 -1.1114  0.9044 -1.1689
   14CHL1  H12B  995   0.800   2.650   9.622  0.1491 -1.5599 -3.0184
   14CHL1   C11  996   0.914   2.651   9.808  0.3347 -0.8058  0.3625
   14CHL1  H11A  997   1.006   2.598   9.840  0.7615 -2.0611 -2.5602
   14CHL1  H11B  998   0.928   2.761   9.808 -0.4414 -0.7024  0.4934
   14CHL1    C9  999   0.793   2.616   9.904  0.3337 -0.2543 -0.8135
   14CHL1    H9 1000   0.712   2.674   9.855  0.2272 -1.2346 -1.8335
   14CHL1   C10 1001   0.822   2.664  10.048 -0.0626 -0.5760 -0.2557
   14CHL1   C19 1002   0.969   2.622  10.088  0.1569 -0.0877 -0.4394
   14CHL1  H19A 1003   0.983   2.635  10.198 -1.7440  3.1697 -0.4505
   14CHL1  H19B 1004   0.984   2.514  10.065  1.0769 -0.2323  0.7734
   14CHL1  H19C 1005   1.044   2.683  10.034  1.0479 -1.0282 -0.2825
   14CHL1    C1 1006   0.809   2.822  10.055 -0.1074 -0.4595  0.7981
   14CHL1   H1A 1007   0.902   2.861  10.008  0.8724 -1.7391  1.5966
   14CHL1   H1B 1008   0.723   2.853   9.991  0.5487 -0.6803 -0.2239
   14CHL1    C2 1009   0.804   2.876  10.196  0.1306 -0.1490  0.3386
   14CHL1   H2A 1010   0.797   2.987  10.189 -2.0529 -0.2902 -0.6794
   14CHL1   H2B 1011   0.898   2.856  10.252  1.2156 -1.5978 -1.8528
   14CHL1   C20 1012   0.888   2.359   9.409  0.2114 -0.6731 -0.7013
   14CHL1   H20 1013   0.990   2.330   9.442  0.5388  2.3179  1.2866
   14CHL1   C21 1014   0.896   2.494   9.335 -0.1297 -0.5088  0.1616
   14CHL1  H21A 1015   0.984   2.498   9.268 -1.0680 -2.9222 -1.3538
   14CHL1  H21B 1016   0.901   2.585   9.398  0.7502 -1.4931  1.5678
   14CHL1  H21C 1017   0.805   2.500   9.271  0.4617 -2.7574 -0.9999
   14CHL1   C22 1018   0.833   2.253   9.316 -0.5681  0.8078  0.2276
   14CHL1  H22A 1019   0.831   2.158   9.374  0.4856  0.4200 -0.3552
   14CHL1  H22B 1020   0.726   2.277   9.298 -0.9716 -0.1691  1.1995
   14CHL1   C23 1021   0.909   2.206   9.189  0.0250 -0.2000  0.1127
   14CHL1  H23A 1022   0.922   2.290   9.118 -0.6149 -0.3693 -0.2174
   14CHL1  H23B 1023   1.011   2.164   9.205 -0.5552 -1.5551  0.3920
   14CHL1   C24 1024   0.824   2.094   9.116  0.6436 -0.0413  0.3513
   14CHL1  H24A 1025   0.762   2.037   9.188  0.5450 -0.9489 -0.4269
   14CHL1  H24B 1026   0.757   2.151   9.048  2.7989  1.7860 -0.3645
   14CHL1   C25 1027   0.907   2.004   9.015  0.0870  0.3248 -0.2479
   14CHL1   H25 1028   0.976   1.940   9.074  1.5539 -0.1052 -2.3361
   14CHL1   C26 1029   0.814   1.904   8.941 -0.1549  0.1078  0.0161
   14CHL1  H26A 1030   0.869   1.826   8.884 -0.1551  0.4772 -0.5031
   14CHL1  H26B 1031   0.764   1.843   9.019  1.4221 -0.1237  0.8943
   14CHL1  H26C 1032   0.752   1.956   8.864 -0.1118 -0.1401 -0.1876
   14CHL1   C27 1033   0.989   2.090   8.921 -0.3001  0.4263  0.3017
   14CHL1  H27A 1034   1.052   2.161   8.979  1.2784 -0.0599 -0.7771
   14CHL1  H27B 1035   1.044   2.028   8.848 -3.0577  0.0944 -1.6865
   14CHL1  H27C 1036   0.924   2.148   8.852  1.1763 -0.8191 -2.2740
   15CHL1    C3 1037   2.009   0.377  10.188  0.5518 -0.4623  0.5125
   15CHL1    H3 1038   1.941   0.306  10.135 -0.2985 -0.0015  0.9721
   15CHL1    O3 1039   1.977   0.373  10.321 -0.5041 -0.0301 -0.3906
   15CHL1   H3' 1040   1.954   0.465  10.337  1.1200  0.5556 -1.1980
   15CHL1    C4 1041   2.158   0.346  10.159 -0.2303 -0.2786 -0.6806
   15CHL1   H4A 1042   2.224   0.427  10.196  0.5404  0.4615 -3.4205
   15CHL1   H4B 1043   2.176   0.250  10.212 -1.6036 -0.6264 -0.8016
   15CHL1    C5 1044   2.181   0.336  10.012  0.2312 -0.2236  0.5232
   15CHL1    C6 1045   2.228   0.224   9.958 -0.4580  0.2326  0.5487
   15CHL1    H6 1046   2.253   0.134  10.017  2.0597 -0.2443 -1.0361
   15CHL1    C7 1047   2.259   0.208   9.811  0.1437 -0.8001 -0.8615
   15CHL1   H7A 1048   2.361   0.166   9.803  0.9724  0.8563  0.5432
   15CHL1   H7B 1049   2.180   0.141   9.769  0.1471 -1.7712  0.5845
   15CHL1    C8 1050   2.275   0.350   9.749  0.2497 -0.3792  0.6750
   15CHL1    H8 1051   2.364   0.402   9.791 -0.6044  0.6612  1.2798
   15CHL1   C14 1052   2.270   0.319   9.598  0.1812 -0.4138  0.0998
   15CHL1   H14 1053   2.165   0.287   9.578 -0.4336  0.8607  1.1454
   15CHL1   C15 1054   2.355   0.204   9.532 -0.2515  0.3513  0.3112
   15CHL1  H15A 1055   2.457   0.191   9.573 -1.1982  0.5006  2.9001
   15CHL1  H15B 1056   2.309   0.106   9.556  1.8824 -0.4827  1.3345
   15CHL1   C16 1057   2.356   0.246   9.382 -0.2162 -0.4218  0.2385
   15CHL1  H16A 1058   2.461   0.256   9.348 -0.0725 -0.9953  0.5045
   15CHL1  H16B 1059   2.300   0.177   9.315  1.0085 -0.4244 -0.8026
   15CHL1   C17 1060   2.278   0.380   9.358 -0.5117  0.5262  0.3846
   15CHL1   H17 1061   2.173   0.356   9.331  0.4031 -1.6775 -1.5148
   15CHL1   C13 1062   2.279   0.447   9.502 -0.2369 -0.5141  0.4733
   15CHL1   C18 1063   2.409   0.514   9.535 -0.2450 -0.3279 -0.3260
   15CHL1  H18A 1064   2.424   0.535   9.643  2.7782 -0.7639 -0.5828
   15CHL1  H18B 1065   2.493   0.448   9.504 -1.3663 -2.9614  1.7619
   15CHL1  H18C 1066   2.420   0.608   9.478 -4.4701  1.7625  1.7982
   15CHL1   C12 1067   2.164   0.548   9.543 -0.0250 -0.0907  0.5122
   15CHL1  H12A 1068   2.167   0.643   9.486 -0.6083 -0.0577  0.5288
   15CHL1  H12B 1069   2.072   0.492   9.515 -0.1846  0.3972  0.0381
   15CHL1   C11 1070   2.152   0.568   9.698 -0.4182  0.0532 -1.1204
   15CHL1  H11A 1071   2.231   0.639   9.733  1.3232 -1.9489 -0.7688
   15CHL1  H11B 1072   2.048   0.605   9.712 -0.2353  0.5147 -0.9470
   15CHL1    C9 1073   2.155   0.437   9.789  0.1121  0.3445  0.2668
   15CHL1    H9 1074   2.061   0.387   9.755 -0.3689  1.6911 -0.4839
   15CHL1   C10 1075   2.143   0.462   9.940  0.1246 -0.2605  0.2024
   15CHL1   C19 1076   2.228   0.588   9.974  0.3921 -0.2146  0.4201
   15CHL1  H19A 1077   2.185   0.678   9.926  0.4992  0.0629  0.8459
   15CHL1  H19B 1078   2.242   0.594  10.084  0.5862  1.1415  0.3320
   15CHL1  H19C 1079   2.334   0.567   9.947  0.0270  0.9846 -2.1448
   15CHL1    C1 1080   1.999   0.501   9.976 -1.3101 -0.5976  0.4369
   15CHL1   H1A 1081   1.975   0.600   9.933  3.2543 -0.1574 -1.7201
   15CHL1   H1B 1082   1.929   0.423   9.939 -1.2145 -0.4771  0.0018
   15CHL1    C2 1083   1.980   0.517  10.124 -0.4385 -0.1865  0.1334
   15CHL1   H2A 1084   1.880   0.559  10.147  0.1290  1.7796 -0.7822
   15CHL1   H2B 1085   2.051   0.587  10.172  1.7868 -1.3136 -1.3591
   15CHL1   C20 1086   2.327   0.462   9.245 -0.3862 -0.2538  0.1809
   15CHL1   H20 1087   2.435   0.490   9.248 -0.9002  2.7371 -2.7406
   15CHL1   C21 1088   2.263   0.604   9.240  1.0182 -0.7964 -0.6114
   15CHL1  H21A 1089   2.313   0.664   9.318  0.1333 -0.2088 -0.4840
   15CHL1  H21B 1090   2.153   0.596   9.253  1.2994 -1.6613  1.7160
   15CHL1  H21C 1091   2.282   0.655   9.143 -0.5732  0.7870 -0.1535
   15CHL1   C22 1092   2.320   0.380   9.115 -0.2629 -0.0072  0.6470
   15CHL1  H22A 1093   2.379   0.287   9.130  0.8074  0.6540  0.6316
   15CHL1  H22B 1094   2.216   0.354   9.087 -0.3022 -0.7961  1.5035
   15CHL1   C23 1095   2.381   0.465   8.992 -0.8049  0.0981 -0.0030
   15CHL1  H23A 1096   2.320   0.556   8.976 -0.9472 -0.1519 -0.9544
   15CHL1  H23B 1097   2.476   0.510   9.027  0.7893 -2.3531 -0.9221
   15CHL1   C24 1098   2.396   0.382   8.864  0.2018  1.0270  0.1147
   15CHL1  H24A 1099   2.443   0.287   8.896  0.1506  0.0075 -2.5945
   15CHL1  H24B 1100   2.295   0.351   8.829 -0.1256  1.2124  0.8802
   15CHL1   C25 1101   2.475   0.445   8.750 -0.2096 -0.8155  1.1116
   15CHL1   H25 1102   2.577   0.467   8.790  1.2558 -1.3640 -1.9670
   15CHL1   C26 1103   2.492   0.356   8.628 -0.0751 -0.8772  0.0586
   15CHL1  H26A 1104   2.394   0.330   8.583  0.4666 -1.3751 -0.8743
   15CHL1  H26B 1105   2.538   0.414   8.545  0.1874 -2.3029 -0.8426
   15CHL1  H26C 1106   2.561   0.270   8.643 -0.7873 -1.1734  1.8524
   15CHL1   C27 1107   2.416   0.582   8.710  0.7644  0.2890  0.0570
   15CHL1  H27A 1108   2.438   0.602   8.603  4.9508 -0.9246  0.4989
   15CHL1  H27B 1109   2.306   0.575   8.701  0.9404 -2.5205 -0.9708
   15CHL1  H27C 1110   2.441   0.665   8.780 -0.2898 -0.0614  0.8709
   16CHL1    C3 1111   1.992   2.416   9.923 -0.3598 -0.3904  0.3482
   16CHL1    H3 1112   1.891   2.461   9.935 -0.5223 -0.1893 -1.5239
   16CHL1    O3 1113   2.027   2.354  10.047 -0.1781  0.1479 -0.3098
   16CHL1   H3' 1114   1.944   2.361  10.095  1.2886 -1.1526  2.6818
   16CHL1    C4 1115   1.985   2.310   9.815  0.4689  0.1743 -0.0593
   16CHL1   H4A 1116   2.071   2.243   9.838  1.5645  1.8565  0.9428
   16CHL1   H4B 1117   1.897   2.244   9.831 -0.0387  0.4155 -1.6508
   16CHL1    C5 1118   1.986   2.367   9.673 -0.6179 -0.0998 -0.4850
   16CHL1    C6 1119   1.893   2.329   9.584  0.0105  0.4381  0.3785
   16CHL1    H6 1120   1.809   2.260   9.604  1.1889 -1.5740 -1.2107
   16CHL1    C7 1121   1.890   2.380   9.438 -1.1833  0.1499  0.1040
   16CHL1   H7A 1122   1.867   2.294   9.371 -0.6124  0.2765 -0.2607
   16CHL1   H7B 1123   1.811   2.455   9.418 -0.9043  0.2620 -0.6403
   16CHL1    C8 1124   2.026   2.437   9.396  0.0376 -0.0335  0.5346
   16CHL1    H8 1125   2.094   2.350   9.384  0.5060  0.2950  0.8020
   16CHL1   C14 1126   2.017   2.498   9.250 -0.2790 -0.0118  0.5167
   16CHL1   H14 1127   1.931   2.567   9.263 -0.0853  0.6894 -1.5322
   16CHL1   C15 1128   1.956   2.403   9.146 -0.3881  0.6276  0.7264
   16CHL1  H15A 1129   2.001   2.302   9.141  0.2751  0.9706 -0.6221
   16CHL1  H15B 1130   1.846   2.387   9.159 -0.2042  0.6455  2.6901
   16CHL1   C16 1131   1.993   2.476   9.013  0.2172  0.1014 -0.2642
   16CHL1  H16A 1132   2.040   2.396   8.953 -0.0397 -0.2360 -0.0248
   16CHL1  H16B 1133   1.902   2.513   8.960  0.8172  1.3291 -0.4564
   16CHL1   C17 1134   2.086   2.598   9.052 -0.0107  0.5296 -0.4132
   16CHL1   H17 1135   2.022   2.688   9.063 -2.8254 -1.5773  2.2598
   16CHL1   C13 1136   2.135   2.565   9.198  0.1672 -0.1477 -0.0382
   16CHL1   C18 1137   2.248   2.462   9.186 -0.2041  0.4860 -0.2617
   16CHL1  H18A 1138   2.270   2.402   9.278  0.8697 -2.8851 -2.5166
   16CHL1  H18B 1139   2.229   2.394   9.100 -3.7447  1.7889 -0.6564
   16CHL1  H18C 1140   2.340   2.522   9.168  0.5685 -0.2176  1.1368
   16CHL1   C12 1141   2.172   2.679   9.295 -0.2008 -0.0554  0.2863
   16CHL1  H12A 1142   2.251   2.748   9.258  1.4291 -1.3606  1.2182
   16CHL1  H12B 1143   2.084   2.746   9.306  1.4386  2.1589  0.5773
   16CHL1   C11 1144   2.190   2.624   9.436 -0.6282 -0.6510  0.2490
   16CHL1  H11A 1145   2.289   2.576   9.443 -0.1158  0.2680 -0.4915
   16CHL1  H11B 1146   2.200   2.712   9.503  1.4455 -0.9017  0.3357
   16CHL1    C9 1147   2.074   2.540   9.497 -0.6251  0.4608  0.3974
   16CHL1    H9 1148   1.987   2.607   9.508 -0.2769  1.3502 -1.8643
   16CHL1   C10 1149   2.095   2.476   9.635 -0.4299  0.4605 -0.4747
   16CHL1   C19 1150   2.236   2.416   9.635 -0.0498  0.3119  0.3156
   16CHL1  H19A 1151   2.250   2.360   9.730 -1.3820  1.6441  1.3640
   16CHL1  H19B 1152   2.250   2.359   9.541 -2.0440 -1.4262  1.0054
   16CHL1  H19C 1153   2.312   2.497   9.634 -0.0906  0.3752 -1.9034
   16CHL1    C1 1154   2.089   2.585   9.747 -0.4649 -0.0456 -0.4886
   16CHL1   H1A 1155   2.170   2.661   9.745 -0.3887 -0.0065  1.6920
   16CHL1   H1B 1156   1.995   2.643   9.742  0.4693  1.6263  0.4494
   16CHL1    C2 1157   2.089   2.533   9.892 -0.6114 -0.0815 -0.5406
   16CHL1   H2A 1158   2.094   2.620   9.960  1.3855 -0.4063 -0.2256
   16CHL1   H2B 1159   2.189   2.488   9.905 -0.6978  0.0560  0.7412
   16CHL1   C20 1160   2.190   2.631   8.946 -0.0170 -1.0308 -0.4625
   16CHL1   H20 1161   2.251   2.538   8.938 -0.0195 -1.2922  2.0366
   16CHL1   C21 1162   2.288   2.741   8.981  0.1415 -0.1688 -0.2494
   16CHL1  H21A 1163   2.233   2.837   8.995 -1.0790 -0.8923  0.1583
   16CHL1  H21B 1164   2.351   2.752   8.891 -0.1635 -3.7248 -1.0355
   16CHL1  H21C 1165   2.355   2.701   9.060  0.8159 -0.6099 -1.0429
   16CHL1   C22 1166   2.118   2.651   8.806 -0.0392 -0.1370  0.1596
   16CHL1  H22A 1167   2.181   2.698   8.727 -0.3990 -1.5964 -1.0365
   16CHL1  H22B 1168   2.098   2.552   8.760 -0.0568 -0.6367  1.2091
   16CHL1   C23 1169   1.984   2.736   8.799 -0.7990  0.2661  0.1939
   16CHL1  H23A 1170   1.901   2.670   8.832 -0.7530  0.4557  0.6903
   16CHL1  H23B 1171   2.001   2.820   8.869 -0.2467  1.2496 -1.0722
   16CHL1   C24 1172   1.961   2.811   8.657 -0.4630  0.5848 -0.1596
   16CHL1  H24A 1173   2.049   2.870   8.625  0.6837 -1.7652 -1.6390
   16CHL1  H24B 1174   1.959   2.730   8.581  2.5279  2.2456 -2.2214
   16CHL1   C25 1175   1.836   2.897   8.648 -0.4654 -0.2478  0.1697
   16CHL1   H25 1176   1.822   2.947   8.549 -0.1127  1.8377  1.1183
   16CHL1   C26 1177   1.706   2.818   8.651 -0.1208  0.3498  0.2275
   16CHL1  H26A 1178   1.698   2.769   8.750 -3.0286  2.3107  1.0918
   16CHL1  H26B 1179   1.623   2.892   8.647 -0.6013 -0.2383 -1.4585
   16CHL1  H26C 1180   1.691   2.741   8.572  0.8304  0.9887 -0.6086
   16CHL1   C27 1181   1.862   3.012   8.748 -0.3328  0.1434 -0.4640
   16CHL1  H27A 1182   1.782   3.088   8.746  0.0988  0.6204 -0.0053
   16CHL1  H27B 1183   1.851   2.964   8.848  1.5678  0.0914 -0.2376
   16CHL1  H27C 1184   1.966   3.048   8.732  0.7692 -2.4678  0.2722
   17CHL1    C3 1185   0.085   1.071  10.237  0.0945  0.2578  0.3432
   17CHL1    H3 1186  -0.007   1.013  10.262  0.4361 -0.3685  0.1474
   17CHL1    O3 1187   0.138   1.110  10.361 -0.3080 -0.0148 -0.2389
   17CHL1   H3' 1188   0.108   1.200  10.371 -5.4565 -1.4708  0.3295
   17CHL1    C4 1189   0.187   0.983  10.173 -0.5804 -0.3814  0.5145
   17CHL1   H4A 1190   0.288   1.029  10.166 -0.0735 -1.7072 -2.1258
   17CHL1   H4B 1191   0.194   0.890  10.234 -0.9075 -0.0911  0.9969
   17CHL1    C5 1192   0.149   0.954  10.025 -0.5507 -0.6258 -0.9936
   17CHL1    C6 1193   0.152   0.828   9.979 -0.7597  0.0225  0.1912
   17CHL1    H6 1194   0.163   0.749  10.055  1.5957  1.7433  1.7638
   17CHL1    C7 1195   0.133   0.793   9.838  0.0530 -0.5465 -0.3222
   17CHL1   H7A 1196   0.205   0.718   9.799  0.9338 -0.1000  0.4049
   17CHL1   H7B 1197   0.031   0.749   9.829 -0.3064  0.5133 -2.0428
   17CHL1    C8 1198   0.146   0.919   9.747 -0.7594  0.6671  0.2401
   17CHL1    H8 1199   0.254   0.944   9.745 -0.5215 -0.3410 -1.1620
   17CHL1   C14 1200   0.094   0.881   9.604 -0.6915  0.0508 -0.4877
   17CHL1   H14 1201  -0.014   0.855   9.616 -0.4548 -0.3306  0.9996
   17CHL1   C15 1202   0.157   0.753   9.546 -0.1916 -0.2033 -0.2223
   17CHL1  H15A 1203   0.267   0.754   9.538  0.0111 -1.1638  1.8500
   17CHL1  H15B 1204   0.140   0.656   9.596  0.6686 -0.2940 -0.0992
   17CHL1   C16 1205   0.109   0.761   9.399  0.2307  0.4109  0.3878
   17CHL1  H16A 1206   0.184   0.746   9.318 -0.2050 -1.7254  0.3050
   17CHL1  H16B 1207   0.031   0.683   9.384 -0.1411  0.7920  0.3173
   17CHL1   C17 1208   0.050   0.905   9.378  0.4727 -0.0304  0.2619
   17CHL1   H17 1209  -0.060   0.890   9.384  0.4386  0.3941  0.7799
   17CHL1   C13 1210   0.096   0.987   9.499 -0.3709  0.0581  0.7992
   17CHL1   C18 1211   0.236   1.039   9.475  0.3109 -0.0966 -0.3807
   17CHL1  H18A 1212   0.285   1.053   9.574 -0.4088 -1.9832  0.2876
   17CHL1  H18B 1213   0.299   0.965   9.421 -0.5600 -1.0774 -0.0904
   17CHL1  H18C 1214   0.245   1.140   9.430  2.1962 -0.4330 -0.8436
   17CHL1   C12 1215   0.004   1.101   9.549  0.6403  0.4756  0.6403
   17CHL1  H12A 1216   0.007   1.191   9.485  1.2570  0.5347  0.7509
   17CHL1  H12B 1217  -0.100   1.061   9.553  0.8625 -1.0042 -3.6525
   17CHL1   C11 1218   0.042   1.154   9.687 -0.9139  0.6927 -0.4960
   17CHL1  H11A 1219   0.135   1.213   9.676  0.1259 -0.5522  1.1365
   17CHL1  H11B 1220  -0.040   1.219   9.723 -0.6303  1.4550 -1.2183
   17CHL1    C9 1221   0.072   1.040   9.800  0.0356 -0.4300  0.5155
   17CHL1    H9 1222  -0.030   0.996   9.811  0.6440 -1.4606  2.7063
   17CHL1   C10 1223   0.129   1.077   9.940 -0.3823  0.3883  0.0353
   17CHL1   C19 1224   0.258   1.153   9.921  0.8085 -0.0893 -0.7769
   17CHL1  H19A 1225   0.318   1.163  10.014 -1.4200 -0.3045  0.7473
   17CHL1  H19B 1226   0.319   1.116   9.836 -1.4249  0.0530 -2.5441
   17CHL1  H19C 1227   0.220   1.255   9.899 -2.2648 -0.9216  0.2675
   17CHL1    C1 1228   0.029   1.167  10.009  0.0427  0.2378  0.3347
   17CHL1   H1A 1229   0.006   1.264   9.961 -0.0504 -0.0308 -0.1646
   17CHL1   H1B 1230  -0.064   1.107  10.020  0.5560 -0.5796  0.3235
   17CHL1    C2 1231   0.059   1.200  10.153  0.2838 -0.3413 -0.6227
   17CHL1   H2A 1232  -0.025   1.259  10.196 -1.1989 -1.4653 -1.8573
   17CHL1   H2B 1233   0.150   1.264  10.154  0.2375 -0.1101 -3.5574
   17CHL1   C20 1234   0.074   0.953   9.235  0.2462 -0.1560  0.0398
   17CHL1   H20 1235   0.184   0.962   9.223  0.1982  0.1211 -0.2180
   17CHL1   C21 1236  -0.001   1.089   9.219 -0.0613  0.3667  0.2361
   17CHL1  H21A 1237   0.060   1.157   9.282 -0.7305  0.9244  0.2956
   17CHL1  H21B 1238  -0.106   1.069   9.251  0.3463 -2.0846  0.2178
   17CHL1  H21C 1239  -0.009   1.136   9.118 -1.4553  0.0456  0.1806
   17CHL1   C22 1240   0.027   0.855   9.132 -0.3227  1.2369  0.3340
   17CHL1  H22A 1241   0.107   0.783   9.106 -0.0187  1.3480  0.9547
   17CHL1  H22B 1242  -0.065   0.793   9.140  1.2196 -1.4932 -1.3726
   17CHL1   C23 1243   0.010   0.920   8.991 -1.1166  0.3692 -0.5621
   17CHL1  H23A 1244  -0.087   0.974   9.000 -1.1047  0.4567 -0.9314
   17CHL1  H23B 1245   0.091   0.994   8.974 -0.8729  1.1026  3.0754
   17CHL1   C24 1246   0.009   0.816   8.876  0.3085 -0.3122 -0.3867
   17CHL1  H24A 1247   0.107   0.763   8.873  0.5486 -0.1595  2.2472
   17CHL1  H24B 1248  -0.066   0.735   8.887 -1.3740  1.1712 -0.5915
   17CHL1   C25 1249   0.009   0.874   8.730  0.1960  0.1074 -0.0395
   17CHL1   H25 1250   0.102   0.927   8.702 -0.5631  0.9763 -1.0039
   17CHL1   C26 1251  -0.030   0.770   8.624  0.0438  0.4855 -0.4546
   17CHL1  H26A 1252  -0.002   0.800   8.521  2.6138 -1.1791 -0.3246
   17CHL1  H26B 1253   0.032   0.678   8.636 -0.7073 -0.2420 -1.8619
   17CHL1  H26C 1254  -0.138   0.745   8.632  0.8910 -3.7524  0.3750
   17CHL1   C27 1255  -0.082   0.997   8.719 -0.2494 -0.0578  0.1547
   17CHL1  H27A 1256  -0.187   0.962   8.726 -0.1074 -0.4935  0.1464
   17CHL1  H27B 1257  -0.064   1.071   8.800  0.7507 -0.8321  0.6624
   17CHL1  H27C 1258  -0.082   1.049   8.621 -2.7999  2.6263  1.3885
   18CHL1    C3 1259   3.949   4.700   9.958 -0.0975  0.0662  0.4521
   18CHL1    H3 1260   3.964   4.602   9.909  2.7115 -0.0400  1.3550
   18CHL1    O3 1261   3.982   4.714  10.093 -0.1650 -0.2431 -0.0329
   18CHL1   H3' 1262   3.995   4.809  10.101 -3.1198  0.1865  0.7890
   18CHL1    C4 1263   4.028   4.795   9.870 -0.6284 -0.5880  0.0056
   18CHL1   H4A 1264   4.039   4.897   9.913 -2.6119 -0.9097  1.4043
   18CHL1   H4B 1265   4.135   4.765   9.881 -0.7678 -0.8702  0.6290
   18CHL1    C5 1266   3.975   4.808   9.730 -0.4857  0.1482 -0.2924
   18CHL1    C6 1267   4.062   4.798   9.627 -0.4510 -0.0756  0.2555
   18CHL1    H6 1268   4.171   4.797   9.643 -0.2330 -0.6348 -1.0751
   18CHL1    C7 1269   4.031   4.804   9.481  0.0348  0.0178  0.2471
   18CHL1   H7A 1270   4.111   4.853   9.422 -1.4686 -1.3676 -3.2407
   18CHL1   H7B 1271   4.027   4.702   9.437  1.7681 -1.0342  2.3425
   18CHL1    C8 1272   3.896   4.879   9.465  0.8780 -0.1062 -0.5488
   18CHL1    H8 1273   3.909   4.986   9.490  1.4493  0.0464 -1.4603
   18CHL1   C14 1274   3.845   4.867   9.324 -0.2462  0.0745  1.0034
   18CHL1   H14 1275   3.804   4.765   9.310  0.0981 -0.0510  0.9213
   18CHL1   C15 1276   3.929   4.897   9.198 -0.5368  0.3188 -0.1565
   18CHL1  H15A 1277   3.993   4.988   9.201  0.3332 -0.2674 -0.5049
   18CHL1  H15B 1278   3.996   4.814   9.166  1.4159  1.4202  0.8593
   18CHL1   C16 1279   3.835   4.920   9.079 -0.4371 -0.0273 -0.1149
   18CHL1  H16A 1280   3.857   5.009   9.015 -1.0558  0.7871  0.7716
   18CHL1  H16B 1281   3.848   4.836   9.008  0.4934  0.4361 -0.5179
   18CHL1   C17 1282   3.687   4.927   9.142  0.6589  0.5905 -0.1214
   18CHL1   H17 1283   3.648   4.827   9.114 -2.0660  1.9431 -1.5818
   18CHL1   C13 1284   3.711   4.940   9.295 -0.5480  0.2687 -0.7333
   18CHL1   C18 1285   3.717   5.090   9.331  0.0341  0.6160 -0.4956
   18CHL1  H18A 1286   3.612   5.128   9.324 -0.1122  0.3538  0.1756
   18CHL1  H18B 1287   3.729   5.112   9.439 -0.8128 -1.8909  0.1612
   18CHL1  H18C 1288   3.791   5.151   9.275  1.2184 -0.2135  0.1432
   18CHL1   C12 1289   3.598   4.878   9.386  0.0517  0.6968  0.3363
   18CHL1  H12A 1290   3.505   4.936   9.370  1.3173  2.2751 -1.9305
   18CHL1  H12B 1291   3.584   4.774   9.349  2.3610  0.5875 -0.3952
   18CHL1   C11 1292   3.642   4.866   9.533 -0.3374 -0.4427 -0.3686
   18CHL1  H11A 1293   3.652   4.965   9.582  6.9686 -0.7647 -0.0843
   18CHL1  H11B 1294   3.570   4.802   9.590  0.0597  0.0583  0.7324
   18CHL1    C9 1295   3.789   4.820   9.558  0.0041  0.7284  0.2267
   18CHL1    H9 1296   3.796   4.712   9.531  0.2125  0.9001 -0.4313
   18CHL1   C10 1297   3.825   4.829   9.712 -0.5049 -0.0660 -0.1745
   18CHL1   C19 1298   3.789   4.971   9.776 -0.4682 -0.1858 -0.2529
   18CHL1  H19A 1299   3.680   4.979   9.796 -0.1827  1.2921  0.8995
   18CHL1  H19B 1300   3.837   4.982   9.876 -1.8711 -1.0836  0.5585
   18CHL1  H19C 1301   3.815   5.050   9.703 -2.6586  1.5124  0.6748
   18CHL1    C1 1302   3.759   4.735   9.800 -0.2996 -0.2003  0.5377
   18CHL1   H1A 1303   3.649   4.737   9.782 -0.1158  0.4956 -0.6505
   18CHL1   H1B 1304   3.792   4.636   9.760 -0.8317  0.9855 -3.2252
   18CHL1    C2 1305   3.795   4.732   9.951  0.9061 -0.1827  0.9642
   18CHL1   H2A 1306   3.729   4.657   9.998 -1.2804  1.0245  0.0031
   18CHL1   H2B 1307   3.772   4.824  10.009  1.4184  0.1960  0.5914
   18CHL1   C20 1308   3.584   5.026   9.071 -0.4019 -0.5129  0.6342
   18CHL1   H20 1309   3.593   5.124   9.123  0.7964 -0.9003  1.2004
   18CHL1   C21 1310   3.442   4.984   9.101  0.2923 -0.2306 -0.1248
   18CHL1  H21A 1311   3.407   5.015   9.202 -1.1150  0.3113 -0.7547
   18CHL1  H21B 1312   3.440   4.873   9.092  2.3961 -0.4126  1.0488
   18CHL1  H21C 1313   3.362   5.030   9.038 -0.6761 -0.8988  0.5795
   18CHL1   C22 1314   3.616   5.042   8.921 -0.0550 -0.0720 -0.0039
   18CHL1  H22A 1315   3.549   5.121   8.881 -1.6632 -1.6500 -0.5546
   18CHL1  H22B 1316   3.714   5.092   8.902 -1.0846  2.1180  0.0975
   18CHL1   C23 1317   3.594   4.925   8.830  0.3295 -0.1007 -0.1799
   18CHL1  H23A 1318   3.653   4.836   8.862  3.6633  1.2654 -1.9746
   18CHL1  H23B 1319   3.486   4.901   8.834 -0.0589  1.6062  0.0039
   18CHL1   C24 1320   3.630   4.950   8.682 -0.2501  0.1449  0.5301
   18CHL1  H24A 1321   3.584   5.046   8.649  0.5747  0.5985  0.6814
   18CHL1  H24B 1322   3.738   4.975   8.685 -0.2248 -0.0588  1.5724
   18CHL1   C25 1323   3.626   4.826   8.586  0.7523  0.5439  0.1558
   18CHL1   H25 1324   3.658   4.868   8.488 -2.1007 -1.4625 -1.8016
   18CHL1   C26 1325   3.718   4.714   8.631  0.1921 -0.6024  0.1039
   18CHL1  H26A 1326   3.720   4.628   8.561  0.4496 -1.0086  0.6083
   18CHL1  H26B 1327   3.822   4.753   8.635  1.3517 -3.4936  0.0201
   18CHL1  H26C 1328   3.695   4.672   8.732  1.5058  0.8693  1.0622
   18CHL1   C27 1329   3.483   4.776   8.573 -0.2528 -0.4062 -0.2434
   18CHL1  H27A 1330   3.485   4.707   8.486  0.8968 -0.7357  0.0261
   18CHL1  H27B 1331   3.447   4.727   8.666 -0.0455 -0.3652 -0.1408
   18CHL1  H27C 1332   3.422   4.862   8.541 -1.2119 -1.0403 -0.1528
   19CHL1    C3 1333   2.230   1.686   9.946 -0.5002  0.4386  0.5635
   19CHL1    H3 1334   2.287   1.599   9.908 -0.1051  1.2796 -0.8658
   19CHL1    O3 1335   2.240   1.684  10.082 -0.2769  0.0708  0.4894
   19CHL1   H3' 1336   2.323   1.728  10.102  0.7875 -0.6149 -2.0174
   19CHL1    C4 1337   2.303   1.813   9.898  0.1451 -0.3385 -0.6976
   19CHL1   H4A 1338   2.263   1.907   9.941  1.5427  0.1028 -0.3040
   19CHL1   H4B 1339   2.407   1.803   9.936  0.2589 -2.2485 -1.3850
   19CHL1    C5 1340   2.292   1.839   9.747 -0.3597 -0.4739  0.6899
   19CHL1    C6 1341   2.397   1.853   9.664  0.4819  0.4096  0.8366
   19CHL1    H6 1342   2.496   1.843   9.712  0.6322 -3.2892  0.0047
   19CHL1    C7 1343   2.387   1.880   9.517 -0.7704  0.5116 -0.6507
   19CHL1   H7A 1344   2.448   1.968   9.487 -0.4728  0.3186 -0.6246
   19CHL1   H7B 1345   2.426   1.791   9.463 -0.9863 -0.1946  0.3153
   19CHL1    C8 1346   2.244   1.916   9.474 -0.7792 -0.2283  0.6651
   19CHL1    H8 1347   2.207   2.018   9.497 -1.3660 -0.1096 -0.7127
   19CHL1   C14 1348   2.227   1.906   9.321 -0.0830  0.1654 -0.6509
   19CHL1   H14 1349   2.256   1.804   9.288 -1.8276 -0.2865 -0.8919
   19CHL1   C15 1350   2.303   2.001   9.229 -0.6529  0.6654 -0.3216
   19CHL1  H15A 1351   2.279   2.102   9.268 -1.6119  1.1272 -2.0551
   19CHL1  H15B 1352   2.414   1.995   9.229 -0.6947 -0.2400 -0.8291
   19CHL1   C16 1353   2.234   1.976   9.091 -0.3782 -0.0431 -0.2625
   19CHL1  H16A 1354   2.218   2.064   9.025 -1.9794  0.1771  0.3859
   19CHL1  H16B 1355   2.301   1.894   9.056  1.1247  0.5757  1.0292
   19CHL1   C17 1356   2.095   1.913   9.117  0.3695 -0.1921 -0.7035
   19CHL1   H17 1357   2.119   1.808   9.088  2.5974  0.5282 -1.7122
   19CHL1   C13 1358   2.083   1.917   9.267 -0.3221 -0.0076 -0.1504
   19CHL1   C18 1359   2.016   2.055   9.303 -0.7389 -0.1937 -0.3078
   19CHL1  H18A 1360   1.911   2.052   9.270 -0.3194  1.3942 -1.8907
   19CHL1  H18B 1361   2.012   2.069   9.413 -2.7357 -5.2665  0.5359
   19CHL1  H18C 1362   2.068   2.136   9.248  0.0773 -0.8970 -0.6074
   19CHL1   C12 1363   1.999   1.797   9.324 -0.1216 -0.0725  0.3108
   19CHL1  H12A 1364   1.895   1.799   9.287  0.2427  1.1265 -0.7028
   19CHL1  H12B 1365   2.048   1.700   9.300  0.0163  0.1740 -0.4275
   19CHL1   C11 1366   2.003   1.815   9.477  0.4436 -0.0271 -0.3859
   19CHL1  H11A 1367   1.942   1.904   9.503 -0.3944 -0.6055 -0.3115
   19CHL1  H11B 1368   1.940   1.737   9.526 -1.5035  1.4667 -0.3810
   19CHL1    C9 1369   2.148   1.811   9.534  0.4719 -0.3033 -0.1804
   19CHL1    H9 1370   2.189   1.711   9.508 -1.0303 -1.1507  0.5497
   19CHL1   C10 1371   2.151   1.821   9.693  0.0145 -0.1314  0.0844
   19CHL1   C19 1372   2.081   1.957   9.736 -0.7888  0.1251 -0.1569
   19CHL1  H19A 1373   2.138   2.043   9.696  1.4018 -0.6104  1.2138
   19CHL1  H19B 1374   1.973   1.949   9.710 -1.2131 -2.7463  1.9447
   19CHL1  H19C 1375   2.089   1.968   9.846 -0.2803  0.2825 -0.2038
   19CHL1    C1 1376   2.078   1.703   9.754  0.2231 -0.0763 -0.2663
   19CHL1   H1A 1377   1.971   1.709   9.727  0.2066  2.0623  0.1205
   19CHL1   H1B 1378   2.118   1.605   9.720 -0.1637 -0.1918 -0.3916
   19CHL1    C2 1379   2.087   1.682   9.904  0.0545 -0.5486 -0.2085
   19CHL1   H2A 1380   2.048   1.581   9.925 -1.8632 -0.0240 -1.0211
   19CHL1   H2B 1381   2.027   1.759   9.957  0.4955  0.2524 -0.8355
   19CHL1   C20 1382   1.985   1.965   9.023  0.1732  0.4719  0.9408
   19CHL1   H20 1383   1.983   2.074   9.043 -1.3025  0.3037  1.7826
   19CHL1   C21 1384   1.846   1.899   9.043 -0.0610 -0.7289 -0.3523
   19CHL1  H21A 1385   1.764   1.933   8.976 -0.6691 -0.2603  0.6174
   19CHL1  H21B 1386   1.800   1.938   9.136 -1.0261 -0.6054 -0.8655
   19CHL1  H21C 1387   1.842   1.788   9.051  0.8910 -0.7181  0.5387
   19CHL1   C22 1388   2.020   1.949   8.872  0.8423  0.6038  0.1552
   19CHL1  H22A 1389   2.127   1.946   8.839  0.3491  1.8442 -1.7564
   19CHL1  H22B 1390   1.967   1.857   8.838  1.0617  0.7574 -0.6356
   19CHL1   C23 1391   1.969   2.065   8.779 -0.0231 -0.7259  0.7094
   19CHL1  H23A 1392   2.018   2.156   8.820  2.3812 -0.7372 -1.8275
   19CHL1  H23B 1393   2.014   2.042   8.680 -0.8334 -2.5257  0.7326
   19CHL1   C24 1394   1.820   2.105   8.758 -0.2742  1.0344 -0.4824
   19CHL1  H24A 1395   1.766   2.013   8.729 -0.8171  1.1079  0.2647
   19CHL1  H24B 1396   1.779   2.127   8.859 -2.6986  1.4506 -1.4751
   19CHL1   C25 1397   1.787   2.216   8.651  0.0088  0.0649 -0.2436
   19CHL1   H25 1398   1.815   2.176   8.551 -4.2876  0.9380 -1.9980
   19CHL1   C26 1399   1.635   2.249   8.654  0.3623  0.5378  0.4629
   19CHL1  H26A 1400   1.597   2.271   8.756  2.9338 -1.5262  1.9811
   19CHL1  H26B 1401   1.603   2.336   8.591 -2.5506 -0.2016  0.7682
   19CHL1  H26C 1402   1.580   2.158   8.624  2.0053 -0.4698  0.3926
   19CHL1   C27 1403   1.868   2.344   8.688 -0.0820 -0.5787 -0.1029
   19CHL1  H27A 1404   1.976   2.317   8.692 -0.0760 -1.7221 -3.7442
   19CHL1  H27B 1405   1.846   2.422   8.612 -2.2297  0.5473  1.5623
   19CHL1  H27C 1406   1.840   2.386   8.787  0.5060  1.9153 -0.9385
   20CHL1    C3 1407   4.119   2.464  10.323  0.1491 -0.0810 -0.3285
   20CHL1    H3 1408   4.098   2.573  10.321 -0.9357 -0.2976 -1.2120
   20CHL1    O3 1409   4.154   2.442  10.461 -0.0693  0.4700  0.4261
   20CHL1   H3' 1410   4.138   2.349  10.475 -0.2381  0.2560 -1.0360
   20CHL1    C4 1411   3.987   2.391  10.289 -0.1184  0.4758  0.1358
   20CHL1   H4A 1412   4.011   2.282  10.287 -1.5944  0.1455 -1.1784
   20CHL1   H4B 1413   3.911   2.420  10.364  0.2028  1.7983 -0.0218
   20CHL1    C5 1414   3.946   2.429  10.149  0.2897  0.0639 -0.5398
   20CHL1    C6 1415   3.825   2.477  10.128 -0.4964  0.0257  0.5118
   20CHL1    H6 1416   3.759   2.504  10.212  1.0345  0.3471  1.6757
   20CHL1    C7 1417   3.772   2.501   9.987 -0.0460 -0.0915  0.4710
   20CHL1   H7A 1418   3.683   2.436   9.976  0.1123 -0.8383  2.9274
   20CHL1   H7B 1419   3.737   2.607   9.979 -0.9064 -0.4016 -0.0384
   20CHL1    C8 1420   3.865   2.454   9.870 -0.5198  1.2187 -0.1963
   20CHL1    H8 1421   3.839   2.347   9.856 -0.2367  1.0368  0.5691
   20CHL1   C14 1422   3.829   2.528   9.745 -0.1118 -0.3270 -0.7860
   20CHL1   H14 1423   3.835   2.636   9.767 -0.0964 -0.6033  0.6949
   20CHL1   C15 1424   3.679   2.513   9.702  0.5304 -0.2482 -0.3632
   20CHL1  H15A 1425   3.656   2.406   9.721  3.9287 -1.1711 -0.7559
   20CHL1  H15B 1426   3.605   2.567   9.764 -0.1851 -1.1286 -0.4311
   20CHL1   C16 1427   3.693   2.551   9.560 -1.1099 -0.3226  0.4963
   20CHL1  H16A 1428   3.660   2.462   9.501 -0.4352 -0.7065  0.6776
   20CHL1  H16B 1429   3.630   2.638   9.532  0.6793  0.4801 -1.2818
   20CHL1   C17 1430   3.839   2.584   9.518 -0.1745 -0.1313 -0.1163
   20CHL1   H17 1431   3.856   2.691   9.544 -0.3446  0.0884 -0.8871
   20CHL1   C13 1432   3.917   2.507   9.626 -0.0287  0.2751  0.6527
   20CHL1   C18 1433   3.902   2.353   9.584 -0.3665  0.3000 -0.5687
   20CHL1  H18A 1434   3.796   2.320   9.583 -1.2085  2.7787 -1.8931
   20CHL1  H18B 1435   3.950   2.333   9.486 -0.7145 -0.3020 -0.6158
   20CHL1  H18C 1436   3.952   2.283   9.654  0.1033 -0.2693 -1.4547
   20CHL1   C12 1437   4.066   2.543   9.660  0.2580  0.1483  0.5250
   20CHL1  H12A 1438   4.128   2.511   9.573 -0.9097  0.0595 -0.2958
   20CHL1  H12B 1439   4.069   2.652   9.683 -1.5571 -0.2094  2.8023
   20CHL1   C11 1440   4.104   2.471   9.793  0.0959 -0.0331  0.2725
   20CHL1  H11A 1441   4.119   2.362   9.779  1.8597  0.0371  1.2874
   20CHL1  H11B 1442   4.207   2.510   9.809 -0.7185  1.0899  3.3701
   20CHL1    C9 1443   4.013   2.483   9.913 -0.6715 -0.2039 -0.6292
   20CHL1    H9 1444   4.014   2.593   9.923 -1.2197 -0.2007 -0.5555
   20CHL1   C10 1445   4.048   2.401  10.044  0.2649 -0.1232 -0.2894
   20CHL1   C19 1446   4.049   2.245  10.026  0.2653  0.7602  0.6018
   20CHL1  H19A 1447   4.090   2.182  10.108 -2.2166  1.8934  2.8461
   20CHL1  H19B 1448   3.953   2.201   9.992  0.3072 -0.5879  2.0943
   20CHL1  H19C 1449   4.111   2.224   9.936 -1.4060  0.5226 -0.5409
   20CHL1    C1 1450   4.185   2.448  10.091 -0.2974  0.3216  0.0347
   20CHL1   H1A 1451   4.253   2.401  10.017  2.9423 -0.8589  3.4331
   20CHL1   H1B 1452   4.186   2.558  10.084  1.7091  0.6350  3.1472
   20CHL1    C2 1453   4.232   2.425  10.234  0.7129 -0.3608  0.3557
   20CHL1   H2A 1454   4.318   2.494  10.250  1.4478 -1.5167  1.5091
   20CHL1   H2B 1455   4.259   2.318  10.248  1.5363 -0.1154  0.6787
   20CHL1   C20 1456   3.865   2.551   9.367 -0.5502 -0.1673  0.2222
   20CHL1   H20 1457   3.863   2.440   9.365  1.0646 -0.2245  0.4785
   20CHL1   C21 1458   4.004   2.603   9.318  0.4199  0.4445 -0.0250
   20CHL1  H21A 1459   4.007   2.714   9.321 -0.8434  0.4759  0.8406
   20CHL1  H21B 1460   4.025   2.568   9.214  1.4508  2.6966 -0.6550
   20CHL1  H21C 1461   4.087   2.573   9.385  0.5300  1.4744  0.3203
   20CHL1   C22 1462   3.747   2.599   9.271 -0.6565  0.3802  0.3071
   20CHL1  H22A 1463   3.664   2.527   9.286 -0.0798 -0.2736  0.4527
   20CHL1  H22B 1464   3.719   2.702   9.299  2.5002  1.3478  0.3606
   20CHL1   C23 1465   3.776   2.584   9.121 -0.8690  0.2779  0.0140
   20CHL1  H23A 1466   3.861   2.652   9.097  0.8756 -1.5749  0.6522
   20CHL1  H23B 1467   3.801   2.476   9.109 -0.8897  0.4093 -1.3815
   20CHL1   C24 1468   3.660   2.631   9.036 -0.0717 -0.3201  1.1118
   20CHL1  H24A 1469   3.569   2.576   9.065 -0.1276 -1.5465 -1.1924
   20CHL1  H24B 1470   3.639   2.740   9.044  0.6428 -0.0997  0.1428
   20CHL1   C25 1471   3.673   2.598   8.885 -0.0789 -0.4205  0.4096
   20CHL1   H25 1472   3.703   2.491   8.883  0.2312 -0.4304  2.5761
   20CHL1   C26 1473   3.535   2.623   8.814  0.5783  0.1386 -0.0575
   20CHL1  H26A 1474   3.503   2.729   8.807 -0.3866 -0.1921 -0.8864
   20CHL1  H26B 1475   3.533   2.571   8.716  2.8694  1.9511 -1.1756
   20CHL1  H26C 1476   3.464   2.563   8.874  2.4297 -2.5428 -0.3507
   20CHL1   C27 1477   3.791   2.675   8.816  0.1773 -0.5972 -0.0705
   20CHL1  H27A 1478   3.776   2.778   8.855  1.1593 -0.4350 -0.0919
   20CHL1  H27B 1479   3.887   2.638   8.860  0.3364 -0.5460 -0.3738
   20CHL1  H27C 1480   3.795   2.677   8.705 -0.4253 -0.8117 -0.0974
   21CHL1    C3 1481   4.007   5.675   9.501  0.4114  0.4773 -0.0590
   21CHL1    H3 1482   4.107   5.634   9.477  0.5943 -0.4483  2.0923
   21CHL1    O3 1483   4.017   5.695   9.639  0.5021  0.0875  0.4479
   21CHL1   H3' 1484   3.936   5.743   9.654 -0.6611 -0.9820 -1.9290
   21CHL1    C4 1485   3.962   5.795   9.423  0.5756  0.0005  0.0663
   21CHL1   H4A 1486   3.873   5.841   9.471  1.2150 -0.2180  1.4998
   21CHL1   H4B 1487   4.044   5.865   9.451  0.0827 -1.1432  5.5352
   21CHL1    C5 1488   3.957   5.774   9.278 -0.5013  0.4183  0.0833
   21CHL1    C6 1489   4.027   5.855   9.197  0.9910  0.0477 -0.2685
   21CHL1    H6 1490   4.065   5.948   9.242 -0.5382  0.1510  0.9196
   21CHL1    C7 1491   4.025   5.845   9.050  0.1459 -0.4321  0.1741
   21CHL1   H7A 1492   3.991   5.939   9.002  3.5457  1.6136  1.4457
   21CHL1   H7B 1493   4.123   5.807   9.013 -0.2953 -0.2301 -1.2644
   21CHL1    C8 1494   3.917   5.745   9.002 -0.4274  0.1400 -0.1829
   21CHL1    H8 1495   3.817   5.793   9.004 -0.1628  0.6940  0.1264
   21CHL1   C14 1496   3.941   5.713   8.862 -0.8372 -0.3787  0.2354
   21CHL1   H14 1497   4.042   5.666   8.866  0.3198  1.9739  0.7898
   21CHL1   C15 1498   3.950   5.839   8.762  0.0909  0.7060  0.5257
   21CHL1  H15A 1499   3.873   5.916   8.785  1.4857  2.5341 -0.5606
   21CHL1  H15B 1500   4.048   5.892   8.757 -0.0514  0.9075 -0.5066
   21CHL1   C16 1501   3.925   5.776   8.625 -0.1079 -0.1679  0.0262
   21CHL1  H16A 1502   3.836   5.826   8.581  1.7847  2.4752 -1.0426
   21CHL1  H16B 1503   4.015   5.779   8.561  0.1844  4.6930  0.3031
   21CHL1   C17 1504   3.899   5.622   8.659  0.6470 -0.2289  0.0564
   21CHL1   H17 1505   3.998   5.572   8.655  0.1819 -1.0912 -2.0612
   21CHL1   C13 1506   3.844   5.617   8.804  0.2496 -0.0077  0.2460
   21CHL1   C18 1507   3.695   5.670   8.808  0.1113  0.0343 -0.3688
   21CHL1  H18A 1508   3.674   5.768   8.761  0.1456 -1.3757 -3.5284
   21CHL1  H18B 1509   3.639   5.594   8.749 -2.4544  0.8680  0.8718
   21CHL1  H18C 1510   3.658   5.664   8.913  1.5977  2.5684  0.3799
   21CHL1   C12 1511   3.861   5.481   8.878 -0.3462 -1.1085  0.2486
   21CHL1  H12A 1512   3.788   5.404   8.842 -0.3967  0.0389 -2.3566
   21CHL1  H12B 1513   3.964   5.449   8.851 -0.8302 -2.1926 -0.4108
   21CHL1   C11 1514   3.845   5.492   9.026  0.1039  0.5574 -0.0088
   21CHL1  H11A 1515   3.737   5.499   9.053  0.2680  1.8719  0.4147
   21CHL1  H11B 1516   3.883   5.401   9.076  1.9367  1.1282 -0.2958
   21CHL1    C9 1517   3.918   5.616   9.086 -0.5416 -0.6372  0.1626
   21CHL1    H9 1518   4.023   5.581   9.100 -0.4729 -1.2159 -1.5149
   21CHL1   C10 1519   3.886   5.652   9.229 -0.0993  0.0129  0.4584
   21CHL1   C19 1520   3.733   5.674   9.246 -0.3149 -0.2596  0.1261
   21CHL1  H19A 1521   3.677   5.578   9.236 -0.3745 -0.4102  1.6569
   21CHL1  H19B 1522   3.705   5.714   9.346  0.0182 -0.4502  0.3007
   21CHL1  H19C 1523   3.700   5.740   9.163  0.6068  2.6327  1.9347
   21CHL1    C1 1524   3.918   5.523   9.325  0.2372  0.1158 -0.0760
   21CHL1   H1A 1525   3.848   5.439   9.305 -0.2757  0.3279  0.8018
   21CHL1   H1B 1526   4.020   5.485   9.300  0.2184  0.2393 -0.3443
   21CHL1    C2 1527   3.919   5.560   9.470 -0.4374  0.5776 -0.2317
   21CHL1   H2A 1528   3.953   5.482   9.541 -0.2739  0.6537 -0.2280
   21CHL1   H2B 1529   3.815   5.584   9.502 -0.4793  1.1958 -0.8126
   21CHL1   C20 1530   3.826   5.540   8.547 -0.4127 -0.0697  0.2754
   21CHL1   H20 1531   3.772   5.459   8.599 -3.2918  1.8403  0.5059
   21CHL1   C21 1532   3.931   5.484   8.441 -0.2075 -0.4826  0.4649
   21CHL1  H21A 1533   4.027   5.447   8.483  1.4753  0.6956 -2.0775
   21CHL1  H21B 1534   3.956   5.565   8.369 -2.1851  0.5248  0.8348
   21CHL1  H21C 1535   3.892   5.400   8.379 -2.9068  1.0894 -0.1234
   21CHL1   C22 1536   3.708   5.609   8.470  0.4196 -0.4028 -0.2115
   21CHL1  H22A 1537   3.632   5.650   8.540  0.1634  2.5491 -2.0336
   21CHL1  H22B 1538   3.743   5.693   8.406  1.6265  0.1900  1.1683
   21CHL1   C23 1539   3.638   5.517   8.372 -0.3423  0.4302 -0.6080
   21CHL1  H23A 1540   3.707   5.488   8.290 -0.2650  0.3877 -0.5265
   21CHL1  H23B 1541   3.617   5.423   8.426  1.7614  1.3415  2.0275
   21CHL1   C24 1542   3.509   5.570   8.305 -0.0798 -0.3783 -0.1499
   21CHL1  H24A 1543   3.448   5.610   8.389  1.1777 -0.0095  0.6072
   21CHL1  H24B 1544   3.545   5.642   8.228  1.0893  2.2909  2.6753
   21CHL1   C25 1545   3.445   5.452   8.247  0.8743  0.5303 -0.4498
   21CHL1   H25 1546   3.487   5.363   8.298  1.9868  0.3204 -1.6950
   21CHL1   C26 1547   3.290   5.449   8.257  0.4551 -0.0413 -0.1123
   21CHL1  H26A 1548   3.238   5.517   8.186 -1.6168 -0.0526  1.3152
   21CHL1  H26B 1549   3.251   5.347   8.238 -0.0683  0.1973 -0.3530
   21CHL1  H26C 1550   3.256   5.475   8.360 -0.7884 -0.2734 -0.4488
   21CHL1   C27 1551   3.459   5.437   8.099 -0.0687  0.0230 -0.1992
   21CHL1  H27A 1552   3.434   5.332   8.075 -1.6716 -0.2770  2.4436
   21CHL1  H27B 1553   3.415   5.519   8.038 -0.1878  2.5651  3.0482
   21CHL1  H27C 1554   3.568   5.453   8.081 -0.1504  3.1369  1.3955
   22CHL1    C3 1555   3.089   0.008  10.221  0.4016  0.0393 -0.0448
   22CHL1    H3 1556   3.025  -0.083  10.213 -1.7800  1.4869  0.1452
   22CHL1    O3 1557   3.087   0.037  10.357  0.3591  0.5733 -0.1119
   22CHL1   H3' 1558   2.991   0.037  10.368  0.3529  2.1947 -0.0019
   22CHL1    C4 1559   3.229  -0.020  10.179  0.2824  0.0418  0.2205
   22CHL1   H4A 1560   3.293   0.064  10.215  0.8967 -1.1660  2.0583
   22CHL1   H4B 1561   3.271  -0.105  10.237 -0.5691  0.5598  1.6451
   22CHL1    C5 1562   3.251  -0.035  10.029 -0.1493  0.7914  0.3252
   22CHL1    C6 1563   3.310  -0.147   9.971  0.6716 -0.6173 -0.8108
   22CHL1    H6 1564   3.354  -0.228  10.032  0.5594  0.7777  1.2377
   22CHL1    C7 1565   3.323  -0.166   9.827 -0.3320 -0.1400  0.3795
   22CHL1   H7A 1566   3.420  -0.210   9.796 -1.1463 -1.6801 -0.0959
   22CHL1   H7B 1567   3.242  -0.235   9.797  1.2018 -0.7926 -2.6897
   22CHL1    C8 1568   3.295  -0.037   9.746  0.6347  0.3717 -0.2403
   22CHL1    H8 1569   3.387   0.025   9.752 -0.1150  1.4324  0.6053
   22CHL1   C14 1570   3.269  -0.074   9.592  0.1824 -1.1374  0.0156
   22CHL1   H14 1571   3.179  -0.140   9.587 -1.1368  0.4526  1.6969
   22CHL1   C15 1572   3.369  -0.165   9.518  0.1614 -0.2599  0.1948
   22CHL1  H15A 1573   3.468  -0.113   9.517 -0.6529  1.3970 -2.0552
   22CHL1  H15B 1574   3.386  -0.268   9.555  3.1431 -0.0707 -0.3530
   22CHL1   C16 1575   3.305  -0.165   9.374 -0.4681  0.1335 -0.4836
   22CHL1  H16A 1576   3.380  -0.188   9.296 -0.7672 -1.2297 -0.3839
   22CHL1  H16B 1577   3.230  -0.247   9.367 -0.4732  0.1137 -0.2185
   22CHL1   C17 1578   3.217  -0.034   9.363 -0.4228  0.5240 -0.1745
   22CHL1   H17 1579   3.120  -0.088   9.363 -0.9268  1.4112 -0.3834
   22CHL1   C13 1580   3.226   0.043   9.499 -0.3915  0.5078 -0.0078
   22CHL1   C18 1581   3.343   0.144   9.483  0.4074  0.3733 -0.1079
   22CHL1  H18A 1582   3.425   0.091   9.430  0.8247 -0.2671  1.1522
   22CHL1  H18B 1583   3.311   0.236   9.431  1.0478  0.0478 -1.1040
   22CHL1  H18C 1584   3.390   0.180   9.577 -0.2837  1.1999 -0.0656
   22CHL1   C12 1585   3.102   0.104   9.563  0.1905 -0.1923  0.0550
   22CHL1  H12A 1586   3.067   0.190   9.503 -1.1375 -1.1918 -0.6551
   22CHL1  H12B 1587   3.021   0.027   9.566 -0.9210  0.9774  1.2910
   22CHL1   C11 1588   3.135   0.159   9.705 -0.9621  0.1700  0.3293
   22CHL1  H11A 1589   3.225   0.223   9.694  1.1410 -2.9091 -2.0022
   22CHL1  H11B 1590   3.054   0.221   9.748 -2.5048 -1.6920  0.2564
   22CHL1    C9 1591   3.173   0.043   9.801  0.2318  0.6902 -0.0561
   22CHL1    H9 1592   3.087  -0.027   9.798  1.6614 -1.0998 -0.6679
   22CHL1   C10 1593   3.182   0.073   9.947  0.1379 -0.4215 -0.0005
   22CHL1   C19 1594   3.273   0.201   9.973  1.0259 -0.8642  0.2162
   22CHL1  H19A 1595   3.258   0.233  10.079 -1.3345  2.1395 -0.8574
   22CHL1  H19B 1596   3.379   0.185   9.944  0.6405 -1.0597 -1.1659
   22CHL1  H19C 1597   3.230   0.280   9.909 -2.9887 -0.6050  2.8457
   22CHL1    C1 1598   3.042   0.098   9.995  1.0761  0.8290 -0.5012
   22CHL1   H1A 1599   3.001   0.190   9.949 -3.4017 -0.4240  0.4970
   22CHL1   H1B 1600   2.969   0.022   9.960  1.8197  0.9776 -2.5189
   22CHL1    C2 1601   3.026   0.123  10.150 -0.5484  0.3696  0.8639
   22CHL1   H2A 1602   2.917   0.116  10.167 -0.8948 -1.7375 -1.5905
   22CHL1   H2B 1603   3.048   0.230  10.174 -4.8938  2.1734 -1.9885
   22CHL1   C20 1604   3.237   0.039   9.226  0.3009 -0.3736 -0.0610
   22CHL1   H20 1605   3.338   0.084   9.237  0.0599  0.3377 -0.6668
   22CHL1   C21 1606   3.123   0.148   9.222  0.3206 -0.2883  0.7491
   22CHL1  H21A 1607   3.027   0.094   9.241  0.0435 -0.8907 -2.0265
   22CHL1  H21B 1608   3.111   0.198   9.124 -0.3481 -1.9404 -0.0669
   22CHL1  H21C 1609   3.148   0.219   9.304 -0.3210  0.1894  0.5374
   22CHL1   C22 1610   3.234  -0.048   9.101 -0.2144  0.1739  0.0475
   22CHL1  H22A 1611   3.317  -0.122   9.104  0.3952  0.7148 -1.9148
   22CHL1  H22B 1612   3.146  -0.113   9.086 -0.5997  0.9033 -0.9980
   22CHL1   C23 1613   3.259   0.026   8.966 -0.2113  0.1431  1.3333
   22CHL1  H23A 1614   3.163   0.075   8.940 -0.2246  0.0270  1.1660
   22CHL1  H23B 1615   3.343   0.098   8.979  0.4627 -0.3287 -0.2423
   22CHL1   C24 1616   3.304  -0.075   8.854 -0.6324 -0.6440 -0.6660
   22CHL1  H24A 1617   3.392  -0.125   8.900 -0.1758 -0.3226 -1.1814
   22CHL1  H24B 1618   3.221  -0.147   8.848 -1.2712  0.1372 -1.4501
   22CHL1   C25 1619   3.350  -0.023   8.717  0.4010  0.0261 -1.2589
   22CHL1   H25 1620   3.423   0.059   8.730 -1.4179  1.4459  0.5760
   22CHL1   C26 1621   3.415  -0.141   8.648  0.5001 -1.0462 -0.6274
   22CHL1  H26A 1622   3.511  -0.172   8.693  0.9164  0.8977 -0.0992
   22CHL1  H26B 1623   3.346  -0.228   8.646  0.3655 -0.9665  0.1581
   22CHL1  H26C 1624   3.438  -0.106   8.545 -0.8496 -0.3106 -0.6968
   22CHL1   C27 1625   3.236   0.035   8.648  0.5427 -0.1717 -0.0342
   22CHL1  H27A 1626   3.142  -0.023   8.639  0.9126 -0.8169  0.1798
   22CHL1  H27B 1627   3.210   0.131   8.698  0.8190  1.1855 -2.3757
   22CHL1  H27C 1628   3.272   0.051   8.544  0.3920 -2.1719 -0.4298
   23CHL1    C3 1629   6.342   0.766  10.166  0.0804  0.2060 -0.3056
   23CHL1    H3 1630   6.233   0.758  10.188  0.6712  0.1874  3.1210
   23CHL1    O3 1631   6.409   0.765  10.289 -0.7561  0.5282 -0.1847
   23CHL1   H3' 1632   6.504   0.764  10.271 -0.5059  2.2739  0.7824
   23CHL1    C4 1633   6.384   0.644  10.077  0.7461  0.8481  0.5552
   23CHL1   H4A 1634   6.495   0.641  10.079  0.7588  1.4529  1.6719
   23CHL1   H4B 1635   6.346   0.548  10.120 -1.8242  1.2234 -0.6761
   23CHL1    C5 1636   6.334   0.648   9.931 -0.3595  0.5576 -0.1828
   23CHL1    C6 1637   6.252   0.559   9.866  0.7464 -0.5004  0.1510
   23CHL1    H6 1638   6.226   0.461   9.908 -0.2717 -1.2733 -2.1649
   23CHL1    C7 1639   6.195   0.573   9.723  0.4327  0.1569 -0.2954
   23CHL1   H7A 1640   6.190   0.469   9.685 -0.7301 -0.6680  1.9131
   23CHL1   H7B 1641   6.092   0.614   9.712  0.9652  1.7087  0.1582
   23CHL1    C8 1642   6.285   0.669   9.642 -0.4756 -0.5481  0.6299
   23CHL1    H8 1643   6.386   0.627   9.624 -0.7806 -0.8091 -0.5962
   23CHL1   C14 1644   6.222   0.694   9.509  0.0663 -0.2273  0.4264
   23CHL1   H14 1645   6.131   0.751   9.536  0.3670 -0.7880  2.9021
   23CHL1   C15 1646   6.187   0.578   9.408  0.2193 -0.2721  0.0150
   23CHL1  H15A 1647   6.278   0.513   9.408  0.4633  0.0516  1.1290
   23CHL1  H15B 1648   6.101   0.513   9.432 -1.1907  1.7419  0.6257
   23CHL1   C16 1649   6.174   0.641   9.274  0.9306 -0.1120  0.6619
   23CHL1  H16A 1650   6.250   0.598   9.205 -0.3437 -0.0304 -0.8276
   23CHL1  H16B 1651   6.072   0.632   9.231  1.8448 -0.6522 -1.4883
   23CHL1   C17 1652   6.218   0.790   9.289 -0.1740  0.0802  0.1507
   23CHL1   H17 1653   6.126   0.852   9.303 -0.4750 -0.2027 -0.5250
   23CHL1   C13 1654   6.300   0.793   9.422  0.2861 -0.3524  0.4021
   23CHL1   C18 1655   6.440   0.742   9.390  0.5034 -0.2179  0.3410
   23CHL1  H18A 1656   6.488   0.725   9.488 -0.3641 -3.3372  0.3585
   23CHL1  H18B 1657   6.434   0.639   9.347 -1.3890 -0.6205  1.4523
   23CHL1  H18C 1658   6.498   0.810   9.324 -0.6721  1.5261  1.0460
   23CHL1   C12 1659   6.306   0.932   9.494  0.2359 -0.7014  0.7978
   23CHL1  H12A 1660   6.353   1.006   9.425 -0.6268 -0.1630  0.7750
   23CHL1  H12B 1661   6.200   0.960   9.511  0.1527  0.0266 -0.7118
   23CHL1   C11 1662   6.366   0.923   9.637  0.0663  0.0871  0.2721
   23CHL1  H11A 1663   6.476   0.914   9.623 -0.1969 -1.4147 -1.0351
   23CHL1  H11B 1664   6.348   1.023   9.682 -2.7625 -0.3989  0.4376
   23CHL1    C9 1665   6.305   0.804   9.720  0.0983 -0.2004 -0.4836
   23CHL1    H9 1666   6.201   0.829   9.747 -0.0417 -0.0393 -1.1562
   23CHL1   C10 1667   6.370   0.783   9.861 -0.3231 -0.0507  0.2696
   23CHL1   C19 1668   6.522   0.778   9.837  0.2510 -0.0920  0.1965
   23CHL1  H19A 1669   6.554   0.708   9.757  0.6493  0.4904 -0.1554
   23CHL1  H19B 1670   6.556   0.880   9.811  1.0503 -0.2989  0.4161
   23CHL1  H19C 1671   6.576   0.761   9.932  0.8219 -0.6133 -0.2121
   23CHL1    C1 1672   6.324   0.904   9.948 -0.0817  0.0626  0.6540
   23CHL1   H1A 1673   6.353   1.002   9.903 -1.3172  0.2781  0.2912
   23CHL1   H1B 1674   6.213   0.910   9.940 -0.0206  0.0616 -0.2562
   23CHL1    C2 1675   6.376   0.898  10.092 -1.0591 -0.6810  0.8023
   23CHL1   H2A 1676   6.331   0.977  10.155 -0.6749 -1.2440  1.8209
   23CHL1   H2B 1677   6.485   0.910  10.079 -1.0657  2.3506  2.6502
   23CHL1   C20 1678   6.282   0.844   9.160  0.0302  0.0255  0.2983
   23CHL1   H20 1679   6.359   0.771   9.129  0.1606 -0.3470  1.4587
   23CHL1   C21 1680   6.351   0.988   9.168 -0.1606  0.2465 -0.3579
   23CHL1  H21A 1681   6.450   0.975   9.216 -0.2287 -0.4699 -0.3965
   23CHL1  H21B 1682   6.288   1.060   9.225 -3.4061  1.9382 -5.3488
   23CHL1  H21C 1683   6.381   1.020   9.066 -0.7646  0.2863 -0.5283
   23CHL1   C22 1684   6.171   0.842   9.048 -0.0317  0.2710 -0.0347
   23CHL1  H22A 1685   6.104   0.754   9.055 -0.6894  0.7673  0.0537
   23CHL1  H22B 1686   6.113   0.934   9.075 -1.9220 -0.7505 -0.4720
   23CHL1   C23 1687   6.223   0.858   8.910  0.1721  0.3282 -0.6419
   23CHL1  H23A 1688   6.280   0.953   8.905  1.8594 -0.6343 -0.3476
   23CHL1  H23B 1689   6.293   0.775   8.888 -1.2699 -1.4477  1.0598
   23CHL1   C24 1690   6.104   0.869   8.812  0.9590 -0.0680 -0.0089
   23CHL1  H24A 1691   6.052   0.771   8.806 -0.6072  0.8021 -1.4083
   23CHL1  H24B 1692   6.037   0.939   8.866  1.9542 -0.2786  1.5768
   23CHL1   C25 1693   6.145   0.911   8.669  0.0872  0.1369 -0.3282
   23CHL1   H25 1694   6.056   0.901   8.603  1.3646 -0.4793 -2.0323
   23CHL1   C26 1695   6.183   1.056   8.657  0.2076  0.5039  0.4050
   23CHL1  H26A 1696   6.207   1.083   8.552  2.9036  1.0060  1.0836
   23CHL1  H26B 1697   6.099   1.125   8.681 -0.3663 -0.7169  2.1170
   23CHL1  H26C 1698   6.274   1.080   8.716  0.0258 -0.0695  0.9309
   23CHL1   C27 1699   6.250   0.816   8.620  0.2421 -0.3446  0.0387
   23CHL1  H27A 1700   6.343   0.836   8.677  1.1735 -0.2827 -1.4554
   23CHL1  H27B 1701   6.215   0.711   8.627  0.5852 -0.5790 -1.4476
   23CHL1  H27C 1702   6.269   0.841   8.514  0.3275  0.7941  0.3132
   24CHL1    C3 1703   0.172   2.123  10.201 -0.1490 -0.1866 -0.2176
   24CHL1    H3 1704   0.157   2.017  10.228 -1.6634  0.1056  0.1560
   24CHL1    O3 1705   0.162   2.202  10.317  0.1028 -0.1059 -0.2124
   24CHL1   H3' 1706   0.164   2.134  10.386 -0.1386  0.1792  0.0775
   24CHL1    C4 1707   0.318   2.136  10.148  0.7495  0.2465  0.3876
   24CHL1   H4A 1708   0.351   2.242  10.153 -0.3887  0.6434 -0.1104
   24CHL1   H4B 1709   0.383   2.086  10.224  0.5281 -2.0484 -0.8383
   24CHL1    C5 1710   0.336   2.071  10.011  0.5533 -0.4846 -0.6681
   24CHL1    C6 1711   0.432   1.988   9.981  0.2815 -0.0394 -0.7207
   24CHL1    H6 1712   0.498   1.955  10.063  0.2438  2.5437  0.4260
   24CHL1    C7 1713   0.469   1.923   9.849 -0.2609 -0.2106 -0.3895
   24CHL1   H7A 1714   0.576   1.944   9.831 -0.7181  1.1972 -1.7470
   24CHL1   H7B 1715   0.432   1.819   9.858 -1.7238  0.2333 -0.8265
   24CHL1    C8 1716   0.393   1.997   9.730  0.2205 -0.2756 -0.6673
   24CHL1    H8 1717   0.437   2.098   9.717 -1.3305  0.2892 -1.8289
   24CHL1   C14 1718   0.403   1.931   9.592 -0.5355  0.1701  0.7309
   24CHL1   H14 1719   0.365   1.828   9.603 -0.7671 -0.0310 -1.5205
   24CHL1   C15 1720   0.547   1.905   9.539  0.0435 -0.9589 -0.2806
   24CHL1  H15A 1721   0.605   1.993   9.573 -1.7316  0.0080  0.4071
   24CHL1  H15B 1722   0.580   1.808   9.581  0.8250 -0.7502 -0.3984
   24CHL1   C16 1723   0.520   1.893   9.385 -0.0474  0.1203 -0.0878
   24CHL1  H16A 1724   0.580   1.980   9.352  1.1540  0.6967  3.1844
   24CHL1  H16B 1725   0.562   1.799   9.345 -0.9720 -0.0694 -0.6388
   24CHL1   C17 1726   0.367   1.918   9.363  0.0745 -0.2762  0.4011
   24CHL1   H17 1727   0.312   1.821   9.363 -0.1243 -0.1752 -0.3870
   24CHL1   C13 1728   0.325   2.005   9.486 -0.0778 -0.4945  0.3070
   24CHL1   C18 1729   0.366   2.153   9.465 -0.4627  0.2248 -1.0898
   24CHL1  H18A 1730   0.288   2.205   9.404 -2.8793  1.4180  2.6517
   24CHL1  H18B 1731   0.366   2.213   9.559 -0.7093 -0.0185 -0.9311
   24CHL1  H18C 1732   0.466   2.163   9.417 -1.5512 -2.1228 -4.2063
   24CHL1   C12 1733   0.174   1.985   9.532  0.1993 -0.3454  0.3162
   24CHL1  H12A 1734   0.111   2.011   9.445  1.1868  0.8236 -0.0740
   24CHL1  H12B 1735   0.165   1.875   9.543  0.8391 -0.5665 -1.1604
   24CHL1   C11 1736   0.143   2.067   9.656 -0.3308  0.1602  0.0991
   24CHL1  H11A 1737   0.151   2.176   9.635 -0.7453  0.0373 -0.7608
   24CHL1  H11B 1738   0.037   2.045   9.682 -1.2189  1.6905 -1.9640
   24CHL1    C9 1739   0.240   2.026   9.776 -0.0014 -0.1291 -0.1381
   24CHL1    H9 1740   0.199   1.927   9.804 -0.5753 -0.1245 -0.9183
   24CHL1   C10 1741   0.232   2.121   9.911  0.4825 -0.4928  0.9828
   24CHL1   C19 1742   0.270   2.260   9.863  0.2553 -0.3753  0.0050
   24CHL1  H19A 1743   0.192   2.297   9.793 -0.4959 -0.7456  0.6336
   24CHL1  H19B 1744   0.279   2.321   9.956  0.4605  0.2511 -0.4185
   24CHL1  H19C 1745   0.371   2.263   9.817 -0.3322  0.8003 -1.2685
   24CHL1    C1 1746   0.088   2.109   9.964 -0.2255 -0.5534  0.0186
   24CHL1   H1A 1747   0.017   2.162   9.896 -0.7019  1.1545  1.7431
   24CHL1   H1B 1748   0.059   2.002   9.963  0.0178 -0.6449  1.4066
   24CHL1    C2 1749   0.068   2.178  10.102 -1.1670  0.1674 -1.0262
   24CHL1   H2A 1750  -0.033   2.158  10.146 -0.6103 -1.0466 -0.2675
   24CHL1   H2B 1751   0.083   2.287  10.091  1.5808 -0.2912 -2.6715
   24CHL1   C20 1752   0.346   1.976   9.216  0.9779 -0.4753 -0.6745
   24CHL1   H20 1753   0.392   2.077   9.206  0.1196 -0.1224 -1.1534
   24CHL1   C21 1754   0.200   2.000   9.178 -0.3026 -0.2686  0.5206
   24CHL1  H21A 1755   0.200   2.050   9.078 -2.0688 -1.5642 -0.1679
   24CHL1  H21B 1756   0.137   2.063   9.245 -1.4667  0.6850 -1.3688
   24CHL1  H21C 1757   0.136   1.910   9.173 -0.9310  0.1415  0.9553
   24CHL1   C22 1758   0.396   1.875   9.113 -0.5974  0.5387 -0.0300
   24CHL1  H22A 1759   0.505   1.857   9.130 -0.5326 -1.1857 -1.8612
   24CHL1  H22B 1760   0.355   1.778   9.147  1.4560  0.1272  1.5146
   24CHL1   C23 1761   0.370   1.888   8.959  0.0042  0.2489  0.1930
   24CHL1  H23A 1762   0.261   1.879   8.940 -0.2898 -1.2340  2.2739
   24CHL1  H23B 1763   0.404   1.988   8.923  1.3432 -0.8542 -1.7607
   24CHL1   C24 1764   0.423   1.763   8.884  0.4656 -0.4488 -0.6907
   24CHL1  H24A 1765   0.523   1.735   8.924  0.7755 -1.4108 -2.0808
   24CHL1  H24B 1766   0.350   1.681   8.904 -0.7412  0.5282 -0.9253
   24CHL1   C25 1767   0.430   1.789   8.731  0.3396 -0.2256  0.4124
   24CHL1   H25 1768   0.338   1.843   8.701  0.2737  0.1753  1.3115
   24CHL1   C26 1769   0.551   1.880   8.703  0.5184 -0.2153  0.2756
   24CHL1  H26A 1770   0.526   1.969   8.764  0.0325 -1.6140  2.2122
   24CHL1  H26B 1771   0.647   1.837   8.738  1.9712  0.3547 -2.6927
   24CHL1  H26C 1772   0.547   1.910   8.596 -0.4352 -0.7936  0.1319
   24CHL1   C27 1773   0.429   1.649   8.664 -0.2084 -0.3061  0.7550
   24CHL1  H27A 1774   0.438   1.667   8.555  0.9830  0.3402  0.9398
   24CHL1  H27B 1775   0.520   1.599   8.704 -0.8431 -1.0748  1.2726
   24CHL1  H27C 1776   0.339   1.600   8.706 -2.4514 -0.0197 -3.2669
   25CHL1    C3 1777   1.293   2.363   9.994 -0.2398 -0.0243  0.0458
   25CHL1    H3 1778   1.182   2.362   9.983 -0.1658 -1.1381 -0.7782
   25CHL1    O3 1779   1.302   2.354  10.138  0.2061 -0.6269  0.1592
   25CHL1   H3' 1780   1.395   2.357  10.160 -0.3468  2.4301  2.8188
   25CHL1    C4 1781   1.352   2.232   9.922  0.0438 -0.4008  0.1019
   25CHL1   H4A 1782   1.459   2.220   9.950  0.8863  1.0929 -2.2405
   25CHL1   H4B 1783   1.291   2.147   9.958  1.1317 -1.0161  0.5445
   25CHL1    C5 1784   1.354   2.258   9.775 -0.4958 -0.1567 -0.8927
   25CHL1    C6 1785   1.298   2.154   9.708 -0.0785  0.1462  0.3088
   25CHL1    H6 1786   1.253   2.073   9.769 -0.0121  0.9724  1.4931
   25CHL1    C7 1787   1.295   2.154   9.563 -0.4998  0.3755  0.7095
   25CHL1   H7A 1788   1.321   2.057   9.517  0.8314  1.5316 -1.0741
   25CHL1   H7B 1789   1.189   2.161   9.529 -1.5545  1.4522  3.8343
   25CHL1    C8 1790   1.387   2.256   9.493 -0.1519 -0.6197  0.1893
   25CHL1    H8 1791   1.494   2.228   9.497 -0.5689 -3.0867 -2.8721
   25CHL1   C14 1792   1.345   2.271   9.346  0.1577  0.6374 -0.2597
   25CHL1   H14 1793   1.243   2.316   9.350 -0.6346 -1.0973 -0.3691
   25CHL1   C15 1794   1.323   2.143   9.259  0.1709 -0.3790 -0.5613
   25CHL1  H15A 1795   1.410   2.076   9.279  1.0653  0.4427 -1.5400
   25CHL1  H15B 1796   1.228   2.092   9.283  0.2829  0.0203  0.8026
   25CHL1   C16 1797   1.337   2.193   9.117  0.3207 -0.3331  0.2092
   25CHL1  H16A 1798   1.429   2.148   9.074 -0.5551 -2.6114  0.5619
   25CHL1  H16B 1799   1.251   2.157   9.056  0.3441  0.8060 -0.5155
   25CHL1   C17 1800   1.360   2.349   9.127  0.3202  0.3034  0.2983
   25CHL1   H17 1801   1.260   2.395   9.141  0.6193  1.3587 -0.8193
   25CHL1   C13 1802   1.420   2.375   9.266 -1.4001 -0.0394 -0.5529
   25CHL1   C18 1803   1.569   2.329   9.255 -0.2451  0.5270  0.0640
   25CHL1  H18A 1804   1.631   2.331   9.348  0.4932 -0.3548 -0.3887
   25CHL1  H18B 1805   1.577   2.222   9.228  1.3921  0.9697 -1.4448
   25CHL1  H18C 1806   1.623   2.387   9.176  1.5887 -0.8692  0.2107
   25CHL1   C12 1807   1.410   2.512   9.342 -0.3111 -0.4996 -0.1843
   25CHL1  H12A 1808   1.467   2.594   9.294  1.1041 -0.7608  0.9880
   25CHL1  H12B 1809   1.303   2.542   9.340 -0.1863  0.2710 -4.0731
   25CHL1   C11 1810   1.449   2.503   9.488 -0.3771 -0.9961  0.3895
   25CHL1  H11A 1811   1.554   2.465   9.480 -1.0627 -2.6136 -1.8751
   25CHL1  H11B 1812   1.450   2.599   9.543  1.7097 -1.0591  0.5524
   25CHL1    C9 1813   1.375   2.392   9.569 -0.0382  0.0429  0.6618
   25CHL1    H9 1814   1.270   2.427   9.566 -0.4936 -1.2818 -2.1915
   25CHL1   C10 1815   1.412   2.388   9.722  0.0300  0.1731  0.3491
   25CHL1   C19 1816   1.566   2.382   9.740 -0.0030 -0.0701 -0.2389
   25CHL1  H19A 1817   1.623   2.470   9.704  1.0846  0.0891  1.7432
   25CHL1  H19B 1818   1.594   2.365   9.846  1.8200  0.4467 -0.5946
   25CHL1  H19C 1819   1.602   2.287   9.695  0.0270 -0.7049  1.0822
   25CHL1    C1 1820   1.342   2.509   9.798 -0.1526  0.2010  0.6162
   25CHL1   H1A 1821   1.391   2.599   9.756 -1.6192  0.2560 -1.1493
   25CHL1   H1B 1822   1.234   2.508   9.774 -0.8692  0.2140  3.4767
   25CHL1    C2 1823   1.355   2.500   9.945 -0.4017  0.8405  0.4332
   25CHL1   H2A 1824   1.299   2.586   9.987  1.2930  2.5240 -0.6156
   25CHL1   H2B 1825   1.459   2.505   9.982 -0.1743 -0.2058 -0.0371
   25CHL1   C20 1826   1.418   2.409   9.003  0.2297 -0.3327  1.0174
   25CHL1   H20 1827   1.514   2.362   8.971  1.4988  2.0572  1.0601
   25CHL1   C21 1828   1.449   2.553   9.017 -0.5620 -0.4044 -0.0626
   25CHL1  H21A 1829   1.483   2.608   8.927  0.3661 -1.2734 -0.2665
   25CHL1  H21B 1830   1.523   2.563   9.099 -1.0038 -1.0916  0.4302
   25CHL1  H21C 1831   1.349   2.595   9.040 -0.2711 -0.1565  0.8036
   25CHL1   C22 1832   1.330   2.384   8.877  0.6369  0.1178  0.9952
   25CHL1  H22A 1833   1.336   2.275   8.858  0.5529  0.4062 -0.7890
   25CHL1  H22B 1834   1.225   2.407   8.903  0.5408 -0.7981  1.4468
   25CHL1   C23 1835   1.362   2.472   8.757 -0.0515  0.3823  0.0244
   25CHL1  H23A 1836   1.335   2.577   8.785  2.4335  0.7095  1.5187
   25CHL1  H23B 1837   1.465   2.454   8.720 -1.0884 -3.6915 -1.3878
   25CHL1   C24 1838   1.270   2.426   8.636 -0.5139  0.0114 -0.4919
   25CHL1  H24A 1839   1.317   2.327   8.616 -0.2008 -0.1610  1.0239
   25CHL1  H24B 1840   1.167   2.403   8.670 -1.8137  1.8813 -2.8411
   25CHL1   C25 1841   1.262   2.524   8.519  0.1314  0.0947  0.8524
   25CHL1   H25 1842   1.220   2.469   8.432 -0.7686 -0.0645  1.3812
   25CHL1   C26 1843   1.157   2.631   8.552 -0.2261  0.2820  0.3716
   25CHL1  H26A 1844   1.069   2.573   8.586 -0.8759  0.3943 -1.0522
   25CHL1  H26B 1845   1.177   2.707   8.631  0.1556  2.5452 -1.7929
   25CHL1  H26C 1846   1.122   2.679   8.458  0.8594 -1.0931 -0.7754
   25CHL1   C27 1847   1.389   2.595   8.481  0.0681 -0.0457  0.6909
   25CHL1  H27A 1848   1.452   2.614   8.571  0.3051 -2.7114  1.1475
   25CHL1  H27B 1849   1.453   2.536   8.412  0.3243  0.3728  0.5655
   25CHL1  H27C 1850   1.362   2.683   8.418  0.4235 -1.2184 -1.1676
   26CHL1    C3 1851   4.133   6.400   9.764  0.6681  0.4831 -0.1076
   26CHL1    H3 1852   4.126   6.511   9.758  0.7013  0.4234 -1.6930
   26CHL1    O3 1853   4.214   6.375   9.878  0.0398  0.4802  0.8037
   26CHL1   H3' 1854   4.229   6.280   9.880 -0.5817  0.0710 -3.9096
   26CHL1    C4 1855   3.987   6.341   9.770  0.9612 -0.2656 -0.5217
   26CHL1   H4A 1856   4.003   6.237   9.806  0.3238  0.4830  2.1839
   26CHL1   H4B 1857   3.928   6.393   9.849  0.3175  0.5686 -1.5208
   26CHL1    C5 1858   3.907   6.335   9.639 -0.0715  0.4108 -0.4680
   26CHL1    C6 1859   3.783   6.384   9.632  0.2440  1.0976 -0.9037
   26CHL1    H6 1860   3.742   6.427   9.724  0.1139 -0.2562 -0.3072
   26CHL1    C7 1861   3.698   6.380   9.507 -0.6620 -0.6791  0.2810
   26CHL1   H7A 1862   3.594   6.347   9.530 -0.8291 -0.4652 -0.1554
   26CHL1   H7B 1863   3.695   6.487   9.476 -0.8959 -0.9648 -0.7200
   26CHL1    C8 1864   3.763   6.288   9.401 -0.0307  0.1970  0.1534
   26CHL1    H8 1865   3.750   6.186   9.444  0.8285  0.8906  2.1923
   26CHL1   C14 1866   3.693   6.310   9.266 -0.3467  0.0056 -1.1430
   26CHL1   H14 1867   3.719   6.415   9.244  1.3735  0.0334  0.8062
   26CHL1   C15 1868   3.538   6.309   9.264  0.8820 -0.0287  0.0463
   26CHL1  H15A 1869   3.508   6.219   9.321 -0.3823  0.0651 -0.4323
   26CHL1  H15B 1870   3.500   6.406   9.304  1.4417  1.1570 -2.1160
   26CHL1   C16 1871   3.509   6.305   9.113 -0.1792  0.3931 -0.4561
   26CHL1  H16A 1872   3.445   6.216   9.093  1.2060 -0.9509  0.8362
   26CHL1  H16B 1873   3.457   6.399   9.086  0.9442  2.2358  3.1112
   26CHL1   C17 1874   3.649   6.293   9.034 -0.2388  0.1617  0.1158
   26CHL1   H17 1875   3.671   6.398   9.006 -0.6007  0.1884 -0.0896
   26CHL1   C13 1876   3.743   6.238   9.147 -0.4908 -0.0748  0.1066
   26CHL1   C18 1877   3.720   6.083   9.153 -0.4553  0.1365 -0.1154
   26CHL1  H18A 1878   3.777   6.024   9.227 -0.5180  1.6575  1.1980
   26CHL1  H18B 1879   3.614   6.057   9.177 -0.4539 -0.1342 -0.3968
   26CHL1  H18C 1880   3.754   6.038   9.057 -1.6053  1.0658 -0.9918
   26CHL1   C12 1881   3.900   6.257   9.137  0.1830 -0.8942  0.3344
   26CHL1  H12A 1882   3.947   6.194   9.059  2.0507 -1.0348  1.5119
   26CHL1  H12B 1883   3.921   6.362   9.108  0.2790 -1.2608 -0.9754
   26CHL1   C11 1884   3.967   6.225   9.269 -0.3177 -0.9688  0.5848
   26CHL1  H11A 1885   3.954   6.118   9.293 -0.7612 -1.1310 -0.3348
   26CHL1  H11B 1886   4.078   6.232   9.259 -0.3073 -3.3400 -2.0981
   26CHL1    C9 1887   3.913   6.307   9.387 -0.0702  0.2014  0.1695
   26CHL1    H9 1888   3.930   6.414   9.360 -2.6619  0.8836  1.0304
   26CHL1   C10 1889   3.992   6.281   9.518  0.4839  0.1582 -0.5013
   26CHL1   C19 1890   4.005   6.130   9.541  0.1652 -0.7328  0.1945
   26CHL1  H19A 1891   4.034   6.094   9.642 -0.5766 -1.5791  0.1176
   26CHL1  H19B 1892   3.910   6.074   9.525 -0.0156 -1.1119  2.3470
   26CHL1  H19C 1893   4.085   6.085   9.478 -0.3702 -0.8965 -0.3858
   26CHL1    C1 1894   4.125   6.361   9.511 -0.6877 -0.8692  0.0457
   26CHL1   H1A 1895   4.187   6.320   9.429  0.8226 -0.7393  1.0790
   26CHL1   H1B 1896   4.091   6.464   9.485 -0.1018 -0.2749  1.4850
   26CHL1    C2 1897   4.215   6.368   9.636 -0.1884 -1.4112  0.2195
   26CHL1   H2A 1898   4.298   6.440   9.621 -0.8376 -0.7384 -0.1920
   26CHL1   H2B 1899   4.257   6.266   9.651 -1.9698 -1.8324  2.8818
   26CHL1   C20 1900   3.641   6.215   8.900 -0.3292  0.0956 -0.0440
   26CHL1   H20 1901   3.601   6.113   8.917 -0.2330 -0.0844 -0.8215
   26CHL1   C21 1902   3.785   6.185   8.839  0.5566  0.2125 -0.9193
   26CHL1  H21A 1903   3.782   6.157   8.732 -1.8954 -1.1920 -0.5689
   26CHL1  H21B 1904   3.833   6.102   8.895 -0.3347 -0.6733 -1.4570
   26CHL1  H21C 1905   3.856   6.267   8.864  0.3476  0.1360 -0.0226
   26CHL1   C22 1906   3.545   6.279   8.795  0.2986 -0.0743 -0.2368
   26CHL1  H22A 1907   3.446   6.286   8.846  0.5923 -0.3299  0.3825
   26CHL1  H22B 1908   3.580   6.381   8.769  2.1167 -0.3572  0.9276
   26CHL1   C23 1909   3.529   6.195   8.659 -0.7814 -0.8474  0.4144
   26CHL1  H23A 1910   3.456   6.251   8.597  0.7634 -1.9414 -2.6109
   26CHL1  H23B 1911   3.627   6.193   8.606 -0.5374  1.0070  0.7365
   26CHL1   C24 1912   3.469   6.056   8.691  0.2920  0.0862  0.0131
   26CHL1  H24A 1913   3.554   6.005   8.742 -0.8359  0.5297  2.4777
   26CHL1  H24B 1914   3.378   6.069   8.753  0.1589  1.4147 -0.4189
   26CHL1   C25 1915   3.431   5.983   8.566  0.2645  0.1994 -0.3920
   26CHL1   H25 1916   3.355   6.049   8.518 -3.1875 -1.8865  1.7533
   26CHL1   C26 1917   3.554   5.965   8.469  0.8653  0.1314  0.1506
   26CHL1  H26A 1918   3.512   5.896   8.392 -0.6056  0.1231  0.9274
   26CHL1  H26B 1919   3.581   6.059   8.416  0.2975  0.2306  0.0343
   26CHL1  H26C 1920   3.639   5.925   8.528  0.8362 -0.1298  0.0173
   26CHL1   C27 1921   3.369   5.839   8.594  0.2787  0.2185  0.0635
   26CHL1  H27A 1922   3.341   5.787   8.500 -1.8429  1.2405  0.0867
   26CHL1  H27B 1923   3.442   5.783   8.656 -0.6749 -0.3987  0.6294
   26CHL1  H27C 1924   3.273   5.859   8.646 -0.6613 -0.4960 -1.3374
   27CHL1    C3 1925   3.282   2.469  10.109  0.2109  0.3482 -0.2458
   27CHL1    H3 1926   3.279   2.579  10.089 -1.7326  0.0018 -2.2389
   27CHL1    O3 1927   3.297   2.451  10.254 -1.0136  0.2214  0.3211
   27CHL1   H3' 1928   3.302   2.355  10.258 -1.3783 -0.0721 -3.0609
   27CHL1    C4 1929   3.153   2.394  10.068  0.1825  0.3610  0.4953
   27CHL1   H4A 1930   3.179   2.288  10.088  0.2658 -0.5775 -3.7272
   27CHL1   H4B 1931   3.077   2.429  10.140 -2.0925 -2.1759 -0.5108
   27CHL1    C5 1932   3.123   2.421   9.921  0.1846  0.4598 -0.8162
   27CHL1    C6 1933   3.014   2.481   9.882 -0.1327 -0.8144  0.3320
   27CHL1    H6 1934   2.936   2.503   9.957  0.5463  1.2594  0.4935
   27CHL1    C7 1935   2.983   2.511   9.740 -0.0007  0.4757  0.6506
   27CHL1   H7A 1936   2.881   2.476   9.714  0.3832 -1.6122  1.7691
   27CHL1   H7B 1937   2.988   2.619   9.715  1.3263 -0.0827 -1.7900
   27CHL1    C8 1938   3.075   2.443   9.639  0.4275 -0.7814 -0.0943
   27CHL1    H8 1939   3.043   2.338   9.621  0.9697 -0.6493 -2.0920
   27CHL1   C14 1940   3.073   2.531   9.509  0.3779  0.3535 -0.2487
   27CHL1   H14 1941   3.114   2.630   9.539  2.5004 -0.4484 -0.2961
   27CHL1   C15 1942   2.932   2.553   9.445  0.1124  0.0853 -0.6371
   27CHL1  H15A 1943   2.875   2.458   9.446 -0.9981  0.7292 -1.0934
   27CHL1  H15B 1944   2.889   2.638   9.502 -1.5883 -0.4667 -1.0686
   27CHL1   C16 1945   2.964   2.601   9.304 -0.4404 -0.8554  0.5415
   27CHL1  H16A 1946   2.906   2.548   9.225 -0.3349 -0.0853 -0.0724
   27CHL1  H16B 1947   2.945   2.711   9.297  3.3113 -0.1166 -0.4517
   27CHL1   C17 1948   3.118   2.579   9.283  0.1274  0.2679  0.8391
   27CHL1   H17 1949   3.164   2.679   9.297 -2.2272  1.6736 -0.7014
   27CHL1   C13 1950   3.162   2.482   9.393  0.5878 -0.4188 -0.4763
   27CHL1   C18 1951   3.130   2.339   9.348  0.0311  0.4569  0.2808
   27CHL1  H18A 1952   3.029   2.333   9.303  0.4582 -0.6412 -0.5609
   27CHL1  H18B 1953   3.210   2.311   9.277  1.1374  3.0669  0.3615
   27CHL1  H18C 1954   3.135   2.266   9.431 -0.0458 -0.1355 -0.2336
   27CHL1   C12 1955   3.307   2.491   9.447  0.8712 -0.4809  0.3607
   27CHL1  H12A 1956   3.377   2.456   9.369  1.4212 -1.3440  1.2203
   27CHL1  H12B 1957   3.334   2.598   9.454 -1.0041  0.1170 -0.6641
   27CHL1   C11 1958   3.322   2.407   9.574  0.0814 -0.6692 -0.9951
   27CHL1  H11A 1959   3.320   2.297   9.556 -0.2041 -0.3350 -3.3831
   27CHL1  H11B 1960   3.417   2.442   9.619  0.8964  0.9455 -3.7299
   27CHL1    C9 1961   3.221   2.453   9.683 -0.4422  0.6181 -0.4750
   27CHL1    H9 1962   3.234   2.560   9.708 -1.8799  0.2572  2.1720
   27CHL1   C10 1963   3.242   2.382   9.823  0.1858  0.2481 -0.1899
   27CHL1   C19 1964   3.241   2.223   9.803  0.3551 -0.1588  0.3369
   27CHL1  H19A 1965   3.150   2.190   9.748  0.4505 -1.9864  1.1866
   27CHL1  H19B 1966   3.329   2.176   9.754  0.2269 -0.4744  0.4044
   27CHL1  H19C 1967   3.236   2.159   9.894 -0.4244 -1.0374 -0.3060
   27CHL1    C1 1968   3.381   2.432   9.881  0.0071 -0.2195  0.7647
   27CHL1   H1A 1969   3.460   2.365   9.840 -0.8267 -1.7446  1.5517
   27CHL1   H1B 1970   3.401   2.535   9.845 -2.6902 -0.6867 -2.5298
   27CHL1    C2 1971   3.400   2.414  10.031  0.0205 -0.1291 -0.4387
   27CHL1   H2A 1972   3.494   2.459  10.072 -2.3945  2.4222  2.8343
   27CHL1   H2B 1973   3.408   2.305  10.053 -0.1456  0.1933  1.3897
   27CHL1   C20 1974   3.150   2.550   9.129  0.3599 -0.3469 -0.5850
   27CHL1   H20 1975   3.093   2.458   9.104  1.0345 -0.7414 -0.6983
   27CHL1   C21 1976   3.294   2.520   9.102 -0.6972 -0.7002  0.7542
   27CHL1  H21A 1977   3.303   2.477   9.000 -4.7171 -1.4551  0.5439
   27CHL1  H21B 1978   3.347   2.445   9.164  0.5298 -1.1949 -0.8610
   27CHL1  H21C 1979   3.354   2.613   9.094 -1.6400 -0.0845  0.6312
   27CHL1   C22 1980   3.093   2.654   9.032 -0.5487 -0.0051 -0.2111
   27CHL1  H22A 1981   2.985   2.666   9.057 -0.4668  0.4890 -0.0835
   27CHL1  H22B 1982   3.142   2.751   9.054  0.1954 -0.4229  0.0211
   27CHL1   C23 1983   3.126   2.616   8.883 -0.1277 -0.1602  0.1612
   27CHL1  H23A 1984   3.234   2.628   8.856 -1.0165 -0.1284 -4.0561
   27CHL1  H23B 1985   3.110   2.508   8.867 -0.7834 -0.0841  0.3129
   27CHL1   C24 1986   3.040   2.695   8.770 -0.2998 -0.2137 -0.1454
   27CHL1  H24A 1987   2.937   2.657   8.787 -0.7342  0.8223 -0.3741
   27CHL1  H24B 1988   3.039   2.806   8.779 -1.8389  0.0008 -2.2401
   27CHL1   C25 1989   3.091   2.665   8.625  1.3838  0.8070 -0.3554
   27CHL1   H25 1990   3.200   2.687   8.621  1.9215 -1.3949  0.7253
   27CHL1   C26 1991   3.088   2.514   8.589 -0.6777 -0.7860  0.4596
   27CHL1  H26A 1992   3.121   2.499   8.484 -1.2914 -0.5831  0.2316
   27CHL1  H26B 1993   3.149   2.452   8.658  2.6280  0.6053 -1.0062
   27CHL1  H26C 1994   2.982   2.479   8.588 -0.6564 -0.9058 -1.2879
   27CHL1   C27 1995   3.008   2.743   8.524 -1.0859  0.4084 -0.2333
   27CHL1  H27A 1996   3.052   2.735   8.422  1.0397 -0.1989  0.6670
   27CHL1  H27B 1997   2.908   2.697   8.535 -1.3600  1.4166  2.0543
   27CHL1  H27C 1998   2.999   2.853   8.540 -0.2445  0.6774 -1.4262
   28CHL1    C3 1999   3.718   1.536  10.184  0.1144 -0.6820  0.6925
   28CHL1    H3 2000   3.692   1.645  10.183 -0.8671 -0.8908 -0.7101
   28CHL1    O3 2001   3.699   1.489  10.311 -0.5231  0.3077 -0.1385
   28CHL1   H3' 2002   3.781   1.478  10.360 -1.4022  0.8511  1.5548
   28CHL1    C4 2003   3.605   1.475  10.101  0.2855 -0.4370  0.4345
   28CHL1   H4A 2004   3.609   1.365  10.109  1.3831 -0.2583  3.3606
   28CHL1   H4B 2005   3.514   1.511  10.153  1.2259  0.4977  1.4826
   28CHL1    C5 2006   3.607   1.513   9.953  0.2264  0.2924 -0.1437
   28CHL1    C6 2007   3.507   1.569   9.894 -0.0100  0.1645 -0.2006
   28CHL1    H6 2008   3.417   1.599   9.949  0.6089  0.7862  0.4966
   28CHL1    C7 2009   3.509   1.613   9.750 -0.2282  0.2455  0.8047
   28CHL1   H7A 2010   3.415   1.585   9.697 -0.0220 -2.9039  1.8878
   28CHL1   H7B 2011   3.529   1.722   9.747  2.5204 -0.1404  2.4440
   28CHL1    C8 2012   3.621   1.551   9.669 -0.1350 -0.9588 -0.0338
   28CHL1    H8 2013   3.601   1.444   9.646  0.1375 -1.1897  0.7993
   28CHL1   C14 2014   3.640   1.621   9.529 -0.8367  0.2365 -0.0020
   28CHL1   H14 2015   3.665   1.727   9.551  0.7950  0.2898 -1.8052
   28CHL1   C15 2016   3.522   1.643   9.435  1.0123  0.3822  0.4132
   28CHL1  H15A 2017   3.473   1.546   9.413  1.5434  0.5151 -1.6045
   28CHL1  H15B 2018   3.459   1.725   9.476  1.6120  0.6480  0.8186
   28CHL1   C16 2019   3.592   1.692   9.309 -0.0717 -0.9020 -0.0088
   28CHL1  H16A 2020   3.558   1.634   9.221 -1.9189 -0.4426  0.3432
   28CHL1  H16B 2021   3.570   1.800   9.299 -2.4407 -1.0212  2.5925
   28CHL1   C17 2022   3.747   1.671   9.330 -0.3322  0.2310  0.6231
   28CHL1   H17 2023   3.787   1.768   9.366  2.8816 -0.9733  0.6530
   28CHL1   C13 2024   3.758   1.576   9.446 -0.0216  0.1478 -0.4227
   28CHL1   C18 2025   3.746   1.431   9.398  0.1906 -0.4457 -0.0418
   28CHL1  H18A 2026   3.665   1.419   9.323  0.5160  2.3851 -0.9353
   28CHL1  H18B 2027   3.840   1.399   9.348  0.6920 -2.4164  1.9632
   28CHL1  H18C 2028   3.736   1.364   9.487  0.2090  0.8209  0.9362
   28CHL1   C12 2029   3.887   1.579   9.532 -0.3006  0.5415 -0.6940
   28CHL1  H12A 2030   3.961   1.530   9.464 -1.0830 -1.9778  0.1473
   28CHL1  H12B 2031   3.910   1.683   9.561 -1.3280  0.1230  1.8584
   28CHL1   C11 2032   3.869   1.501   9.661  0.5988 -0.1114 -0.1394
   28CHL1  H11A 2033   3.853   1.393   9.641 -0.0631 -0.9951  4.1921
   28CHL1  H11B 2034   3.967   1.513   9.711  0.2384  0.6886  0.3831
   28CHL1    C9 2035   3.748   1.550   9.744 -0.0629  0.0012  0.3891
   28CHL1    H9 2036   3.774   1.657   9.761 -0.5922  0.1237  0.4328
   28CHL1   C10 2037   3.743   1.491   9.887  0.5971 -0.3554 -0.0463
   28CHL1   C19 2038   3.760   1.337   9.883  0.1346  0.6797 -0.3151
   28CHL1  H19A 2039   3.673   1.288   9.835 -0.6096 -0.3677  1.9617
   28CHL1  H19B 2040   3.848   1.296   9.829 -1.0213  0.0556 -1.8218
   28CHL1  H19C 2041   3.770   1.290   9.983  3.2217  2.3431  0.2538
   28CHL1    C1 2042   3.857   1.552   9.969  0.1220  0.3394 -0.6446
   28CHL1   H1A 2043   3.957   1.519   9.932 -0.5265  0.4203 -2.5875
   28CHL1   H1B 2044   3.850   1.662   9.961  0.1656  0.4061  0.1544
   28CHL1    C2 2045   3.856   1.515  10.117  0.2617  0.2309 -0.7104
   28CHL1   H2A 2046   3.931   1.577  10.170  0.9857 -0.2431 -1.1491
   28CHL1   H2B 2047   3.876   1.406  10.125 -1.7201 -0.4877 -3.6610
   28CHL1   C20 2048   3.814   1.655   9.193  0.3061  0.5661 -0.6566
   28CHL1   H20 2049   3.792   1.551   9.163  0.0933  0.1255  0.9264
   28CHL1   C21 2050   3.963   1.654   9.212  0.5054  0.6201  0.0821
   28CHL1  H21A 2051   3.992   1.738   9.279 -1.2402  0.1100  1.5804
   28CHL1  H21B 2052   4.016   1.664   9.115 -0.8355  0.0267 -0.7493
   28CHL1  H21C 2053   3.995   1.559   9.260 -0.2610  0.1988 -0.2237
   28CHL1   C22 2054   3.781   1.763   9.083 -0.0470  0.4478 -0.6713
   28CHL1  H22A 2055   3.671   1.778   9.078 -0.0475  1.4121  1.4080
   28CHL1  H22B 2056   3.833   1.854   9.118 -0.5454  0.1368  0.9338
   28CHL1   C23 2057   3.819   1.710   8.938 -0.1507  0.0805 -0.3671
   28CHL1  H23A 2058   3.924   1.680   8.914 -0.4804 -1.3291 -0.1189
   28CHL1  H23B 2059   3.752   1.623   8.926 -1.5571  1.1623 -0.5858
   28CHL1   C24 2060   3.781   1.814   8.830 -0.3980 -0.2524  0.8693
   28CHL1  H24A 2061   3.670   1.810   8.824 -0.3336 -0.5955 -0.2820
   28CHL1  H24B 2062   3.810   1.919   8.854 -0.6433 -0.2651  1.2366
   28CHL1   C25 2063   3.837   1.792   8.686 -0.2537 -0.1068  0.0524
   28CHL1   H25 2064   3.947   1.793   8.697 -0.2523  1.8663  0.3294
   28CHL1   C26 2065   3.791   1.659   8.627  0.3888  1.2071  0.3087
   28CHL1  H26A 2066   3.682   1.655   8.646  0.0748  0.3362 -1.4918
   28CHL1  H26B 2067   3.815   1.660   8.518 -2.3386  0.6886 -0.3667
   28CHL1  H26C 2068   3.828   1.564   8.672 -2.9515 -0.8727 -0.9138
   28CHL1   C27 2069   3.788   1.900   8.587  0.4707 -0.6337 -0.2271
   28CHL1  H27A 2070   3.680   1.902   8.614  0.8213 -0.7566  1.3170
   28CHL1  H27B 2071   3.827   2.000   8.614  1.8236 -1.3065  0.3984
   28CHL1  H27C 2072   3.815   1.875   8.482  1.1227  0.0240 -0.2195
   29CHL1    C3 2073   0.809   6.639   6.562  1.0673  0.2321 -0.0804
   29CHL1    H3 2074   0.881   6.558   6.582 -1.0743 -1.2914  1.9878
   29CHL1    O3 2075   0.745   6.602   6.439  0.4691  0.5284 -0.0210
   29CHL1   H3' 2076   0.678   6.671   6.430  0.5132  1.0688  2.8160
   29CHL1    C4 2077   0.707   6.642   6.678 -0.5608 -0.3925 -0.5155
   29CHL1   H4A 2078   0.639   6.728   6.663  0.1110  0.2702  0.1028
   29CHL1   H4B 2079   0.645   6.551   6.673  0.9542 -1.3959 -2.0201
   29CHL1    C5 2080   0.780   6.667   6.809 -0.4064  0.1440 -0.0176
   29CHL1    C6 2081   0.783   6.574   6.902  0.1068  0.5210 -0.4255
   29CHL1    H6 2082   0.731   6.478   6.883  0.8261 -0.2034  1.1023
   29CHL1    C7 2083   0.851   6.603   7.036  0.4241 -0.2640  0.8503
   29CHL1   H7A 2084   0.778   6.580   7.116 -0.9527 -2.0765 -0.8335
   29CHL1   H7B 2085   0.949   6.550   7.040  1.9380  2.2068 -0.4374
   29CHL1    C8 2086   0.887   6.756   7.056 -0.3208 -0.6363 -0.8152
   29CHL1    H8 2087   0.788   6.801   7.079 -0.0373 -1.7973  3.7172
   29CHL1   C14 2088   0.988   6.771   7.172 -0.2314  0.1870  0.8054
   29CHL1   H14 2089   1.078   6.720   7.131 -0.1442 -1.1854  2.5490
   29CHL1   C15 2090   0.957   6.706   7.300  0.1908 -0.0034 -0.4383
   29CHL1  H15A 2091   0.849   6.719   7.318  0.5945  0.8240  1.6539
   29CHL1  H15B 2092   0.995   6.601   7.293  0.8663  0.2446 -0.5935
   29CHL1   C16 2093   1.043   6.781   7.405  0.1059 -0.1131 -0.7411
   29CHL1  H16A 2094   0.973   6.819   7.483  0.2603  0.9395 -1.1054
   29CHL1  H16B 2095   1.113   6.706   7.447  1.7279  1.1251 -1.1513
   29CHL1   C17 2096   1.117   6.898   7.330 -0.3459  0.3132 -0.5987
   29CHL1   H17 2097   1.221   6.864   7.314 -0.5231 -1.2535  1.2168
   29CHL1   C13 2098   1.035   6.913   7.201 -0.3572  0.3636 -0.2576
   29CHL1   C18 2099   0.912   6.992   7.236  0.2865 -0.4522 -0.4363
   29CHL1  H18A 2100   0.863   6.949   7.326  0.2547 -2.2506 -1.2763
   29CHL1  H18B 2101   0.933   7.099   7.259 -0.9234 -0.7792  2.6231
   29CHL1  H18C 2102   0.846   6.989   7.147  1.7275 -1.0485 -1.5235
   29CHL1   C12 2103   1.110   6.965   7.076  0.1636  0.5431 -0.3068
   29CHL1  H12A 2104   1.141   7.067   7.107 -0.4817  0.2424  1.4567
   29CHL1  H12B 2105   1.194   6.895   7.055  0.6699  1.2612 -0.7192
   29CHL1   C11 2106   1.011   6.962   6.957 -0.7205  0.4756 -0.7426
   29CHL1  H11A 2107   0.927   7.033   6.976  0.2702  1.4141  0.2860
   29CHL1  H11B 2108   1.074   7.000   6.874 -0.5094 -0.5172 -1.0451
   29CHL1    C9 2109   0.953   6.819   6.932  0.1257  0.0022  0.6721
   29CHL1    H9 2110   1.035   6.751   6.901 -1.6387 -1.2250 -1.5808
   29CHL1   C10 2111   0.852   6.808   6.808  0.3230 -0.2316  0.0414
   29CHL1   C19 2112   0.748   6.934   6.811 -0.4466 -0.0566 -0.9049
   29CHL1  H19A 2113   0.692   6.930   6.907  0.1159 -3.1949 -0.5904
   29CHL1  H19B 2114   0.800   7.032   6.805 -0.5469  0.3124  2.4832
   29CHL1  H19C 2115   0.675   6.919   6.729 -2.6219 -0.5980  1.0198
   29CHL1    C1 2116   0.946   6.819   6.682 -0.1281 -0.1069  0.5841
   29CHL1   H1A 2117   0.983   6.923   6.669  3.5609 -1.5316 -1.7467
   29CHL1   H1B 2118   1.037   6.755   6.687  1.2123  1.6430 -0.3926
   29CHL1    C2 2119   0.881   6.773   6.553  0.4415  0.3102  0.0022
   29CHL1   H2A 2120   0.962   6.753   6.480  2.4236  1.9534  1.6305
   29CHL1   H2B 2121   0.812   6.851   6.514 -2.5194 -1.2786  1.6947
   29CHL1   C20 2122   1.158   7.018   7.418 -0.6543  0.7841 -0.3021
   29CHL1   H20 2123   1.064   7.061   7.460 -0.1280  1.5610  0.1010
   29CHL1   C21 2124   1.232   7.129   7.346  0.6401 -0.1920  0.1156
   29CHL1  H21A 2125   1.169   7.184   7.273 -1.5170 -1.1746  1.1531
   29CHL1  H21B 2126   1.321   7.088   7.293  1.2316  0.8534  0.2763
   29CHL1  H21C 2127   1.259   7.216   7.409 -2.5767  0.4230  0.8282
   29CHL1   C22 2128   1.258   6.979   7.527  0.0615  0.3027 -0.2993
   29CHL1  H22A 2129   1.226   6.879   7.564 -1.6619  1.0792  0.4343
   29CHL1  H22B 2130   1.361   6.970   7.488 -0.0744 -0.3909 -0.4995
   29CHL1   C23 2131   1.254   7.067   7.656 -0.2364  0.2531 -0.6116
   29CHL1  H23A 2132   1.285   7.171   7.631  0.3102  0.3876  0.5372
   29CHL1  H23B 2133   1.151   7.065   7.696 -0.8153 -0.9604 -2.0824
   29CHL1   C24 2134   1.359   7.011   7.751  0.5900 -0.0326  0.1982
   29CHL1  H24A 2135   1.353   6.901   7.769  0.6580 -0.3372 -1.4894
   29CHL1  H24B 2136   1.455   7.025   7.698  0.3508 -1.4290 -0.6804
   29CHL1   C25 2137   1.373   7.093   7.878  0.4383  1.0337  0.4113
   29CHL1   H25 2138   1.309   7.183   7.868 -0.1570  0.5159 -0.6209
   29CHL1   C26 2139   1.313   7.012   7.997 -0.3816 -0.2852  0.0630
   29CHL1  H26A 2140   1.362   6.912   7.998  0.7232  0.0804 -3.6149
   29CHL1  H26B 2141   1.332   7.074   8.087 -1.6441  1.7751 -1.0033
   29CHL1  H26C 2142   1.206   6.993   7.971  0.4462 -0.9464 -3.3570
   29CHL1   C27 2143   1.518   7.131   7.918 -1.0326 -0.1504  0.7450
   29CHL1  H27A 2144   1.562   7.173   7.825  0.6438  1.7911  2.3125
   29CHL1  H27B 2145   1.523   7.207   8.000 -0.6673  2.4252 -1.5213
   29CHL1  H27C 2146   1.585   7.047   7.944  0.9320  0.6455 -1.4434
   30CHL1    C3 2147   6.762   6.363   6.997 -0.4876  0.6802  0.4009
   30CHL1    H3 2148   6.811   6.460   7.021  0.3004  0.2908  0.4295
   30CHL1    O3 2149   6.700   6.378   6.869  0.1007  0.4476  0.2449
   30CHL1   H3' 2150   6.727   6.299   6.822 -1.7644  0.0926 -0.3455
   30CHL1    C4 2151   6.876   6.258   7.001 -0.1418  0.0594  0.0800
   30CHL1   H4A 2152   6.837   6.169   6.947 -0.6914  0.2569  0.1464
   30CHL1   H4B 2153   6.954   6.305   6.938  0.5234  0.4054  1.1435
   30CHL1    C5 2154   6.924   6.236   7.143 -0.2357  0.4735 -0.2552
   30CHL1    C6 2155   7.058   6.252   7.165  0.5271  0.3773  0.3523
   30CHL1    H6 2156   7.116   6.270   7.074 -1.2074  1.9101 -0.5282
   30CHL1    C7 2157   7.124   6.236   7.296  0.1839  0.0576 -0.4624
   30CHL1   H7A 2158   7.219   6.179   7.293 -0.8114 -1.6585 -1.1595
   30CHL1   H7B 2159   7.142   6.342   7.326 -1.4024  0.7733 -1.8675
   30CHL1    C8 2160   7.039   6.174   7.408 -0.6751  0.2363  0.2139
   30CHL1    H8 2161   7.034   6.067   7.379  1.9622  0.4265 -1.3068
   30CHL1   C14 2162   7.116   6.183   7.539  0.4674  0.2786  0.3314
   30CHL1   H14 2163   7.131   6.292   7.554 -0.7750  0.5314 -0.1533
   30CHL1   C15 2164   7.255   6.128   7.558 -0.0501 -0.1440 -0.0116
   30CHL1  H15A 2165   7.252   6.024   7.517 -2.8074 -0.2159  0.1937
   30CHL1  H15B 2166   7.327   6.194   7.505 -0.7329  2.3077  1.9295
   30CHL1   C16 2167   7.266   6.114   7.711 -0.0339  0.1398  0.0109
   30CHL1  H16A 2168   7.296   6.008   7.722 -1.8888 -0.4186  0.0326
   30CHL1  H16B 2169   7.343   6.182   7.755  2.2619 -1.5052 -1.2259
   30CHL1   C17 2170   7.130   6.148   7.774  0.3563 -0.1120 -0.4363
   30CHL1   H17 2171   7.121   6.258   7.788 -1.2933 -0.2532 -0.2537
   30CHL1   C13 2172   7.033   6.128   7.659 -0.4094  0.8516 -0.2779
   30CHL1   C18 2173   7.005   5.975   7.637 -0.1340  0.0644  0.4595
   30CHL1  H18A 2174   7.099   5.920   7.656  1.4653  1.1981 -3.3452
   30CHL1  H18B 2175   6.931   5.945   7.715  1.7003  0.2683  2.3782
   30CHL1  H18C 2176   6.960   5.941   7.542  1.3029 -1.2733  0.2247
   30CHL1   C12 2177   6.898   6.202   7.659 -0.3697  0.7784 -0.1759
   30CHL1  H12A 2178   6.826   6.174   7.739 -1.4699  1.6761 -0.8148
   30CHL1  H12B 2179   6.916   6.312   7.665 -1.8148  1.2116 -2.3340
   30CHL1   C11 2180   6.819   6.187   7.529 -0.2343  0.2417  0.3295
   30CHL1  H11A 2181   6.790   6.080   7.522  0.7204  0.0768 -1.7136
   30CHL1  H11B 2182   6.731   6.254   7.539  1.1523  2.3148 -0.5763
   30CHL1    C9 2183   6.900   6.235   7.404  0.2668  0.1507 -0.0317
   30CHL1    H9 2184   6.911   6.344   7.423  1.4320  0.5476 -2.5891
   30CHL1   C10 2185   6.826   6.223   7.261 -0.0702  0.1281  0.1724
   30CHL1   C19 2186   6.745   6.090   7.260 -0.5915 -0.8841 -0.7188
   30CHL1  H19A 2187   6.693   6.075   7.163 -1.0470 -1.1314 -0.4397
   30CHL1  H19B 2188   6.805   5.996   7.258 -1.1732 -1.2798 -0.0460
   30CHL1  H19C 2189   6.669   6.089   7.342 -0.5891 -2.3992 -0.7155
   30CHL1    C1 2190   6.721   6.329   7.246  0.3105 -0.9910 -0.3633
   30CHL1   H1A 2191   6.636   6.319   7.316  0.0029  0.1460 -0.5442
   30CHL1   H1B 2192   6.773   6.425   7.268  0.4014 -1.2313  0.4894
   30CHL1    C2 2193   6.658   6.342   7.102  0.4514 -0.2676 -0.1204
   30CHL1   H2A 2194   6.585   6.425   7.094  0.1492 -0.6313 -1.4845
   30CHL1   H2B 2195   6.603   6.250   7.075 -2.2390  1.5092 -1.1134
   30CHL1   C20 2196   7.103   6.078   7.907 -0.7150  0.4126 -0.3651
   30CHL1   H20 2197   7.087   5.970   7.889  0.2280  0.4591 -1.5493
   30CHL1   C21 2198   6.972   6.117   7.985 -0.2048 -0.2161  0.2576
   30CHL1  H21A 2199   6.976   6.065   8.083 -0.4115 -2.0832 -0.6750
   30CHL1  H21B 2200   6.878   6.094   7.930  0.3779 -3.1452  0.3430
   30CHL1  H21C 2201   6.973   6.226   8.006 -1.7202  0.3072 -1.9970
   30CHL1   C22 2202   7.211   6.090   8.005 -0.1873 -0.3789  0.1055
   30CHL1  H22A 2203   7.183   6.035   8.098  0.4500  2.1669  1.8994
   30CHL1  H22B 2204   7.306   6.051   7.960  0.8024  1.6620  0.3250
   30CHL1   C23 2205   7.249   6.234   8.045  0.9717 -0.5038  0.3112
   30CHL1  H23A 2206   7.267   6.296   7.955 -1.6318 -0.0059  0.0771
   30CHL1  H23B 2207   7.171   6.279   8.110 -0.8470 -1.7945 -0.8950
   30CHL1   C24 2208   7.376   6.238   8.127 -0.2399 -0.4341 -0.2324
   30CHL1  H24A 2209   7.370   6.166   8.212  1.5179  0.4893  0.7497
   30CHL1  H24B 2210   7.467   6.204   8.073  0.3696 -0.1383  0.5780
   30CHL1   C25 2211   7.422   6.379   8.178  0.0328  0.2442 -0.4148
   30CHL1   H25 2212   7.415   6.453   8.096 -2.3556  0.9826  0.3928
   30CHL1   C26 2213   7.342   6.438   8.296  0.3739  0.3562  0.0202
   30CHL1  H26A 2214   7.337   6.358   8.373 -0.8433 -0.0215 -0.4184
   30CHL1  H26B 2215   7.394   6.527   8.337  1.6528 -0.0291 -0.6935
   30CHL1  H26C 2216   7.237   6.468   8.278  0.4826  0.7787  0.0785
   30CHL1   C27 2217   7.571   6.383   8.221  0.8332 -0.0556 -0.9606
   30CHL1  H27A 2218   7.598   6.323   8.310  0.9957  0.7330 -0.4756
   30CHL1  H27B 2219   7.635   6.337   8.143  3.7894  0.7692  0.8388
   30CHL1  H27C 2220   7.609   6.485   8.242  2.2120 -0.8274  0.4874
   31CHL1    C3 2221   6.181   1.908   6.864  1.2187  0.0539 -0.3815
   31CHL1    H3 2222   6.218   1.804   6.859 -0.9395 -0.7731 -0.2283
   31CHL1    O3 2223   6.162   1.956   6.731  0.4844  0.4889  0.7265
   31CHL1   H3' 2224   6.165   2.052   6.739  1.7822  0.3153  4.2016
   31CHL1    C4 2225   6.046   1.933   6.934  0.5546 -0.7223 -0.2974
   31CHL1   H4A 2226   6.003   2.035   6.918  0.5248 -0.5973  0.4979
   31CHL1   H4B 2227   5.977   1.864   6.881 -0.8528  0.2012  0.2595
   31CHL1    C5 2228   6.045   1.896   7.083 -0.5280  0.7939 -0.3644
   31CHL1    C6 2229   5.960   1.805   7.136  0.1414 -0.1914  0.1190
   31CHL1    H6 2230   5.882   1.765   7.069 -1.9587  3.3778  0.1170
   31CHL1    C7 2231   5.955   1.763   7.280  0.4075  0.4151  0.7592
   31CHL1   H7A 2232   5.854   1.757   7.327  1.2804 -2.2969  2.5285
   31CHL1   H7B 2233   5.993   1.662   7.305 -1.4098 -0.1238  1.4908
   31CHL1    C8 2234   6.044   1.854   7.369  0.6307 -0.4116  0.5066
   31CHL1    H8 2235   5.997   1.954   7.379 -1.9478 -1.2417 -1.7271
   31CHL1   C14 2236   6.063   1.793   7.507  0.7546  0.7917  0.0933
   31CHL1   H14 2237   6.096   1.688   7.487  0.6077  0.9133 -0.8272
   31CHL1   C15 2238   5.935   1.771   7.582 -0.3801 -0.6730 -0.6273
   31CHL1  H15A 2239   5.871   1.862   7.589  0.5601 -0.0027 -0.5501
   31CHL1  H15B 2240   5.877   1.687   7.537  0.7477 -0.6240 -2.2328
   31CHL1   C16 2241   5.992   1.737   7.718 -0.4341  0.2962 -0.1274
   31CHL1  H16A 2242   5.937   1.785   7.802  1.0468  2.0689 -0.1276
   31CHL1  H16B 2243   5.983   1.626   7.722 -1.2925  0.1546 -3.3462
   31CHL1   C17 2244   6.151   1.765   7.716  0.6000 -0.2707 -0.4511
   31CHL1   H17 2245   6.185   1.666   7.680 -2.6860 -1.2830 -1.0051
   31CHL1   C13 2246   6.167   1.859   7.600 -0.2243 -1.0252 -0.5844
   31CHL1   C18 2247   6.118   2.005   7.647  0.6359  0.3860 -0.2899
   31CHL1  H18A 2248   6.073   2.047   7.555  0.2328  0.7581  0.0757
   31CHL1  H18B 2249   6.040   2.004   7.725 -0.0451  1.4447 -0.9350
   31CHL1  H18C 2250   6.194   2.078   7.683  0.8361 -0.1972  0.4969
   31CHL1   C12 2251   6.295   1.872   7.515 -0.7003 -0.8397 -0.6177
   31CHL1  H12A 2252   6.368   1.924   7.581 -3.5278  1.3461  0.9862
   31CHL1  H12B 2253   6.327   1.768   7.491  0.4648 -0.3255 -1.3897
   31CHL1   C11 2254   6.276   1.953   7.392  0.3144 -0.1766 -0.0572
   31CHL1  H11A 2255   6.239   2.056   7.411 -2.9675 -1.0399 -1.0737
   31CHL1  H11B 2256   6.376   1.946   7.345 -0.8815 -0.9220 -2.6589
   31CHL1    C9 2257   6.177   1.884   7.302  0.0177  0.3028  0.2250
   31CHL1    H9 2258   6.221   1.786   7.272  1.5254  0.5983  1.3579
   31CHL1   C10 2259   6.161   1.952   7.160 -0.1189  0.1274  0.0281
   31CHL1   C19 2260   6.142   2.107   7.172 -0.4134  0.7215 -0.3701
   31CHL1  H19A 2261   6.105   2.162   7.082 -3.1494  0.2560  0.3839
   31CHL1  H19B 2262   6.064   2.122   7.250 -0.1872 -1.7115  0.3966
   31CHL1  H19C 2263   6.240   2.141   7.213 -1.3017 -0.3435  2.8773
   31CHL1    C1 2264   6.297   1.928   7.077 -0.3294 -0.1185 -0.5919
   31CHL1   H1A 2265   6.381   1.967   7.139 -1.5170  0.0981  0.9480
   31CHL1   H1B 2266   6.314   1.819   7.081 -0.5409 -0.1280  1.4410
   31CHL1    C2 2267   6.291   1.982   6.933 -0.0344 -0.6252 -0.1941
   31CHL1   H2A 2268   6.389   1.963   6.883  0.5054  1.9303 -0.2161
   31CHL1   H2B 2269   6.268   2.090   6.933 -0.6210 -0.7476 -0.1618
   31CHL1   C20 2270   6.205   1.801   7.856  0.4118  0.1351  0.3796
   31CHL1   H20 2271   6.168   1.904   7.878 -3.2221 -1.0399  0.5456
   31CHL1   C21 2272   6.357   1.792   7.843  0.0141 -0.2243 -0.3218
   31CHL1  H21A 2273   6.410   1.814   7.938  2.0879  2.1724 -1.9171
   31CHL1  H21B 2274   6.404   1.867   7.776  0.2026  0.0924  0.1588
   31CHL1  H21C 2275   6.376   1.686   7.817  0.7145  0.0396 -0.8879
   31CHL1   C22 2276   6.156   1.715   7.984 -0.3676 -0.4106  0.2134
   31CHL1  H22A 2277   6.048   1.729   8.001 -0.4296 -0.3316 -0.2171
   31CHL1  H22B 2278   6.171   1.608   7.957 -0.1525 -0.0740 -1.0815
   31CHL1   C23 2279   6.229   1.749   8.110  0.2761  0.4205 -0.0367
   31CHL1  H23A 2280   6.330   1.702   8.103  1.1728  1.9498  1.6951
   31CHL1  H23B 2281   6.249   1.857   8.127 -2.9854  1.0343  0.5378
   31CHL1   C24 2282   6.161   1.678   8.233 -0.3288  0.1577  0.3664
   31CHL1  H24A 2283   6.053   1.701   8.236  0.1518  2.6491  1.3802
   31CHL1  H24B 2284   6.175   1.568   8.226  0.6997  0.3277 -0.6194
   31CHL1   C25 2285   6.229   1.726   8.363  0.6580 -0.3348 -0.4130
   31CHL1   H25 2286   6.190   1.674   8.453  2.6180 -2.5775 -0.7789
   31CHL1   C26 2287   6.382   1.701   8.370 -0.7951  0.5721  0.1975
   31CHL1  H26A 2288   6.394   1.591   8.362  0.5320  0.8238 -2.4130
   31CHL1  H26B 2289   6.431   1.760   8.290 -1.8265  0.4149 -0.5752
   31CHL1  H26C 2290   6.430   1.736   8.463  1.1199 -0.6220 -0.2893
   31CHL1   C27 2291   6.195   1.872   8.389 -0.2558  0.2761  0.0825
   31CHL1  H27A 2292   6.256   1.942   8.328 -0.8479 -0.1966 -1.0896
   31CHL1  H27B 2293   6.222   1.890   8.495  0.7708 -3.0673  0.4960
   31CHL1  H27C 2294   6.090   1.885   8.354 -0.2313 -0.1170 -0.1402
   32CHL1    C3 2295   0.270   0.037   6.923  0.3540 -0.6787  0.7854
   32CHL1    H3 2296   0.196   0.114   6.953  0.7703 -0.4967  1.3768
   32CHL1    O3 2297   0.260   0.049   6.781  0.1876 -0.2707  0.0088
   32CHL1   H3' 2298   0.280  -0.041   6.754  0.5006  0.1376 -1.1939
   32CHL1    C4 2299   0.413   0.072   6.958 -1.8005 -0.2902  0.9174
   32CHL1   H4A 2300   0.486  -0.003   6.919 -1.3585  0.2496  0.6879
   32CHL1   H4B 2301   0.441   0.168   6.909 -0.4716 -0.4243  1.3715
   32CHL1    C5 2302   0.436   0.087   7.110  0.1209 -0.2925  0.0422
   32CHL1    C6 2303   0.482   0.204   7.173  0.4029 -0.3644  0.1433
   32CHL1    H6 2304   0.522   0.292   7.121 -0.1004 -0.6585 -0.7656
   32CHL1    C7 2305   0.491   0.213   7.326 -0.5351  0.2822 -0.5544
   32CHL1   H7A 2306   0.588   0.263   7.349  0.6651 -1.8939 -0.6095
   32CHL1   H7B 2307   0.423   0.289   7.371 -0.5352  0.6944 -1.2334
   32CHL1    C8 2308   0.495   0.072   7.395  1.0472 -0.0317 -0.9146
   32CHL1    H8 2309   0.588   0.022   7.360  1.8778  1.5247 -1.0098
   32CHL1   C14 2310   0.490   0.083   7.548 -0.3558  0.0976  0.4485
   32CHL1   H14 2311   0.393   0.129   7.577 -0.1886 -1.4781  4.0354
   32CHL1   C15 2312   0.603   0.166   7.614 -0.2171  0.0315  0.5487
   32CHL1  H15A 2313   0.695   0.124   7.570 -1.0955 -0.2047 -1.1415
   32CHL1  H15B 2314   0.602   0.277   7.603 -2.5732 -0.1145 -1.8153
   32CHL1   C16 2315   0.590   0.132   7.761  0.5435 -0.1530  0.4983
   32CHL1  H16A 2316   0.689   0.124   7.811  1.3228 -1.9401 -1.1872
   32CHL1  H16B 2317   0.532   0.218   7.799  1.8472  0.5307  0.9830
   32CHL1   C17 2318   0.495   0.010   7.775  1.3540  0.4364  0.3423
   32CHL1   H17 2319   0.388   0.039   7.790  1.5782  0.7293  1.4919
   32CHL1   C13 2320   0.484  -0.050   7.632 -0.2648  0.0227 -0.6620
   32CHL1   C18 2321   0.606  -0.136   7.603  0.1432 -0.4424  0.0999
   32CHL1  H18A 2322   0.586  -0.236   7.647 -2.0579 -0.3903 -0.6936
   32CHL1  H18B 2323   0.610  -0.144   7.492  1.2745  0.8399  0.0155
   32CHL1  H18C 2324   0.702  -0.093   7.640  0.1176  1.0128 -1.4001
   32CHL1   C12 2325   0.359  -0.115   7.585  0.4120  0.1805  0.8728
   32CHL1  H12A 2326   0.354  -0.215   7.634 -0.5552  0.8021  2.1067
   32CHL1  H12B 2327   0.278  -0.049   7.624 -0.1709  1.0942 -1.7060
   32CHL1   C11 2328   0.345  -0.136   7.432 -0.2090 -0.7683 -0.8561
   32CHL1  H11A 2329   0.414  -0.219   7.405 -1.3618 -2.0108 -0.1146
   32CHL1  H11B 2330   0.241  -0.171   7.414 -1.1090  0.3933  1.5920
   32CHL1    C9 2331   0.379  -0.010   7.347 -0.2200  0.3609 -0.8416
   32CHL1    H9 2332   0.288   0.054   7.351  0.2958  1.2473 -2.2811
   32CHL1   C10 2333   0.389  -0.039   7.192 -0.8117  0.1136 -0.0803
   32CHL1   C19 2334   0.489  -0.148   7.173 -0.5384 -0.0193 -0.3084
   32CHL1  H19A 2335   0.453  -0.244   7.215 -0.2645  0.7202  1.7386
   32CHL1  H19B 2336   0.497  -0.175   7.066  1.9579 -1.1910  0.0880
   32CHL1  H19C 2337   0.593  -0.126   7.205 -0.5235  1.2855 -1.1802
   32CHL1    C1 2338   0.248  -0.083   7.140 -0.4015  0.0740 -0.9284
   32CHL1   H1A 2339   0.222  -0.174   7.197  0.4277 -1.1145 -2.3868
   32CHL1   H1B 2340   0.171  -0.005   7.163  0.4732  0.4453  0.8829
   32CHL1    C2 2341   0.241  -0.103   6.988 -0.1857 -0.0042 -0.6521
   32CHL1   H2A 2342   0.140  -0.136   6.955 -0.5800  1.3536 -0.8841
   32CHL1   H2B 2343   0.317  -0.179   6.961 -0.4837 -1.4190  2.0851
   32CHL1   C20 2344   0.536  -0.072   7.900 -0.1132  0.1742  0.3120
   32CHL1   H20 2345   0.628  -0.127   7.870 -0.0526  0.6215 -0.3542
   32CHL1   C21 2346   0.432  -0.180   7.935 -0.1372 -0.0722 -0.2456
   32CHL1  H21A 2347   0.335  -0.127   7.953  0.6579  0.9002  1.3977
   32CHL1  H21B 2348   0.463  -0.244   8.021  2.7650  1.5894  0.0552
   32CHL1  H21C 2349   0.411  -0.252   7.853 -0.0969 -0.4274  0.0554
   32CHL1   C22 2350   0.563   0.007   8.026 -0.4318 -0.0208  0.2974
   32CHL1  H22A 2351   0.603  -0.074   8.090 -0.7460 -0.7953 -0.4710
   32CHL1  H22B 2352   0.634   0.090   8.005 -1.7871  0.9666 -0.5258
   32CHL1   C23 2353   0.446   0.069   8.099 -0.4886 -0.2177  0.9523
   32CHL1  H23A 2354   0.386   0.121   8.021  2.2515 -1.6660 -2.3602
   32CHL1  H23B 2355   0.381  -0.011   8.139 -0.6657 -0.7555 -0.3617
   32CHL1   C24 2356   0.487   0.170   8.201 -0.2337 -0.9288  0.1431
   32CHL1  H24A 2357   0.562   0.120   8.266  1.0809  0.2873 -0.3820
   32CHL1  H24B 2358   0.549   0.256   8.165 -1.3352  1.6310  3.7566
   32CHL1   C25 2359   0.364   0.233   8.287  0.1340  0.2790  0.6280
   32CHL1   H25 2360   0.301   0.148   8.322 -0.1617 -0.3311 -1.2580
   32CHL1   C26 2361   0.419   0.314   8.405 -0.7548  1.0256  0.1935
   32CHL1  H26A 2362   0.505   0.374   8.368  0.1120 -1.5822 -2.4906
   32CHL1  H26B 2363   0.344   0.377   8.457 -0.6328  1.0726  0.3140
   32CHL1  H26C 2364   0.476   0.249   8.475  1.6350  2.7997  0.0460
   32CHL1   C27 2365   0.277   0.318   8.197 -0.3117  0.2465 -0.0201
   32CHL1  H27A 2366   0.235   0.257   8.113 -2.9413  1.2110  0.5050
   32CHL1  H27B 2367   0.192   0.363   8.252  2.2978  0.7480  4.0212
   32CHL1  H27C 2368   0.342   0.395   8.150  2.1236 -2.3128 -1.1539
   33CHL1    C3 2369   1.632   5.945   6.519  0.0798  0.5863  0.2899
   33CHL1    H3 2370   1.636   6.052   6.492  3.7918  0.9388  1.6226
   33CHL1    O3 2371   1.674   5.868   6.406 -0.1250 -0.4164  1.1217
   33CHL1   H3' 2372   1.594   5.830   6.368  0.3110 -0.6747  0.4460
   33CHL1    C4 2373   1.738   5.913   6.634 -0.0652  0.1591 -0.1202
   33CHL1   H4A 2374   1.761   5.805   6.621 -1.5988 -0.1688 -0.2752
   33CHL1   H4B 2375   1.823   5.978   6.602  0.0840 -1.1300 -2.5346
   33CHL1    C5 2376   1.685   5.946   6.775 -0.4558 -0.1775 -0.3171
   33CHL1    C6 2377   1.767   6.007   6.864  0.0400 -0.4071  0.3178
   33CHL1    H6 2378   1.871   6.014   6.829  0.2293 -0.4871  0.8551
   33CHL1    C7 2379   1.734   6.053   7.000 -0.1575  0.7856  0.0859
   33CHL1   H7A 2380   1.813   6.022   7.072  0.0125 -0.4722 -0.6236
   33CHL1   H7B 2381   1.727   6.164   7.004  1.1075  0.8465  1.3426
   33CHL1    C8 2382   1.595   5.992   7.042  0.0655  0.0655  0.0347
   33CHL1    H8 2383   1.615   5.884   7.055 -0.5578 -0.3398 -1.9887
   33CHL1   C14 2384   1.539   6.053   7.170 -0.3724  0.0255  0.5196
   33CHL1   H14 2385   1.511   6.156   7.137  1.7152  0.4394 -0.0993
   33CHL1   C15 2386   1.637   6.066   7.286 -0.6544 -0.2919  0.0125
   33CHL1  H15A 2387   1.698   5.974   7.290 -1.7809 -1.1764 -2.0935
   33CHL1  H15B 2388   1.710   6.148   7.272 -1.9855  0.7414 -1.2936
   33CHL1   C16 2389   1.538   6.090   7.407 -0.2827 -0.4685 -0.1906
   33CHL1  H16A 2390   1.572   6.025   7.491  1.5243  1.2402  0.4646
   33CHL1  H16B 2391   1.554   6.190   7.453 -1.3876 -0.9329  1.3042
   33CHL1   C17 2392   1.390   6.074   7.351 -0.5282  0.1177 -0.6295
   33CHL1   H17 2393   1.357   6.179   7.333  0.3485  0.4084 -0.5983
   33CHL1   C13 2394   1.411   5.992   7.223  0.2094 -0.2768 -0.1539
   33CHL1   C18 2395   1.443   5.843   7.258 -0.5947  0.8927 -0.6460
   33CHL1  H18A 2396   1.525   5.832   7.332 -1.2723  1.3284  0.1914
   33CHL1  H18B 2397   1.359   5.787   7.306  0.8448 -1.4884 -0.7493
   33CHL1  H18C 2398   1.466   5.790   7.163 -1.1512 -1.9789  0.7216
   33CHL1   C12 2399   1.303   6.002   7.121 -0.6008 -0.0601  0.2398
   33CHL1  H12A 2400   1.208   5.947   7.139  0.1095 -1.8521 -1.1083
   33CHL1  H12B 2401   1.269   6.104   7.093  0.6178 -0.5006 -3.2882
   33CHL1   C11 2402   1.350   5.945   6.976 -0.1575 -0.2585 -0.8093
   33CHL1  H11A 2403   1.349   5.836   6.994  0.1669 -0.3700 -1.4488
   33CHL1  H11B 2404   1.269   5.983   6.909 -2.7706 -1.2260  1.5847
   33CHL1    C9 2405   1.491   6.000   6.931 -0.4254  0.9083 -0.6888
   33CHL1    H9 2406   1.488   6.109   6.908  1.7096  0.9903 -0.7985
   33CHL1   C10 2407   1.539   5.920   6.798 -0.4656  0.3814  0.1188
   33CHL1   C19 2408   1.524   5.770   6.813 -0.2134  0.8073 -0.1404
   33CHL1  H19A 2409   1.419   5.736   6.804  0.4947 -1.6381  0.0839
   33CHL1  H19B 2410   1.567   5.710   6.729 -2.3226 -1.9587  0.6140
   33CHL1  H19C 2411   1.567   5.734   6.909 -0.8228  2.3221  0.7313
   33CHL1    C1 2412   1.445   5.949   6.685 -1.2242 -0.0131 -0.5051
   33CHL1   H1A 2413   1.343   5.912   6.712 -0.3648 -0.9396  1.7190
   33CHL1   H1B 2414   1.441   6.059   6.672  0.8324  0.0518 -0.8197
   33CHL1    C2 2415   1.490   5.899   6.548  0.4106 -0.1068 -0.7312
   33CHL1   H2A 2416   1.412   5.931   6.476  2.0979  2.4540 -1.5664
   33CHL1   H2B 2417   1.493   5.787   6.547  1.1966 -0.0912 -1.1945
   33CHL1   C20 2418   1.305   6.022   7.463  0.0950  0.1569 -0.1162
   33CHL1   H20 2419   1.344   5.924   7.497 -1.2282  0.7741  3.6471
   33CHL1   C21 2420   1.159   6.000   7.413  0.1678 -0.5059  0.1707
   33CHL1  H21A 2421   1.117   6.097   7.377  2.7451  1.4433  2.0321
   33CHL1  H21B 2422   1.092   5.973   7.497  0.3468  1.9658  1.1892
   33CHL1  H21C 2423   1.147   5.918   7.339 -1.6016 -1.2420  1.2255
   33CHL1   C22 2424   1.317   6.109   7.586  0.5212  0.2971  0.1315
   33CHL1  H22A 2425   1.417   6.129   7.629  0.5592  0.5458 -0.0713
   33CHL1  H22B 2426   1.273   6.208   7.563  1.8678  0.5517 -1.5299
   33CHL1   C23 2427   1.245   6.048   7.706 -0.1122  0.2054  0.7566
   33CHL1  H23A 2428   1.135   6.054   7.694 -0.0169  1.7103  0.4058
   33CHL1  H23B 2429   1.291   5.949   7.726 -0.4283 -1.0857 -3.9098
   33CHL1   C24 2430   1.277   6.150   7.825  1.0566 -0.3289 -0.2109
   33CHL1  H24A 2431   1.386   6.149   7.846  1.0479 -2.0419 -0.0593
   33CHL1  H24B 2432   1.260   6.251   7.783 -0.0615 -0.5783 -0.3776
   33CHL1   C25 2433   1.194   6.125   7.958  0.4355  0.0619 -0.7990
   33CHL1   H25 2434   1.088   6.110   7.928  0.1898 -0.5037  0.2717
   33CHL1   C26 2435   1.240   5.998   8.037  0.6382  0.0930  0.3208
   33CHL1  H26A 2436   1.220   5.903   7.983 -0.8170  0.8296 -0.5207
   33CHL1  H26B 2437   1.349   6.007   8.057  1.1929  0.7072 -2.5087
   33CHL1  H26C 2438   1.180   5.987   8.130  0.0533 -2.4595 -0.2792
   33CHL1   C27 2439   1.191   6.258   8.044  0.7913  0.7217  0.7280
   33CHL1  H27A 2440   1.134   6.339   7.994  2.0671  0.4456 -1.3092
   33CHL1  H27B 2441   1.145   6.243   8.144  0.1335 -0.1448  0.3176
   33CHL1  H27C 2442   1.299   6.285   8.048  1.1129  0.0611 -1.7750
   34CHL1    C3 2443   1.281   3.735   6.744  0.3847 -0.4701  0.3658
   34CHL1    H3 2444   1.270   3.844   6.724  1.7013 -0.1087  1.4304
   34CHL1    O3 2445   1.299   3.674   6.619  0.1364  0.3211  0.1840
   34CHL1   H3' 2446   1.315   3.582   6.644 -0.1942 -0.0250 -0.8404
   34CHL1    C4 2447   1.417   3.723   6.832  0.6428 -0.7847 -0.3287
   34CHL1   H4A 2448   1.446   3.616   6.836 -0.7168 -1.2264 -1.3681
   34CHL1   H4B 2449   1.497   3.779   6.779 -1.0020  0.5424 -1.5582
   34CHL1    C5 2450   1.406   3.776   6.978  0.6824 -0.5533 -0.0607
   34CHL1    C6 2451   1.482   3.878   7.024  0.4204 -0.9608 -0.5514
   34CHL1    H6 2452   1.555   3.933   6.962  0.3533  2.3283  2.0048
   34CHL1    C7 2453   1.483   3.931   7.163 -0.0090 -0.8528  0.1054
   34CHL1   H7A 2454   1.585   3.937   7.206 -0.5189 -1.1664  1.4308
   34CHL1   H7B 2455   1.451   4.037   7.160  0.6383 -0.6719 -0.6791
   34CHL1    C8 2456   1.389   3.855   7.256  0.5100  0.4688 -1.2078
   34CHL1    H8 2457   1.450   3.769   7.293  0.6120  1.5570  1.4398
   34CHL1   C14 2458   1.357   3.942   7.385 -0.7890 -0.1100  0.6468
   34CHL1   H14 2459   1.288   4.022   7.351  0.9982  0.9654 -0.6257
   34CHL1   C15 2460   1.473   4.008   7.459 -0.4189  0.3436  0.4813
   34CHL1  H15A 2461   1.568   3.953   7.474 -0.4238  0.4692  0.9834
   34CHL1  H15B 2462   1.510   4.100   7.408 -0.9391 -0.2728 -1.0828
   34CHL1   C16 2463   1.416   4.045   7.593 -0.5840  0.1624 -0.0071
   34CHL1  H16A 2464   1.481   4.007   7.676  0.4129 -0.1404 -0.8996
   34CHL1  H16B 2465   1.401   4.155   7.595 -0.2771  0.2034  0.3277
   34CHL1   C17 2466   1.270   3.973   7.602 -0.1354  0.0592  0.1719
   34CHL1   H17 2467   1.204   4.052   7.561  0.4431  0.7989  0.6327
   34CHL1   C13 2468   1.279   3.869   7.491  0.2446  0.4623 -0.0940
   34CHL1   C18 2469   1.356   3.743   7.547 -0.0646 -0.3419 -0.1893
   34CHL1  H18A 2470   1.381   3.676   7.462  0.2682 -0.4300 -0.0223
   34CHL1  H18B 2471   1.456   3.772   7.584 -0.6963  2.0468 -0.2130
   34CHL1  H18C 2472   1.297   3.672   7.609 -0.9973  0.1565 -0.4963
   34CHL1   C12 2473   1.139   3.822   7.428  0.3742 -0.4202  0.1820
   34CHL1  H12A 2474   1.085   3.758   7.501 -1.0161  0.7383  0.2294
   34CHL1  H12B 2475   1.095   3.924   7.426  0.5011 -0.3177  1.6227
   34CHL1   C11 2476   1.155   3.753   7.293 -0.4726  0.1366  1.0084
   34CHL1  H11A 2477   1.178   3.647   7.317  0.1317 -0.3966 -1.5841
   34CHL1  H11B 2478   1.054   3.748   7.248 -0.2012 -1.6140  0.5223
   34CHL1    C9 2479   1.263   3.806   7.196 -0.0703 -0.6815  0.0362
   34CHL1    H9 2480   1.211   3.894   7.154 -0.1330 -1.1250 -0.8479
   34CHL1   C10 2481   1.289   3.720   7.058 -0.1822 -0.1903  0.3669
   34CHL1   C19 2482   1.338   3.580   7.090  0.1653 -0.0331  0.3188
   34CHL1  H19A 2483   1.359   3.512   7.005  1.0569  2.8668 -1.9276
   34CHL1  H19B 2484   1.425   3.575   7.159  0.1247 -2.9708  0.2905
   34CHL1  H19C 2485   1.260   3.518   7.140 -1.1670  1.5155  0.2389
   34CHL1    C1 2486   1.159   3.721   6.963  0.1557  0.2610 -0.3350
   34CHL1   H1A 2487   1.072   3.677   7.015  0.6498  0.2665  0.5256
   34CHL1   H1B 2488   1.127   3.827   6.957 -1.3087 -0.0965  0.6521
   34CHL1    C2 2489   1.167   3.666   6.817  0.5173 -0.0313 -0.4028
   34CHL1   H2A 2490   1.070   3.682   6.766 -0.0091  4.0368  1.4376
   34CHL1   H2B 2491   1.188   3.557   6.818  1.8640  0.1970  1.5545
   34CHL1   C20 2492   1.229   3.938   7.744 -0.1391  0.4163 -0.1974
   34CHL1   H20 2493   1.178   3.840   7.734  0.3709 -0.2013  2.3584
   34CHL1   C21 2494   1.142   4.052   7.785 -0.6195 -0.5094  0.0461
   34CHL1  H21A 2495   1.213   4.137   7.781  0.4073 -1.3608 -2.9805
   34CHL1  H21B 2496   1.107   4.033   7.889 -0.4418 -0.1240  0.1742
   34CHL1  H21C 2497   1.056   4.066   7.716  2.1978 -0.3689 -3.7033
   34CHL1   C22 2498   1.346   3.923   7.849  0.7174 -0.2177  0.5533
   34CHL1  H22A 2499   1.420   3.850   7.809  0.4815  0.1753 -0.6544
   34CHL1  H22B 2500   1.387   4.026   7.855  0.5328 -0.2105  2.1416
   34CHL1   C23 2501   1.301   3.864   7.983  0.4906 -0.6771  0.8628
   34CHL1  H23A 2502   1.221   3.926   8.029 -0.3637 -1.0330 -0.1095
   34CHL1  H23B 2503   1.253   3.765   7.973 -0.6924 -0.0417  0.0510
   34CHL1   C24 2504   1.421   3.841   8.078  0.3219 -0.0012  0.3967
   34CHL1  H24A 2505   1.475   3.750   8.043  0.9516  1.1074 -1.6825
   34CHL1  H24B 2506   1.491   3.925   8.058 -1.0555  0.7499 -1.6765
   34CHL1   C25 2507   1.388   3.818   8.228  0.0254 -0.7269  0.0365
   34CHL1   H25 2508   1.319   3.730   8.230 -1.6855  0.5853  0.8577
   34CHL1   C26 2509   1.518   3.799   8.304  0.2984  0.1657 -0.4543
   34CHL1  H26A 2510   1.586   3.734   8.245 -0.5567 -0.0274 -1.2356
   34CHL1  H26B 2511   1.567   3.896   8.331  0.4428 -0.7910  3.3368
   34CHL1  H26C 2512   1.514   3.753   8.405  2.1255 -1.9296 -1.2482
   34CHL1   C27 2513   1.317   3.937   8.291 -0.2909 -0.5475 -0.2176
   34CHL1  H27A 2514   1.380   4.028   8.282 -0.1156 -0.8835 -3.4948
   34CHL1  H27B 2515   1.225   3.960   8.233  0.7710  2.8996 -0.7396
   34CHL1  H27C 2516   1.302   3.910   8.398 -2.1754 -0.5177 -0.4417
   35CHL1    C3 2517   5.595   0.206   7.195  0.5197 -0.2837 -0.2180
   35CHL1    H3 2518   5.494   0.173   7.225 -0.9125  2.3998 -1.6713
   35CHL1    O3 2519   5.597   0.216   7.053  0.1408  0.7142 -0.3194
   35CHL1   H3' 2520   5.687   0.246   7.040  0.2362  0.0844 -1.2885
   35CHL1    C4 2521   5.635   0.350   7.241  0.1261 -0.3177 -0.7678
   35CHL1   H4A 2522   5.739   0.371   7.210  0.1159 -0.0339 -0.6164
   35CHL1   H4B 2523   5.556   0.416   7.200  0.1013  0.3382  0.3036
   35CHL1    C5 2524   5.628   0.347   7.393 -0.0741 -0.3392  0.3385
   35CHL1    C6 2525   5.534   0.422   7.464  0.2902 -0.3170 -0.2919
   35CHL1    H6 2526   5.457   0.479   7.410  0.6670 -0.4266 -0.9553
   35CHL1    C7 2527   5.534   0.425   7.615  0.6684 -0.1332 -0.0475
   35CHL1   H7A 2528   5.513   0.529   7.648 -0.0562  0.5014 -2.3399
   35CHL1   H7B 2529   5.452   0.356   7.645  0.0735 -0.5295 -2.4320
   35CHL1    C8 2530   5.666   0.371   7.685 -0.4811  0.4915  0.4323
   35CHL1    H8 2531   5.752   0.439   7.670  0.4275 -0.9091 -1.0018
   35CHL1   C14 2532   5.637   0.338   7.830 -0.1957 -0.0846  0.1474
   35CHL1   H14 2533   5.562   0.257   7.820 -1.9155  1.0821  2.6018
   35CHL1   C15 2534   5.567   0.448   7.919 -0.0752  0.1591  0.0344
   35CHL1  H15A 2535   5.641   0.531   7.912  1.8399 -1.3010  1.9017
   35CHL1  H15B 2536   5.461   0.473   7.897 -0.1990 -0.0109  0.4494
   35CHL1   C16 2537   5.578   0.391   8.058  0.0436 -0.3946 -0.1421
   35CHL1  H16A 2538   5.605   0.466   8.136 -1.7099  0.1501 -0.0140
   35CHL1  H16B 2539   5.480   0.348   8.088  0.0508  0.2195  0.8285
   35CHL1   C17 2540   5.683   0.274   8.053  0.5898 -0.6846 -0.2948
   35CHL1   H17 2541   5.617   0.184   8.047 -0.1305 -0.0941 -1.6669
   35CHL1   C13 2542   5.751   0.282   7.913 -0.3255  0.0458 -0.4757
   35CHL1   C18 2543   5.872   0.375   7.922  0.2270 -0.2385  0.0671
   35CHL1  H18A 2544   5.965   0.316   7.938 -0.1731 -0.9759 -0.2395
   35CHL1  H18B 2545   5.899   0.430   7.829  1.2465 -0.2818  0.3240
   35CHL1  H18C 2546   5.851   0.455   7.996  2.3971  0.7757 -0.3326
   35CHL1   C12 2547   5.796   0.149   7.840 -0.4752  0.5410 -0.7935
   35CHL1  H12A 2548   5.881   0.096   7.889 -0.1609 -0.6185 -2.4793
   35CHL1  H12B 2549   5.713   0.076   7.846 -0.1078  0.1154 -0.8147
   35CHL1   C11 2550   5.830   0.170   7.692 -0.2197  0.0186 -0.4983
   35CHL1  H11A 2551   5.925   0.229   7.685 -1.1674  1.7326  0.3790
   35CHL1  H11B 2552   5.848   0.073   7.641  0.3717  1.0261 -2.2838
   35CHL1    C9 2553   5.714   0.238   7.611 -0.3177 -0.6231  0.0374
   35CHL1    H9 2554   5.627   0.170   7.625 -0.4902 -0.5323 -0.5730
   35CHL1   C10 2555   5.736   0.260   7.460 -0.5916 -0.3901  0.5166
   35CHL1   C19 2556   5.876   0.312   7.431 -0.0167  0.4083  0.3976
   35CHL1  H19A 2557   5.943   0.234   7.473 -1.4820 -0.1360  1.8189
   35CHL1  H19B 2558   5.886   0.325   7.321  0.1524  0.2736  0.3964
   35CHL1  H19C 2559   5.888   0.413   7.475 -0.9377  0.2155  1.1140
   35CHL1    C1 2560   5.714   0.115   7.399  0.0356  0.6721 -0.0029
   35CHL1   H1A 2561   5.804   0.056   7.428  0.3296  0.6098 -1.0155
   35CHL1   H1B 2562   5.615   0.077   7.430  0.2717  1.1932  1.4823
   35CHL1    C2 2563   5.706   0.115   7.239  0.1050  0.2423 -0.0416
   35CHL1   H2A 2564   5.689   0.012   7.202  0.1602  0.4103 -0.5536
   35CHL1   H2B 2565   5.799   0.161   7.199  1.4957 -1.1976  1.4015
   35CHL1   C20 2566   5.772   0.259   8.181  0.9326  0.2338 -0.1397
   35CHL1   H20 2567   5.825   0.352   8.211  0.3235  0.4467  0.3078
   35CHL1   C21 2568   5.877   0.145   8.160  0.4830 -0.6636 -0.8515
   35CHL1  H21A 2569   5.834   0.050   8.124  0.5117 -0.5657 -1.1492
   35CHL1  H21B 2570   5.928   0.130   8.257  0.0295  0.7000 -0.3739
   35CHL1  H21C 2571   5.958   0.180   8.092  1.3042  3.4991  1.9073
   35CHL1   C22 2572   5.677   0.215   8.302  0.1073 -0.2971 -0.1404
   35CHL1  H22A 2573   5.631   0.306   8.345  1.9130  0.7154 -0.2450
   35CHL1  H22B 2574   5.601   0.137   8.281 -0.7638 -0.0827  1.9418
   35CHL1   C23 2575   5.736   0.152   8.431 -0.2465  0.0403 -0.0814
   35CHL1  H23A 2576   5.791   0.062   8.399  0.2485 -0.0806  1.0518
   35CHL1  H23B 2577   5.812   0.226   8.465 -0.7408  2.6252 -3.9704
   35CHL1   C24 2578   5.635   0.110   8.542 -0.2432 -0.0244 -0.0965
   35CHL1  H24A 2579   5.616   0.209   8.589  1.9523  0.3638  0.0790
   35CHL1  H24B 2580   5.548   0.064   8.490  0.5572  1.7500 -3.2187
   35CHL1   C25 2581   5.691   0.010   8.642  0.4163  0.1221  1.0239
   35CHL1   H25 2582   5.726  -0.066   8.569  1.3819  0.2725  1.3127
   35CHL1   C26 2583   5.822   0.063   8.707  0.4430  0.0497  0.0676
   35CHL1  H26A 2584   5.866  -0.018   8.769 -0.1160  1.5075  2.4775
   35CHL1  H26B 2585   5.891   0.089   8.624 -1.0464 -0.9570 -1.5544
   35CHL1  H26C 2586   5.801   0.155   8.764  2.5041  0.0358  0.9348
   35CHL1   C27 2587   5.588  -0.053   8.738  0.8672  0.6156  0.1453
   35CHL1  H27A 2588   5.628  -0.143   8.790 -1.5079 -0.9957 -0.6679
   35CHL1  H27B 2589   5.502  -0.085   8.676  0.7693  1.2496 -0.0514
   35CHL1  H27C 2590   5.538   0.014   8.811 -3.7272 -1.8254 -0.3989
   36CHL1    C3 2591   5.414   5.385   6.654  0.1514  0.6713 -0.4188
   36CHL1    H3 2592   5.453   5.285   6.682 -1.5236 -0.3274 -1.4542
   36CHL1    O3 2593   5.389   5.381   6.515  0.3002  0.6299  0.4009
   36CHL1   H3' 2594   5.368   5.471   6.486  1.5837  0.7986 -0.0733
   36CHL1    C4 2595   5.284   5.414   6.735 -0.2206 -0.5929  0.3112
   36CHL1   H4A 2596   5.248   5.515   6.706 -0.2348 -0.1168  1.9174
   36CHL1   H4B 2597   5.206   5.342   6.700 -0.0567 -1.2845  1.3251
   36CHL1    C5 2598   5.315   5.415   6.882 -0.7800 -0.0880  0.0115
   36CHL1    C6 2599   5.243   5.344   6.970 -0.4463 -0.6326  0.2509
   36CHL1    H6 2600   5.170   5.271   6.931  0.8523 -1.5185 -0.6216
   36CHL1    C7 2601   5.274   5.345   7.117 -1.0726  0.3047 -0.7065
   36CHL1   H7A 2602   5.174   5.356   7.163  0.4738  0.4908  2.9546
   36CHL1   H7B 2603   5.329   5.256   7.155  3.3266  2.0814 -2.2424
   36CHL1    C8 2604   5.356   5.471   7.159  0.4767 -0.3391  0.1689
   36CHL1    H8 2605   5.291   5.561   7.146  1.0106  0.1567  0.8836
   36CHL1   C14 2606   5.406   5.445   7.304 -0.4961  0.3860  0.3923
   36CHL1   H14 2607   5.478   5.361   7.295  0.6942  1.4878 -0.8064
   36CHL1   C15 2608   5.308   5.392   7.410  0.2119 -0.5284 -0.4966
   36CHL1  H15A 2609   5.218   5.453   7.391 -0.3491 -0.7441  1.2760
   36CHL1  H15B 2610   5.281   5.286   7.389  0.9736 -0.9384  0.5041
   36CHL1   C16 2611   5.387   5.420   7.535  0.3572 -0.0105  0.0122
   36CHL1  H16A 2612   5.319   5.469   7.608  0.3194 -0.6283  0.3895
   36CHL1  H16B 2613   5.414   5.326   7.586 -0.1833 -0.1411  0.0694
   36CHL1   C17 2614   5.514   5.506   7.501 -0.5990  0.1328  0.2095
   36CHL1   H17 2615   5.600   5.437   7.489 -1.9374 -1.2639 -2.1648
   36CHL1   C13 2616   5.484   5.563   7.361  0.0933 -0.1844 -1.1469
   36CHL1   C18 2617   5.402   5.692   7.384 -0.1657 -0.3570  0.5277
   36CHL1  H18A 2618   5.470   5.771   7.420 -0.0742  0.3523 -1.1460
   36CHL1  H18B 2619   5.352   5.721   7.289 -1.2493 -1.0700  0.8556
   36CHL1  H18C 2620   5.326   5.673   7.463 -0.7568 -2.5714 -0.4714
   36CHL1   C12 2621   5.603   5.592   7.264 -0.9556 -0.2633 -0.6925
   36CHL1  H12A 2622   5.660   5.678   7.305  0.1993 -0.9405 -0.8237
   36CHL1  H12B 2623   5.673   5.506   7.256 -1.1473 -0.4448 -0.4281
   36CHL1   C11 2624   5.557   5.620   7.121 -0.2305 -0.5421 -0.0404
   36CHL1  H11A 2625   5.485   5.704   7.129  0.2850 -0.0357 -0.5368
   36CHL1  H11B 2626   5.641   5.649   7.054  2.1488 -1.1953  2.4971
   36CHL1    C9 2627   5.475   5.497   7.064  0.1394  0.3317 -1.0188
   36CHL1    H9 2628   5.537   5.404   7.055 -1.1923 -0.3851 -3.5512
   36CHL1   C10 2629   5.428   5.516   6.921 -0.4670  0.9822  0.5702
   36CHL1   C19 2630   5.376   5.660   6.890 -0.0632  0.4738  0.8672
   36CHL1  H19A 2631   5.444   5.738   6.929  0.9370 -0.1545  0.4420
   36CHL1  H19B 2632   5.361   5.681   6.781  0.2681  1.5797  1.0236
   36CHL1  H19C 2633   5.279   5.674   6.942 -1.0916 -0.9197 -0.5749
   36CHL1    C1 2634   5.554   5.495   6.834 -0.2122  0.5871 -0.1974
   36CHL1   H1A 2635   5.633   5.573   6.834 -1.3929  1.8230 -0.5403
   36CHL1   H1B 2636   5.587   5.390   6.846  0.0958  0.3456 -2.6053
   36CHL1    C2 2637   5.516   5.490   6.682  0.0147  0.2816  0.0771
   36CHL1   H2A 2638   5.607   5.461   6.625 -1.0378 -2.2614 -0.4594
   36CHL1   H2B 2639   5.472   5.586   6.648 -0.2789 -0.5841 -2.1555
   36CHL1   C20 2640   5.560   5.596   7.619 -0.2923  0.3660  1.0345
   36CHL1   H20 2641   5.490   5.682   7.630 -0.5494  0.4493 -0.8758
   36CHL1   C21 2642   5.696   5.657   7.574  0.3790  0.5207 -0.1108
   36CHL1  H21A 2643   5.758   5.573   7.538 -0.8561 -0.3180 -0.3564
   36CHL1  H21B 2644   5.752   5.698   7.661  2.8906 -1.5445 -0.6360
   36CHL1  H21C 2645   5.679   5.737   7.499 -1.2240  0.0686 -0.2711
   36CHL1   C22 2646   5.565   5.511   7.746  0.0771  0.0580  0.5598
   36CHL1  H22A 2647   5.465   5.467   7.768 -0.8466  1.8758  0.2355
   36CHL1  H22B 2648   5.627   5.424   7.719 -1.8926 -1.0477 -0.6369
   36CHL1   C23 2649   5.616   5.577   7.877  0.3171  0.1083 -0.5673
   36CHL1  H23A 2650   5.718   5.617   7.861  0.5505  0.6052  1.8825
   36CHL1  H23B 2651   5.545   5.655   7.911  0.6892  0.9964 -1.7922
   36CHL1   C24 2652   5.621   5.481   7.995  0.3612  0.3547 -0.5488
   36CHL1  H24A 2653   5.517   5.444   8.009  0.9564 -1.3226 -0.3487
   36CHL1  H24B 2654   5.676   5.386   7.977  0.3106  0.2886 -0.3612
   36CHL1   C25 2655   5.658   5.545   8.132  0.7799 -0.0967 -0.0019
   36CHL1   H25 2656   5.625   5.651   8.141  0.2004 -0.1909 -0.9014
   36CHL1   C26 2657   5.606   5.455   8.244 -0.0265  0.1536  0.0715
   36CHL1  H26A 2658   5.638   5.490   8.344  1.3267  0.1944 -0.3548
   36CHL1  H26B 2659   5.495   5.457   8.244 -0.1488  1.0899  4.1798
   36CHL1  H26C 2660   5.637   5.349   8.233  1.0247  0.5836 -1.6735
   36CHL1   C27 2661   5.807   5.570   8.145  0.1342  1.0479  0.1846
   36CHL1  H27A 2662   5.837   5.598   8.248 -0.7820 -0.2923  0.8465
   36CHL1  H27B 2663   5.882   5.492   8.119 -0.2856  0.2148  1.4015
   36CHL1  H27C 2664   5.833   5.658   8.083 -0.4837  0.0372 -1.5761
   37CHL1    C3 2665   1.401   0.670   6.911 -0.5427 -0.0836 -0.2263
   37CHL1    H3 2666   1.299   0.712   6.915 -0.3773  0.4754 -1.5518
   37CHL1    O3 2667   1.411   0.635   6.774 -0.1368 -0.3779 -0.7716
   37CHL1   H3' 2668   1.342   0.569   6.762  0.7604 -1.2950 -0.9639
   37CHL1    C4 2669   1.509   0.784   6.928 -0.5289  0.0369 -0.2132
   37CHL1   H4A 2670   1.606   0.738   6.901 -0.8528 -0.8203  0.0448
   37CHL1   H4B 2671   1.502   0.870   6.858  1.2928  1.3038  1.0716
   37CHL1    C5 2672   1.522   0.820   7.073  0.5870 -0.5854  0.2526
   37CHL1    C6 2673   1.511   0.944   7.112 -0.4820 -0.4043 -0.1721
   37CHL1    H6 2674   1.489   1.018   7.032  0.9404  2.0812  1.6051
   37CHL1    C7 2675   1.545   0.994   7.247 -0.4697  0.0159  0.5673
   37CHL1   H7A 2676   1.618   1.078   7.251  0.2468 -0.6388  1.8605
   37CHL1   H7B 2677   1.448   1.011   7.299 -1.2826  0.4497 -1.0169
   37CHL1    C8 2678   1.603   0.883   7.344  0.1095  0.5700  0.2340
   37CHL1    H8 2679   1.710   0.882   7.314 -0.3655  0.2091 -1.5762
   37CHL1   C14 2680   1.581   0.927   7.482 -1.0815  0.1457 -0.2029
   37CHL1   H14 2681   1.473   0.931   7.504 -1.2213  1.3343 -0.9740
   37CHL1   C15 2682   1.633   1.064   7.528 -0.3347 -0.1309 -0.0730
   37CHL1  H15A 2683   1.736   1.065   7.487  0.8000 -3.7132  2.2152
   37CHL1  H15B 2684   1.564   1.148   7.504 -2.1254 -1.4144  0.3801
   37CHL1   C16 2685   1.644   1.055   7.687 -0.1523  0.1257  0.6237
   37CHL1  H16A 2686   1.746   1.092   7.710 -0.8128  2.8179 -0.4556
   37CHL1  H16B 2687   1.570   1.116   7.743 -1.5507 -1.1524  0.2346
   37CHL1   C17 2688   1.623   0.901   7.719  0.0132 -0.9383 -0.1230
   37CHL1   H17 2689   1.513   0.895   7.734 -0.2299 -0.7784 -1.6506
   37CHL1   C13 2690   1.643   0.826   7.586 -0.3135  0.0316  0.5166
   37CHL1   C18 2691   1.797   0.810   7.571  0.1703 -0.2673  1.3121
   37CHL1  H18A 2692   1.855   0.902   7.591  1.1856 -0.6666  0.2771
   37CHL1  H18B 2693   1.831   0.733   7.644  0.2301 -0.3809  1.1656
   37CHL1  H18C 2694   1.834   0.790   7.468  2.8477  2.3604  1.6292
   37CHL1   C12 2695   1.566   0.693   7.575  0.5682 -0.3952 -0.9796
   37CHL1  H12A 2696   1.630   0.624   7.635 -1.2053 -0.3555  1.0918
   37CHL1  H12B 2697   1.469   0.706   7.626  0.5927  1.1673 -1.3052
   37CHL1   C11 2698   1.565   0.644   7.431 -0.6491  0.2313 -0.1067
   37CHL1  H11A 2699   1.661   0.589   7.423 -1.8833 -2.2121  0.8530
   37CHL1  H11B 2700   1.499   0.555   7.421  0.4359 -0.6250  0.1196
   37CHL1    C9 2701   1.527   0.753   7.319 -0.0112  0.2058  0.2085
   37CHL1    H9 2702   1.421   0.775   7.345 -0.2749 -1.1560  0.3782
   37CHL1   C10 2703   1.543   0.706   7.174 -0.3902  0.3840  0.1264
   37CHL1   C19 2704   1.681   0.645   7.155 -0.1947  0.4670 -0.1701
   37CHL1  H19A 2705   1.757   0.718   7.189 -0.4931  0.1808  1.1428
   37CHL1  H19B 2706   1.691   0.558   7.224 -1.0998  0.7990  0.3952
   37CHL1  H19C 2707   1.692   0.604   7.052  0.0215 -0.8168  0.3439
   37CHL1    C1 2708   1.434   0.597   7.147 -0.0215 -0.0697  0.4794
   37CHL1   H1A 2709   1.458   0.510   7.212  0.5030 -0.3963 -0.1460
   37CHL1   H1B 2710   1.338   0.630   7.192 -0.3305 -0.4046  0.0697
   37CHL1    C2 2711   1.417   0.550   7.004  0.2350  0.8271  0.3474
   37CHL1   H2A 2712   1.334   0.477   6.995  0.8445  0.2233 -0.5228
   37CHL1   H2B 2713   1.509   0.495   6.975 -0.8822 -0.3420 -1.1100
   37CHL1   C20 2714   1.695   0.853   7.845 -0.5898  0.6169  0.4849
   37CHL1   H20 2715   1.803   0.830   7.833 -0.3650  2.3276 -1.2049
   37CHL1   C21 2716   1.625   0.723   7.899  0.2946  0.0676 -0.4296
   37CHL1  H21A 2717   1.517   0.734   7.873 -0.0996  2.7654  1.8188
   37CHL1  H21B 2718   1.650   0.704   8.006 -1.1166  0.4451 -0.0059
   37CHL1  H21C 2719   1.665   0.639   7.839  1.2003  0.4616 -0.3886
   37CHL1   C22 2720   1.680   0.962   7.961  0.4028 -0.0516  0.0051
   37CHL1  H22A 2721   1.713   1.065   7.935 -1.1412  0.3223 -0.5564
   37CHL1  H22B 2722   1.571   0.970   7.980  0.4603 -2.2872  1.7651
   37CHL1   C23 2723   1.757   0.929   8.092  0.1751  0.1301  0.1422
   37CHL1  H23A 2724   1.718   0.836   8.139  2.1497  0.1144  1.8900
   37CHL1  H23B 2725   1.866   0.927   8.072  0.3688  2.4421  0.6813
   37CHL1   C24 2726   1.738   1.044   8.189 -0.5217  0.3899 -0.2536
   37CHL1  H24A 2727   1.776   1.136   8.140 -1.6979  1.1969  0.2900
   37CHL1  H24B 2728   1.630   1.065   8.209 -0.3358  0.8042  0.3350
   37CHL1   C25 2729   1.806   1.031   8.319 -0.3113 -0.2165  0.4158
   37CHL1   H25 2730   1.916   1.024   8.301 -0.1484  2.4079  0.0849
   37CHL1   C26 2731   1.773   1.159   8.394  0.2404  0.3030 -0.1296
   37CHL1  H26A 2732   1.851   1.173   8.473  0.7197  3.0573 -0.9684
   37CHL1  H26B 2733   1.772   1.248   8.328  0.9045 -0.3206 -1.0012
   37CHL1  H26C 2734   1.674   1.146   8.443  0.3027 -1.0572 -0.3182
   37CHL1   C27 2735   1.757   0.902   8.394  0.7436  0.0164  0.3063
   37CHL1  H27A 2736   1.787   0.815   8.333 -1.4880 -1.2878  0.9771
   37CHL1  H27B 2737   1.808   0.882   8.491  2.5633 -2.0113 -0.9755
   37CHL1  H27C 2738   1.647   0.914   8.402  0.8835  0.4382  2.2161
   38CHL1    C3 2739   6.258   2.954   6.646 -0.6296  0.1655  0.3446
   38CHL1    H3 2740   6.242   2.844   6.651 -0.1600 -0.0750 -1.9868
   38CHL1    O3 2741   6.258   2.992   6.508 -0.2332 -0.3673  0.4658
   38CHL1   H3' 2742   6.257   3.088   6.519  1.5238 -0.4635  2.0692
   38CHL1    C4 2743   6.158   3.032   6.722  0.3174  0.3092  0.1317
   38CHL1   H4A 2744   6.188   3.139   6.721  0.3541  0.2955 -0.3599
   38CHL1   H4B 2745   6.063   3.018   6.667 -0.1318  4.3274 -0.4607
   38CHL1    C5 2746   6.153   2.979   6.869 -0.6126  0.6938  0.1063
   38CHL1    C6 2747   6.049   2.927   6.919 -0.4868  0.3523  0.7326
   38CHL1    H6 2748   5.957   2.923   6.858  0.8993 -1.4754 -1.3956
   38CHL1    C7 2749   6.045   2.886   7.059 -0.0319  0.7692 -0.5724
   38CHL1   H7A 2750   5.953   2.901   7.119  0.2283 -2.0617  0.7260
   38CHL1   H7B 2751   6.053   2.775   7.056 -0.5821  0.7456 -1.4348
   38CHL1    C8 2752   6.153   2.940   7.155  0.2704 -0.2629 -0.4403
   38CHL1    H8 2753   6.142   3.048   7.175  1.9010 -0.2057  0.3274
   38CHL1   C14 2754   6.162   2.873   7.297  1.2891 -0.0552  0.0261
   38CHL1   H14 2755   6.172   2.764   7.275 -1.0400 -0.2887 -0.1097
   38CHL1   C15 2756   6.032   2.872   7.391  0.6858  0.0810  0.1023
   38CHL1  H15A 2757   5.997   2.977   7.383 -3.4298 -1.2051 -0.9208
   38CHL1  H15B 2758   5.957   2.800   7.354  2.0549 -1.7963  0.7911
   38CHL1   C16 2759   6.091   2.827   7.524 -0.0007 -0.3849  0.0054
   38CHL1  H16A 2760   6.049   2.887   7.608 -0.0369  0.5223 -0.6447
   38CHL1  H16B 2761   6.062   2.722   7.546  0.2711 -0.1661  1.5545
   38CHL1   C17 2762   6.250   2.829   7.510 -0.5025 -0.2445 -0.1995
   38CHL1   H17 2763   6.283   2.724   7.490 -1.4312 -0.4153 -0.9016
   38CHL1   C13 2764   6.274   2.911   7.389 -0.2174  0.0760  0.2816
   38CHL1   C18 2765   6.270   3.064   7.419  0.5203  0.1405 -0.1502
   38CHL1  H18A 2766   6.275   3.131   7.330  0.2471  0.6604  0.2271
   38CHL1  H18B 2767   6.176   3.088   7.472  1.3183  0.6669  1.0476
   38CHL1  H18C 2768   6.351   3.096   7.488 -1.4878 -0.5857  2.7112
   38CHL1   C12 2769   6.402   2.872   7.309  0.1337 -0.5297  0.5248
   38CHL1  H12A 2770   6.492   2.902   7.366 -0.0332 -0.3233  0.6803
   38CHL1  H12B 2771   6.405   2.761   7.308  3.8941 -0.5622  0.8635
   38CHL1   C11 2772   6.414   2.943   7.171 -0.3061  0.2373  0.3689
   38CHL1  H11A 2773   6.437   3.050   7.188  1.0256  0.2459 -1.1647
   38CHL1  H11B 2774   6.497   2.903   7.109  0.6750  2.3623  0.2259
   38CHL1    C9 2775   6.291   2.918   7.084 -0.0316  0.4145 -0.2413
   38CHL1    H9 2776   6.294   2.809   7.062  1.0482  0.7513 -1.9641
   38CHL1   C10 2777   6.289   2.989   6.941 -0.2413 -0.1052 -0.6643
   38CHL1   C19 2778   6.315   3.141   6.962 -0.2001  0.5270 -0.3116
   38CHL1  H19A 2779   6.283   3.206   6.879  0.3420 -0.7311 -1.5413
   38CHL1  H19B 2780   6.249   3.184   7.040  1.5036  1.6820  0.5711
   38CHL1  H19C 2781   6.423   3.153   6.986 -0.2887 -0.3026  0.5966
   38CHL1    C1 2782   6.403   2.934   6.847  0.1422 -0.2773 -0.0024
   38CHL1   H1A 2783   6.497   2.958   6.903 -0.7823 -0.4421  1.6911
   38CHL1   H1B 2784   6.416   2.824   6.849  3.2141 -0.0093  0.6297
   38CHL1    C2 2785   6.397   2.977   6.705 -0.0263  0.0709 -0.5035
   38CHL1   H2A 2786   6.471   2.914   6.651 -1.1247 -1.8749  0.1390
   38CHL1   H2B 2787   6.432   3.080   6.683 -0.0749  0.0677 -0.5941
   38CHL1   C20 2788   6.314   2.875   7.642  0.4009  0.8802 -0.2655
   38CHL1   H20 2789   6.284   2.977   7.673 -1.0658  0.5393 -0.5079
   38CHL1   C21 2790   6.467   2.880   7.633  0.0605 -0.0769 -0.1257
   38CHL1  H21A 2791   6.514   2.779   7.628 -0.3443 -0.2028 -2.1849
   38CHL1  H21B 2792   6.517   2.936   7.715 -0.1925  2.7066 -1.7439
   38CHL1  H21C 2793   6.502   2.948   7.553  0.5391 -0.7683 -0.5175
   38CHL1   C22 2794   6.274   2.781   7.761 -0.0394  0.7864 -0.3660
   38CHL1  H22A 2795   6.180   2.724   7.751  0.6282 -0.4660  0.2256
   38CHL1  H22B 2796   6.358   2.712   7.786  1.1721  2.9187  1.9365
   38CHL1   C23 2797   6.261   2.851   7.896 -0.0059  0.0869  0.3519
   38CHL1  H23A 2798   6.351   2.914   7.915 -2.4441  3.7494  0.7730
   38CHL1  H23B 2799   6.169   2.914   7.897 -0.7512 -0.9798  0.0859
   38CHL1   C24 2800   6.250   2.750   8.018 -0.1306 -0.8801  0.5395
   38CHL1  H24A 2801   6.163   2.682   8.016  0.5516 -1.7489 -0.6106
   38CHL1  H24B 2802   6.339   2.684   8.011  1.2768  0.9248  0.5440
   38CHL1   C25 2803   6.244   2.829   8.153 -0.4891  0.4587 -0.2802
   38CHL1   H25 2804   6.335   2.892   8.162  0.2668 -0.3002 -2.1428
   38CHL1   C26 2805   6.125   2.920   8.175 -0.2194  0.4512  0.2886
   38CHL1  H26A 2806   6.111   2.950   8.281  0.6297  0.0144  0.5311
   38CHL1  H26B 2807   6.132   3.006   8.105 -0.9503 -2.3495 -3.5489
   38CHL1  H26C 2808   6.037   2.860   8.142  0.4923  0.2753 -1.3777
   38CHL1   C27 2809   6.240   2.717   8.265 -0.0282 -0.4978 -0.0356
   38CHL1  H27A 2810   6.164   2.641   8.237  2.0455 -2.5758 -0.2552
   38CHL1  H27B 2811   6.339   2.667   8.267 -0.5906 -1.9722 -3.3098
   38CHL1  H27C 2812   6.210   2.770   8.358 -0.9919  2.7620 -2.0175
   39CHL1    C3 2813   5.645   2.398   6.829 -0.2597 -0.6055  0.4788
   39CHL1    H3 2814   5.734   2.462   6.844  0.1207 -0.7900 -0.8696
   39CHL1    O3 2815   5.628   2.395   6.684  0.0622  0.3663 -1.0593
   39CHL1   H3' 2816   5.597   2.484   6.667  0.6311  1.0051  0.9120
   39CHL1    C4 2817   5.671   2.252   6.876  0.5770 -0.6382 -0.1424
   39CHL1   H4A 2818   5.594   2.189   6.827 -0.9560  1.3274 -0.4007
   39CHL1   H4B 2819   5.773   2.224   6.840  1.1525  0.1453  0.8205
   39CHL1    C5 2820   5.655   2.234   7.030 -0.2677 -0.3544  0.1071
   39CHL1    C6 2821   5.757   2.184   7.097  0.0407  0.7526  1.0268
   39CHL1    H6 2822   5.841   2.136   7.044 -0.2811 -0.2886  1.4431
   39CHL1    C7 2823   5.742   2.161   7.247  0.3211 -0.6930 -0.2040
   39CHL1   H7A 2824   5.770   2.059   7.280 -1.3822 -1.2006 -0.2314
   39CHL1   H7B 2825   5.814   2.235   7.289  1.7385 -1.0375 -1.8815
   39CHL1    C8 2826   5.603   2.177   7.306  0.2099 -0.2006 -0.7218
   39CHL1    H8 2827   5.537   2.094   7.271 -0.2436 -0.2076  0.1225
   39CHL1   C14 2828   5.615   2.190   7.459  0.6670 -0.2795 -0.0473
   39CHL1   H14 2829   5.683   2.275   7.482  4.0432 -2.3346 -1.6330
   39CHL1   C15 2830   5.682   2.073   7.539 -1.0776 -0.9204 -0.1529
   39CHL1  H15A 2831   5.629   1.980   7.509 -1.2874 -0.6606 -0.6040
   39CHL1  H15B 2832   5.792   2.068   7.526 -0.8632 -1.5995  1.5762
   39CHL1   C16 2833   5.650   2.109   7.681 -0.2693  0.1435 -0.2547
   39CHL1  H16A 2834   5.619   2.013   7.727 -0.3474 -0.4530 -1.4988
   39CHL1  H16B 2835   5.742   2.133   7.738  1.8072  0.0827 -3.3157
   39CHL1   C17 2836   5.540   2.216   7.679 -0.0470  0.1579  0.3982
   39CHL1   H17 2837   5.591   2.312   7.704  0.2862 -0.2886  1.4720
   39CHL1   C13 2838   5.486   2.217   7.537 -0.1208  0.2696  0.1709
   39CHL1   C18 2839   5.393   2.098   7.533  0.3390 -0.2044 -0.0830
   39CHL1  H18A 2840   5.387   2.058   7.430  0.1673 -2.8267  0.8455
   39CHL1  H18B 2841   5.424   2.020   7.607 -0.9415 -1.7931 -1.1494
   39CHL1  H18C 2842   5.293   2.133   7.567 -0.1123 -0.2849 -1.2896
   39CHL1   C12 2843   5.420   2.339   7.478 -0.1109 -0.4438  0.4822
   39CHL1  H12A 2844   5.324   2.356   7.532 -0.2156  1.5827 -0.2691
   39CHL1  H12B 2845   5.486   2.426   7.496 -0.6585  0.2213 -0.5868
   39CHL1   C11 2846   5.391   2.333   7.325 -0.0084 -0.6881  0.1441
   39CHL1  H11A 2847   5.319   2.249   7.316 -0.0660 -0.7272  0.9145
   39CHL1  H11B 2848   5.353   2.432   7.292  5.3079  0.9077 -2.3602
   39CHL1    C9 2849   5.527   2.298   7.248 -0.3635 -0.0024 -0.7940
   39CHL1    H9 2850   5.594   2.381   7.280 -0.0142 -0.9227  0.9712
   39CHL1   C10 2851   5.530   2.296   7.095  0.0544  0.2618 -1.1381
   39CHL1   C19 2852   5.412   2.207   7.041  0.1125  0.5925  0.3971
   39CHL1  H19A 2853   5.312   2.230   7.082  0.6187  3.4889  0.1948
   39CHL1  H19B 2854   5.398   2.230   6.933 -0.5287 -0.3583  0.2691
   39CHL1  H19C 2855   5.432   2.101   7.069  1.0270  0.3475 -1.0846
   39CHL1    C1 2856   5.508   2.440   7.054 -0.3687  0.1122 -0.2537
   39CHL1   H1A 2857   5.408   2.484   7.075  0.1468  0.7078  1.0875
   39CHL1   H1B 2858   5.581   2.510   7.100  0.8147 -0.3196 -1.3992
   39CHL1    C2 2859   5.521   2.467   6.898  0.6987  0.6491  0.5123
   39CHL1   H2A 2860   5.531   2.577   6.883 -0.5596  0.5838 -1.0315
   39CHL1   H2B 2861   5.429   2.430   6.847  1.3468  0.1886 -0.3432
   39CHL1   C20 2862   5.453   2.208   7.804 -0.1067  0.1419  0.9084
   39CHL1   H20 2863   5.386   2.119   7.801 -0.7234  0.5811  1.4074
   39CHL1   C21 2864   5.364   2.330   7.812  0.0397 -0.2834 -0.0701
   39CHL1  H21A 2865   5.285   2.320   7.735  0.8320 -1.3406 -0.7757
   39CHL1  H21B 2866   5.433   2.417   7.800  1.3785 -0.9647  1.9432
   39CHL1  H21C 2867   5.330   2.345   7.917 -0.1433  2.3556 -0.4414
   39CHL1   C22 2868   5.534   2.188   7.941  0.0325  0.1714 -0.2839
   39CHL1  H22A 2869   5.459   2.153   8.015 -1.6684  1.2244 -1.4275
   39CHL1  H22B 2870   5.600   2.099   7.940  0.3400  0.3979 -0.5391
   39CHL1   C23 2871   5.608   2.310   8.000  0.3215  0.3697 -0.5805
   39CHL1  H23A 2872   5.679   2.347   7.923  0.3614  0.9689 -0.2667
   39CHL1  H23B 2873   5.534   2.393   8.001 -0.3659 -0.2357 -0.1786
   39CHL1   C24 2874   5.676   2.293   8.141 -0.3263 -0.2924  0.4596
   39CHL1  H24A 2875   5.768   2.232   8.136 -0.4965 -0.6088  1.1127
   39CHL1  H24B 2876   5.712   2.388   8.185 -1.3279  0.3633 -0.0853
   39CHL1   C25 2877   5.583   2.242   8.258 -0.4091 -0.4832 -0.0920
   39CHL1   H25 2878   5.529   2.148   8.234 -1.0205 -0.6682  1.8288
   39CHL1   C26 2879   5.655   2.203   8.383 -0.7790 -0.4007  0.4159
   39CHL1  H26A 2880   5.727   2.285   8.404 -1.5321  0.7400 -1.2389
   39CHL1  H26B 2881   5.602   2.190   8.480  1.6685 -2.1231  1.6383
   39CHL1  H26C 2882   5.720   2.114   8.367  1.1356  1.3998 -2.7855
   39CHL1   C27 2883   5.499   2.356   8.293  0.1743  0.2781  0.2823
   39CHL1  H27A 2884   5.425   2.364   8.211 -0.0302 -0.3713  0.3959
   39CHL1  H27B 2885   5.442   2.347   8.388  0.5190  2.0723  0.6985
   39CHL1  H27C 2886   5.549   2.455   8.299 -1.1328  1.0466 -0.8164
   40CHL1    C3 2887   1.313   4.956   6.559 -0.1202  0.4322  0.9268
   40CHL1    H3 2888   1.312   5.067   6.561  6.3104  0.9784 -2.1551
   40CHL1    O3 2889   1.276   4.908   6.435 -1.1155 -0.4775  0.5554
   40CHL1   H3' 2890   1.229   4.826   6.452 -2.6881  0.3447  0.2812
   40CHL1    C4 2891   1.452   4.909   6.582  0.5792  0.5248  0.6418
   40CHL1   H4A 2892   1.462   4.799   6.569 -0.0173  0.5477 -0.0611
   40CHL1   H4B 2893   1.529   4.941   6.508  0.3200  0.5250  0.3743
   40CHL1    C5 2894   1.493   4.946   6.719 -0.1111  1.3915  0.2197
   40CHL1    C6 2895   1.605   5.011   6.748  0.1325 -0.4505  1.1556
   40CHL1    H6 2896   1.668   5.043   6.664  0.6808 -3.4464  0.3105
   40CHL1    C7 2897   1.652   5.042   6.889  0.4390  0.7544 -0.1218
   40CHL1   H7A 2898   1.760   5.023   6.903  0.4843  1.5788  0.8048
   40CHL1   H7B 2899   1.652   5.153   6.901  0.1915  1.0570 -2.4401
   40CHL1    C8 2900   1.569   4.970   6.996  1.1256 -0.6501  0.2665
   40CHL1    H8 2901   1.602   4.866   7.018  0.3906 -1.3388 -1.6746
   40CHL1   C14 2902   1.596   5.040   7.136 -0.4555  0.0297  0.2019
   40CHL1   H14 2903   1.566   5.146   7.123  2.3868  1.1616  2.0214
   40CHL1   C15 2904   1.744   5.055   7.167  0.3861  0.1331  0.4366
   40CHL1  H15A 2905   1.795   4.959   7.145 -0.4431 -0.8194  2.4122
   40CHL1  H15B 2906   1.797   5.136   7.112 -0.1026 -1.1540 -2.0910
   40CHL1   C16 2907   1.737   5.088   7.320  0.3762 -0.2437  0.0438
   40CHL1  H16A 2908   1.801   5.018   7.379 -1.0522 -1.4540  0.2229
   40CHL1  H16B 2909   1.770   5.193   7.329 -1.7889  0.4257  0.5568
   40CHL1   C17 2910   1.584   5.083   7.370 -0.3929  0.4969  0.8652
   40CHL1   H17 2911   1.547   5.186   7.353  1.4270  1.6804  3.5021
   40CHL1   C13 2912   1.527   4.993   7.265  0.1392 -0.0594 -0.0870
   40CHL1   C18 2913   1.575   4.853   7.291 -0.4064 -0.0013 -0.7009
   40CHL1  H18A 2914   1.577   4.799   7.194 -2.4184  0.9020 -1.3072
   40CHL1  H18B 2915   1.675   4.839   7.337 -1.0110  1.5352  1.2408
   40CHL1  H18C 2916   1.508   4.806   7.366  0.2650  0.7938  0.4392
   40CHL1   C12 2917   1.381   5.002   7.230 -0.3843  0.5018 -0.1261
   40CHL1  H12A 2918   1.321   4.955   7.311  1.4314 -0.8285  0.5018
   40CHL1  H12B 2919   1.352   5.109   7.223 -0.6015  0.4769  0.3286
   40CHL1   C11 2920   1.351   4.931   7.100  0.0556 -0.5203  0.1041
   40CHL1  H11A 2921   1.357   4.820   7.103 -1.0425 -0.6077 -0.3111
   40CHL1  H11B 2922   1.243   4.941   7.076  0.5473  0.2360 -2.0094
   40CHL1    C9 2923   1.427   4.974   6.975 -0.3328  0.2007  0.6910
   40CHL1    H9 2924   1.408   5.081   6.950 -0.5619  0.7967  3.1316
   40CHL1   C10 2925   1.400   4.897   6.843 -0.0457  1.2091  0.1759
   40CHL1   C19 2926   1.428   4.745   6.852  0.6983 -0.2567 -0.5443
   40CHL1  H19A 2927   1.380   4.700   6.942  2.0194  0.8521  0.7458
   40CHL1  H19B 2928   1.386   4.692   6.763 -1.8305 -1.8889  1.4495
   40CHL1  H19C 2929   1.536   4.723   6.864  0.5452 -2.2715 -2.1501
   40CHL1    C1 2930   1.258   4.925   6.804 -0.4956  0.2686  0.0660
   40CHL1   H1A 2931   1.185   4.872   6.868 -0.3331  0.8149  0.7192
   40CHL1   H1B 2932   1.226   5.031   6.813 -0.9576  0.3570 -2.0905
   40CHL1    C2 2933   1.219   4.893   6.659  0.8139 -0.6683 -0.5378
   40CHL1   H2A 2934   1.114   4.911   6.629  1.4180 -0.1437 -2.5142
   40CHL1   H2B 2935   1.241   4.785   6.646 -0.6979 -0.8708 -1.6732
   40CHL1   C20 2936   1.563   5.056   7.519 -0.8543 -0.1331  0.1037
   40CHL1   H20 2937   1.596   4.954   7.549  1.1921  0.4915  0.1088
   40CHL1   C21 2938   1.414   5.090   7.559 -0.2067 -0.5186  0.6712
   40CHL1  H21A 2939   1.337   5.027   7.511  0.4805 -1.0770  0.2778
   40CHL1  H21B 2940   1.397   5.197   7.532 -1.4507 -0.6857  0.7250
   40CHL1  H21C 2941   1.398   5.083   7.669  1.9176  0.5401  1.1142
   40CHL1   C22 2942   1.663   5.139   7.608  0.0359  0.3473 -0.1247
   40CHL1  H22A 2943   1.762   5.097   7.581 -0.4081 -0.3171 -0.7537
   40CHL1  H22B 2944   1.660   5.246   7.580 -1.9819  0.8632  1.7637
   40CHL1   C23 2945   1.637   5.123   7.761 -0.1574  0.0505  0.2675
   40CHL1  H23A 2946   1.714   5.188   7.805 -0.2845 -0.4597  1.2748
   40CHL1  H23B 2947   1.540   5.171   7.786 -0.5897 -0.2063 -0.8252
   40CHL1   C24 2948   1.637   4.983   7.811 -0.0449 -0.5750  0.4571
   40CHL1  H24A 2949   1.538   4.933   7.805  1.0275 -2.8799  0.8745
   40CHL1  H24B 2950   1.702   4.924   7.743  1.5364  1.0901  0.4474
   40CHL1   C25 2951   1.697   4.954   7.953  0.2163 -0.5867  0.2894
   40CHL1   H25 2952   1.808   4.947   7.951  0.2856 -0.1080 -3.1527
   40CHL1   C26 2953   1.651   5.055   8.066  0.5253  0.0513  0.0042
   40CHL1  H26A 2954   1.543   5.081   8.055  0.0534 -0.1323  3.1987
   40CHL1  H26B 2955   1.670   5.000   8.160  0.3481 -0.8093 -0.4578
   40CHL1  H26C 2956   1.712   5.148   8.072 -1.9982  1.7912  0.1373
   40CHL1   C27 2957   1.655   4.816   8.005  0.2122  0.1459  0.9336
   40CHL1  H27A 2958   1.545   4.804   8.016  0.0076  1.6933  0.8281
   40CHL1  H27B 2959   1.692   4.730   7.945  0.2039 -0.6658  2.0544
   40CHL1  H27C 2960   1.698   4.790   8.105 -0.0062 -1.2943  0.6793
   41CHL1    C3 2961   2.351   5.465   6.650 -0.6042  0.3739 -0.5490
   41CHL1    H3 2962   2.267   5.489   6.718  0.4374  2.0136  0.2228
   41CHL1    O3 2963   2.341   5.507   6.516  0.4878  0.3731 -0.8662
   41CHL1   H3' 2964   2.423   5.475   6.477  0.7726 -1.4374  1.0537
   41CHL1    C4 2965   2.479   5.528   6.712 -0.3333  0.1813 -0.0191
   41CHL1   H4A 2966   2.564   5.481   6.657 -1.7971 -0.5659 -1.7276
   41CHL1   H4B 2967   2.484   5.636   6.688 -0.3737 -0.1328 -1.5180
   41CHL1    C5 2968   2.492   5.487   6.858 -0.1099  0.3902 -0.2693
   41CHL1    C6 2969   2.494   5.580   6.950 -0.4234  0.2102 -0.8169
   41CHL1    H6 2970   2.509   5.684   6.917  3.0435 -0.1095 -0.6491
   41CHL1    C7 2971   2.510   5.557   7.096 -0.4983 -0.1482 -0.0136
   41CHL1   H7A 2972   2.602   5.609   7.131 -0.9793  0.5377  0.2692
   41CHL1   H7B 2973   2.416   5.582   7.150 -1.7639 -2.2176 -1.1633
   41CHL1    C8 2974   2.550   5.410   7.129 -0.6167 -0.2470  0.0349
   41CHL1    H8 2975   2.654   5.390   7.099 -1.2747 -1.4654 -1.5647
   41CHL1   C14 2976   2.529   5.380   7.276 -0.6111  0.3940 -0.0687
   41CHL1   H14 2977   2.420   5.391   7.298 -0.1289 -0.0403  2.8748
   41CHL1   C15 2978   2.579   5.475   7.382 -0.0342  0.6316  0.1768
   41CHL1  H15A 2979   2.686   5.501   7.364 -0.6524  1.8694 -2.1774
   41CHL1  H15B 2980   2.520   5.566   7.407  1.2254  1.0371  1.8690
   41CHL1   C16 2981   2.570   5.392   7.509  0.2881  0.4844 -0.0418
   41CHL1  H16A 2982   2.672   5.400   7.552 -0.2834  2.7261  1.0973
   41CHL1  H16B 2983   2.506   5.438   7.588  0.2940  1.4021 -0.5601
   41CHL1   C17 2984   2.529   5.245   7.474  0.2335  0.2020  0.2746
   41CHL1   H17 2985   2.419   5.233   7.470  0.4097 -1.2336 -1.3939
   41CHL1   C13 2986   2.571   5.236   7.322 -0.0469  0.0383  0.4145
   41CHL1   C18 2987   2.729   5.212   7.315  0.4088 -0.0209  0.6626
   41CHL1  H18A 2988   2.744   5.106   7.346 -0.1000 -0.3669 -0.2399
   41CHL1  H18B 2989   2.777   5.214   7.215  3.0305 -1.7885  1.7541
   41CHL1  H18C 2990   2.778   5.282   7.387 -0.1655  0.1443  0.8966
   41CHL1   C12 2991   2.481   5.140   7.239 -0.1954  0.4636  0.3799
   41CHL1  H12A 2992   2.503   5.033   7.257  0.7851  0.1663 -2.1968
   41CHL1  H12B 2993   2.375   5.159   7.264 -0.7085  0.4053 -1.5798
   41CHL1   C11 2994   2.488   5.161   7.088 -0.5638  0.0940 -0.2963
   41CHL1  H11A 2995   2.589   5.123   7.062 -0.3331  0.3566  0.2144
   41CHL1  H11B 2996   2.422   5.089   7.034  2.1180 -2.5269 -0.3203
   41CHL1    C9 2997   2.468   5.308   7.042 -0.6218 -0.7357  0.0797
   41CHL1    H9 2998   2.359   5.320   7.061 -1.0918 -1.8821 -1.6917
   41CHL1   C10 2999   2.488   5.327   6.887 -0.4980 -0.4883 -0.0112
   41CHL1   C19 3000   2.623   5.258   6.841  0.4788 -0.5818 -0.4343
   41CHL1  H19A 3001   2.708   5.298   6.902  0.0050  2.4422 -1.5628
   41CHL1  H19B 3002   2.614   5.148   6.842 -0.5609 -0.5123 -0.8338
   41CHL1  H19C 3003   2.650   5.288   6.738  0.7111 -0.4171 -0.3257
   41CHL1    C1 3004   2.368   5.262   6.807  0.4156 -0.0658  0.2923
   41CHL1   H1A 3005   2.385   5.153   6.818  0.9868 -0.2237 -1.7362
   41CHL1   H1B 3006   2.277   5.273   6.869  1.3927  1.3904  1.5291
   41CHL1    C2 3007   2.363   5.311   6.662  0.3526  0.1940  0.4070
   41CHL1   H2A 3008   2.269   5.268   6.619 -0.1141  1.7054 -0.1364
   41CHL1   H2B 3009   2.457   5.277   6.613  0.5681  1.9336 -0.4705
   41CHL1   C20 3010   2.580   5.133   7.568  0.0486 -0.0584  0.0647
   41CHL1   H20 3011   2.691   5.141   7.563  0.0609 -0.2708  0.0139
   41CHL1   C21 3012   2.538   4.984   7.532  0.5621 -0.0275 -0.5941
   41CHL1  H21A 3013   2.429   4.972   7.510  0.2742 -0.1291  0.8382
   41CHL1  H21B 3014   2.560   4.912   7.613  1.9042  1.6622  0.6288
   41CHL1  H21C 3015   2.596   4.954   7.442 -0.6888 -1.2118 -1.0381
   41CHL1   C22 3016   2.538   5.174   7.708 -0.1131  0.0068  0.3610
   41CHL1  H22A 3017   2.560   5.281   7.726 -2.7529  0.4178  1.6145
   41CHL1  H22B 3018   2.428   5.156   7.709  0.1756 -2.0141  0.6266
   41CHL1   C23 3019   2.582   5.079   7.819  0.0761  0.2275 -0.1366
   41CHL1  H23A 3020   2.532   4.980   7.807 -1.2176  0.9519 -0.8908
   41CHL1  H23B 3021   2.692   5.064   7.823  0.0199  0.0142  1.2445
   41CHL1   C24 3022   2.525   5.132   7.948 -0.1313 -0.1154  0.0486
   41CHL1  H24A 3023   2.576   5.223   7.987 -2.3394 -0.8377  5.7006
   41CHL1  H24B 3024   2.422   5.173   7.936  0.6348  1.4781 -1.6810
   41CHL1   C25 3025   2.529   5.042   8.068  0.2932  0.4022  0.2050
   41CHL1   H25 3026   2.624   4.985   8.062  0.2638  0.2348  1.1667
   41CHL1   C26 3027   2.518   5.118   8.205  0.1112 -0.0397 -0.0737
   41CHL1  H26A 3028   2.614   5.169   8.229  0.3861 -0.9457  0.7902
   41CHL1  H26B 3029   2.438   5.196   8.209  1.3676  1.2857  0.0806
   41CHL1  H26C 3030   2.496   5.054   8.293  1.5963 -0.6008 -0.0808
   41CHL1   C27 3031   2.415   4.943   8.062 -0.3838 -0.4719 -0.0221
   41CHL1  H27A 3032   2.437   4.872   7.980  0.6315 -0.0524 -0.1230
   41CHL1  H27B 3033   2.397   4.883   8.154 -0.6148 -1.0413 -0.4341
   41CHL1  H27C 3034   2.323   5.003   8.047  0.3208  1.4987  2.7709
   42CHL1    C3 3035   3.382   3.172   6.921 -0.1154  0.0984  0.4819
   42CHL1    H3 3036   3.303   3.095   6.916  0.0313 -0.0107 -0.1858
   42CHL1    O3 3037   3.431   3.213   6.788 -0.4019 -0.1670  0.5114
   42CHL1   H3' 3038   3.508   3.157   6.778  0.9842  1.7499 -0.0854
   42CHL1    C4 3039   3.315   3.291   6.988 -0.2106 -0.0957 -0.6124
   42CHL1   H4A 3040   3.388   3.375   6.980 -0.9989  0.6747  0.0710
   42CHL1   H4B 3041   3.224   3.315   6.928  0.0211 -0.0835 -0.9597
   42CHL1    C5 3042   3.280   3.269   7.137 -0.0579 -1.0138 -0.0390
   42CHL1    C6 3043   3.156   3.285   7.179 -0.6757 -0.8627 -1.0109
   42CHL1    H6 3044   3.082   3.305   7.100 -1.6272 -0.8541 -0.1351
   42CHL1    C7 3045   3.098   3.261   7.319 -0.8705 -0.4165 -0.8065
   42CHL1   H7A 3046   3.035   3.334   7.373  0.4434 -0.8549  1.4247
   42CHL1   H7B 3047   3.051   3.160   7.321 -2.5419  0.3228 -0.9349
   42CHL1    C8 3048   3.220   3.240   7.418 -0.1958  1.2735  0.2304
   42CHL1    H8 3049   3.257   3.343   7.439  2.7670  0.9310 -2.5815
   42CHL1   C14 3050   3.167   3.182   7.549 -0.6290  0.0817  0.6266
   42CHL1   H14 3051   3.138   3.078   7.524  1.1659 -0.4518  0.6730
   42CHL1   C15 3052   3.050   3.252   7.620 -0.8194  0.5515 -0.1710
   42CHL1  H15A 3053   3.048   3.363   7.617 -0.9647  0.5314 -1.9420
   42CHL1  H15B 3054   2.955   3.224   7.569 -0.9544  1.8872 -0.6986
   42CHL1   C16 3055   3.053   3.190   7.760 -0.0460  0.1730  0.2875
   42CHL1  H16A 3056   3.037   3.275   7.831  0.5746 -0.7785  1.6127
   42CHL1  H16B 3057   2.975   3.113   7.771  2.3161 -2.6111 -1.1351
   42CHL1   C17 3058   3.184   3.114   7.772 -0.4225 -0.0501  0.0664
   42CHL1   H17 3059   3.165   3.005   7.761  2.3357 -0.4521 -1.4224
   42CHL1   C13 3060   3.273   3.158   7.655  0.4660  0.0132 -0.0428
   42CHL1   C18 3061   3.341   3.290   7.688 -0.9493 -0.3017  0.0199
   42CHL1  H18A 3062   3.396   3.329   7.601  0.0970  0.6579  1.0726
   42CHL1  H18B 3063   3.271   3.372   7.715 -1.1882 -0.5190  0.0677
   42CHL1  H18C 3064   3.416   3.271   7.768 -1.3210 -2.0238  0.0060
   42CHL1   C12 3065   3.371   3.056   7.601 -0.4347  0.6806 -0.1154
   42CHL1  H12A 3066   3.457   3.050   7.671 -0.3815  0.6400 -0.1847
   42CHL1  H12B 3067   3.329   2.956   7.576 -0.1779  0.6398 -0.3866
   42CHL1   C11 3068   3.432   3.098   7.463  0.3441 -0.3372  0.9812
   42CHL1  H11A 3069   3.503   3.180   7.485  0.9364 -1.1408  2.1798
   42CHL1  H11B 3070   3.487   3.011   7.420 -2.1792 -2.4054  1.6650
   42CHL1    C9 3071   3.330   3.151   7.357  0.0637  0.0129  0.6406
   42CHL1    H9 3072   3.286   3.054   7.326  3.9659 -1.8630  0.2938
   42CHL1   C10 3073   3.389   3.212   7.219  0.6138  0.1353 -0.0253
   42CHL1   C19 3074   3.488   3.320   7.240  0.4015 -0.3417 -0.3721
   42CHL1  H19A 3075   3.580   3.273   7.278 -0.7826 -1.4615  1.2194
   42CHL1  H19B 3076   3.516   3.390   7.158  1.1520 -0.4505 -0.2174
   42CHL1  H19C 3077   3.448   3.387   7.319 -2.5045  0.6550 -2.5048
   42CHL1    C1 3078   3.454   3.091   7.146  0.0151  0.4389 -0.1280
   42CHL1   H1A 3079   3.550   3.076   7.200  1.0123  1.2528 -1.6074
   42CHL1   H1B 3080   3.377   3.011   7.148 -2.0773  2.3117  3.3801
   42CHL1    C2 3081   3.504   3.121   7.006 -0.0871  0.3380  0.0422
   42CHL1   H2A 3082   3.550   3.033   6.957  0.1618  0.4667  0.0465
   42CHL1   H2B 3083   3.586   3.195   7.016  0.7817 -0.6292  0.2479
   42CHL1   C20 3084   3.246   3.122   7.916  0.2371 -0.3732  0.2230
   42CHL1   H20 3085   3.297   3.219   7.936 -0.3440 -0.3336  1.6403
   42CHL1   C21 3086   3.349   3.009   7.940 -0.0000  0.0450 -0.3598
   42CHL1  H21A 3087   3.388   3.015   8.043  2.6700  0.4913 -1.3178
   42CHL1  H21B 3088   3.434   3.039   7.875 -0.2957  1.0049 -0.3258
   42CHL1  H21C 3089   3.315   2.906   7.917  1.3414 -0.1144 -1.8114
   42CHL1   C22 3090   3.134   3.105   8.030 -0.2863 -0.2133  0.1225
   42CHL1  H22A 3091   3.187   3.106   8.128 -0.8865 -2.1797  0.5235
   42CHL1  H22B 3092   3.054   3.182   8.029 -0.5800 -0.5184 -0.4520
   42CHL1   C23 3093   3.059   2.973   8.036 -0.3072  0.1177 -0.4144
   42CHL1  H23A 3094   2.979   2.974   7.960  3.0762 -1.4550 -4.3720
   42CHL1  H23B 3095   3.120   2.882   8.017 -0.6782  0.0829 -1.4707
   42CHL1   C24 3096   2.998   2.961   8.179  0.3891  0.1327 -0.3096
   42CHL1  H24A 3097   2.948   2.862   8.185 -4.0192  2.0004 -1.4829
   42CHL1  H24B 3098   3.076   2.968   8.257 -1.6455  2.0962  1.7304
   42CHL1   C25 3099   2.893   3.058   8.228 -0.1410  0.5665  0.1629
   42CHL1   H25 3100   2.927   3.160   8.204  0.4729  0.5775  1.0353
   42CHL1   C26 3101   2.758   3.024   8.156  0.6464  0.4916  0.2469
   42CHL1  H26A 3102   2.718   2.930   8.200  2.5701 -0.0314  0.9637
   42CHL1  H26B 3103   2.683   3.103   8.178  0.2641  0.0554  0.5383
   42CHL1  H26C 3104   2.749   3.015   8.045 -1.2562  0.1359  0.3926
   42CHL1   C27 3105   2.885   3.046   8.381 -0.1687  1.0747 -0.7992
   42CHL1  H27A 3106   2.983   3.080   8.421 -0.3865 -0.3590  1.1390
   42CHL1  H27B 3107   2.854   2.948   8.423 -1.8960  1.8833 -0.1241
   42CHL1  H27C 3108   2.818   3.125   8.422  2.7262  3.4500 -0.2930
   43CHL1    C3 3109   2.597   0.412   6.817  0.1588 -0.1461  0.5008
   43CHL1    H3 3110   2.542   0.495   6.867 -0.2287  2.0571 -3.1902
   43CHL1    O3 3111   2.583   0.436   6.676  0.0364 -0.2834 -0.4871
   43CHL1   H3' 3112   2.651   0.502   6.658  1.0220 -0.6486  1.6081
   43CHL1    C4 3113   2.744   0.419   6.851 -1.3516  0.1485  0.2872
   43CHL1   H4A 3114   2.799   0.350   6.785 -0.5381  0.6697  0.4090
   43CHL1   H4B 3115   2.783   0.520   6.827 -0.8420  0.1710  1.1436
   43CHL1    C5 3116   2.776   0.386   6.999 -0.0274 -0.1310  0.5194
   43CHL1    C6 3117   2.839   0.469   7.080 -0.8866 -0.0629  0.3291
   43CHL1    H6 3118   2.875   0.560   7.030 -1.1540 -0.8665 -1.3878
   43CHL1    C7 3119   2.870   0.439   7.233 -1.3667 -0.0336 -0.0652
   43CHL1   H7A 3120   2.970   0.471   7.267 -0.5808 -0.7537 -1.6144
   43CHL1   H7B 3121   2.795   0.493   7.296 -2.4265 -2.3020  0.7212
   43CHL1    C8 3122   2.857   0.291   7.259  0.5405  0.6756 -1.0188
   43CHL1    H8 3123   2.945   0.234   7.224 -0.6187 -2.8060  1.1754
   43CHL1   C14 3124   2.852   0.271   7.414  0.0021  0.5103 -0.0606
   43CHL1   H14 3125   2.765   0.327   7.452 -0.2027 -0.6606  1.3160
   43CHL1   C15 3126   2.979   0.306   7.502  0.3988 -0.3783  0.2318
   43CHL1  H15A 3127   3.072   0.270   7.453  0.6342  1.5483 -0.8231
   43CHL1  H15B 3128   2.991   0.414   7.522 -0.2442 -0.3306  0.3888
   43CHL1   C16 3129   2.954   0.225   7.632  1.4227 -0.2863  0.1438
   43CHL1  H16A 3130   3.026   0.142   7.652 -1.0034 -2.7110 -0.5314
   43CHL1  H16B 3131   2.943   0.292   7.719  0.4297 -0.0917 -0.1187
   43CHL1   C17 3132   2.821   0.144   7.607  0.7697 -0.2920 -0.1709
   43CHL1   H17 3133   2.741   0.209   7.647  0.9194  0.3914 -0.9424
   43CHL1   C13 3134   2.821   0.129   7.449 -0.0353 -0.5102 -0.2690
   43CHL1   C18 3135   2.932   0.027   7.413 -1.1455 -0.2836  0.2788
   43CHL1  H18A 3136   2.906  -0.077   7.443 -0.7930 -0.5097 -0.1865
   43CHL1  H18B 3137   2.934   0.017   7.302 -3.2279 -1.3834  0.2908
   43CHL1  H18C 3138   3.031   0.061   7.449 -0.7042  0.2796 -1.3647
   43CHL1   C12 3139   2.689   0.083   7.391 -0.4305  0.0033 -0.6986
   43CHL1  H12A 3140   2.667  -0.022   7.422  0.0305 -0.1445 -0.8720
   43CHL1  H12B 3141   2.611   0.146   7.439 -2.7457 -1.8616 -1.7833
   43CHL1   C11 3142   2.684   0.096   7.237 -0.0469  0.2991  0.0274
   43CHL1  H11A 3143   2.739   0.007   7.199 -2.5244 -1.2646 -0.0664
   43CHL1  H11B 3144   2.579   0.070   7.212 -1.0342  2.2804  1.8754
   43CHL1    C9 3145   2.733   0.233   7.191 -0.3866 -0.5891  0.1352
   43CHL1    H9 3146   2.652   0.296   7.232  0.7005 -0.4111  2.1714
   43CHL1   C10 3147   2.717   0.248   7.035 -0.3542  0.6928  0.0568
   43CHL1   C19 3148   2.803   0.128   6.976  0.1571 -0.7686  0.1266
   43CHL1  H19A 3149   2.904   0.111   7.021 -0.0890 -0.1214  0.9366
   43CHL1  H19B 3150   2.738   0.038   6.982 -2.3493  0.8969 -0.4355
   43CHL1  H19C 3151   2.816   0.143   6.867  1.2613 -0.7677  0.2458
   43CHL1    C1 3152   2.572   0.222   6.987  0.1526  0.2834 -0.8297
   43CHL1   H1A 3153   2.531   0.120   6.998  3.1011 -0.8473  0.8493
   43CHL1   H1B 3154   2.511   0.281   7.059  0.0244  3.3100 -3.2394
   43CHL1    C2 3155   2.536   0.276   6.850  0.0117 -0.2816  0.2022
   43CHL1   H2A 3156   2.426   0.281   6.836 -0.0243 -2.5449 -1.0032
   43CHL1   H2B 3157   2.577   0.202   6.777  2.6364  0.5679  0.7007
   43CHL1   C20 3158   2.818   0.013   7.696  0.3176  0.0215  0.1402
   43CHL1   H20 3159   2.893  -0.057   7.653  2.7439  3.4167 -1.6354
   43CHL1   C21 3160   2.681  -0.065   7.698  0.2475 -0.0691 -0.4619
   43CHL1  H21A 3161   2.652  -0.092   7.595  1.3994 -2.9405 -0.1110
   43CHL1  H21B 3162   2.605  -0.005   7.754 -0.3507 -1.8910  0.7735
   43CHL1  H21C 3163   2.684  -0.164   7.748  0.8169 -0.8524 -2.0067
   43CHL1   C22 3164   2.860   0.045   7.844  0.0334  0.3120  0.1676
   43CHL1  H22A 3165   2.957   0.099   7.840 -0.7259  1.6618 -0.4661
   43CHL1  H22B 3166   2.785   0.103   7.902  0.3817 -0.1841  1.1539
   43CHL1   C23 3167   2.880  -0.085   7.929  0.0837 -0.1462  0.1735
   43CHL1  H23A 3168   2.781  -0.127   7.957 -0.5215  1.5884  0.7706
   43CHL1  H23B 3169   2.940  -0.159   7.872 -0.2150  0.0431 -0.3993
   43CHL1   C24 3170   2.942  -0.048   8.070  0.4247  0.4667 -0.1395
   43CHL1  H24A 3171   3.039   0.005   8.058  0.7311 -0.0947 -0.1786
   43CHL1  H24B 3172   2.866   0.020   8.116 -1.0486 -0.5063 -1.0487
   43CHL1   C25 3173   2.958  -0.160   8.177  1.1208 -0.5699 -0.4013
   43CHL1   H25 3174   2.858  -0.208   8.185  1.1733 -0.5230  0.6764
   43CHL1   C26 3175   3.061  -0.261   8.123  0.3689 -0.1419  0.0247
   43CHL1  H26A 3176   3.087  -0.335   8.202  0.7891 -0.0933 -0.0672
   43CHL1  H26B 3177   3.029  -0.312   8.029 -0.4805  1.1745 -0.4265
   43CHL1  H26C 3178   3.156  -0.206   8.113 -0.5665  1.6188  0.4548
   43CHL1   C27 3179   2.997  -0.112   8.319  0.7546 -0.0168 -0.1880
   43CHL1  H27A 3180   3.099  -0.067   8.317  0.5702  0.5067  0.9559
   43CHL1  H27B 3181   2.918  -0.039   8.348 -0.7836 -1.4925 -0.5919
   43CHL1  H27C 3182   2.990  -0.187   8.400 -3.1584  0.8006  0.4371
   44CHL1    C3 3183   2.993   5.984   6.492  0.7009  0.1377  0.2202
   44CHL1    H3 3184   2.934   5.902   6.539  0.6919  0.8476  1.5119
   44CHL1    O3 3185   2.941   6.030   6.368  0.5679  0.0899  0.3855
   44CHL1   H3' 3186   2.965   5.963   6.304 -0.3231 -0.4092  0.5570
   44CHL1    C4 3187   2.986   6.106   6.580 -0.6046  0.1124 -0.1859
   44CHL1   H4A 3188   3.034   6.189   6.523 -0.8307  0.3921  0.0281
   44CHL1   H4B 3189   2.878   6.131   6.586 -0.2733  1.6860 -0.3855
   44CHL1    C5 3190   3.043   6.076   6.720 -0.4482 -0.6475  0.1726
   44CHL1    C6 3191   2.970   6.103   6.826  0.3228  0.4297  0.3687
   44CHL1    H6 3192   2.869   6.146   6.818 -0.4619 -1.4110 -0.2595
   44CHL1    C7 3193   3.026   6.069   6.965 -0.5212 -0.1131 -0.4263
   44CHL1   H7A 3194   3.009   6.159   7.027 -0.4668  0.8669 -1.7788
   44CHL1   H7B 3195   2.972   5.981   7.005  0.2692 -0.5334 -0.2579
   44CHL1    C8 3196   3.179   6.035   6.969  0.6827  1.0115  0.1953
   44CHL1    H8 3197   3.239   6.127   6.956  0.9363  0.6530 -1.2653
   44CHL1   C14 3198   3.209   5.964   7.100  0.3702  0.6039 -0.0386
   44CHL1   H14 3199   3.150   5.871   7.116  1.2542 -0.2065 -1.3230
   44CHL1   C15 3200   3.168   6.032   7.229  0.6537 -0.2061 -0.5530
   44CHL1  H15A 3201   3.196   6.139   7.237  0.0223 -0.1198  0.8184
   44CHL1  H15B 3202   3.062   6.011   7.254 -0.0723  2.1086 -1.3610
   44CHL1   C16 3203   3.240   5.948   7.331 -0.1391 -0.4414  0.3550
   44CHL1  H16A 3204   3.276   6.009   7.417 -0.1629 -1.4913  1.1294
   44CHL1  H16B 3205   3.170   5.878   7.380 -0.6281  0.3316  0.7761
   44CHL1   C17 3206   3.353   5.867   7.257  0.4470  0.3832  0.5225
   44CHL1   H17 3207   3.309   5.765   7.250  0.9107  0.0677  1.9542
   44CHL1   C13 3208   3.356   5.925   7.112  0.1847 -0.5643 -0.6230
   44CHL1   C18 3209   3.446   6.052   7.096 -0.3263  1.1025 -0.4363
   44CHL1  H18A 3210   3.434   6.126   7.178  1.2850 -0.8309  1.6920
   44CHL1  H18B 3211   3.549   6.021   7.123 -0.6401 -0.0601 -0.5160
   44CHL1  H18C 3212   3.441   6.097   6.995 -1.0084 -1.3159 -1.5576
   44CHL1   C12 3213   3.386   5.816   7.000  0.2612 -0.1915 -0.7493
   44CHL1  H12A 3214   3.494   5.791   7.009  0.4358  1.3626  3.9785
   44CHL1  H12B 3215   3.317   5.730   7.007 -1.5378  1.2630  0.1824
   44CHL1   C11 3216   3.362   5.885   6.867 -0.1965  0.3389 -1.2338
   44CHL1  H11A 3217   3.441   5.962   6.854  0.5102 -0.3670 -1.1984
   44CHL1  H11B 3218   3.389   5.813   6.787 -0.4078 -0.6537 -0.4397
   44CHL1    C9 3219   3.223   5.948   6.854  0.0258 -0.2043 -0.5940
   44CHL1    H9 3220   3.156   5.861   6.872 -0.3618  0.5039  1.8227
   44CHL1   C10 3221   3.184   6.020   6.719 -0.3581  0.0639  0.4308
   44CHL1   C19 3222   3.291   6.134   6.694 -0.8275 -0.0487  0.1065
   44CHL1  H19A 3223   3.331   6.195   6.777  0.1207  0.0652 -0.4055
   44CHL1  H19B 3224   3.385   6.095   6.647  1.9065  3.1070  2.4400
   44CHL1  H19C 3225   3.238   6.192   6.615  1.4061  0.4061 -1.1693
   44CHL1    C1 3226   3.195   5.904   6.616  0.2168  0.0251  0.4297
   44CHL1   H1A 3227   3.298   5.871   6.590  0.0015 -0.9047  0.7073
   44CHL1   H1B 3228   3.145   5.813   6.655 -0.8660  0.3673 -0.1329
   44CHL1    C2 3229   3.136   5.938   6.477 -0.3197  0.5011  0.2617
   44CHL1   H2A 3230   3.133   5.851   6.408  0.8339  0.7348 -0.1103
   44CHL1   H2B 3231   3.202   6.017   6.436 -1.0734  1.2384  0.4603
   44CHL1   C20 3232   3.473   5.867   7.344  0.8170 -1.0521  0.3638
   44CHL1   H20 3233   3.506   5.972   7.355  0.5336 -0.6351 -2.1964
   44CHL1   C21 3234   3.596   5.799   7.284 -0.3539 -0.8739 -0.3426
   44CHL1  H21A 3235   3.551   5.715   7.228  0.5216 -1.6472  0.0794
   44CHL1  H21B 3236   3.665   5.762   7.363  1.7196  1.1201 -1.0769
   44CHL1  H21C 3237   3.649   5.871   7.217 -3.0668  1.1387 -0.4608
   44CHL1   C22 3238   3.449   5.802   7.486  0.1264  0.5383  0.8533
   44CHL1  H22A 3239   3.346   5.807   7.527  0.2885 -2.4701  1.8609
   44CHL1  H22B 3240   3.477   5.695   7.482  0.1801  0.5716  0.3235
   44CHL1   C23 3241   3.536   5.860   7.599  0.0459 -0.0810 -0.1998
   44CHL1  H23A 3242   3.632   5.851   7.544 -0.9056 -2.0371 -1.6694
   44CHL1  H23B 3243   3.510   5.965   7.624  1.2822  0.3044 -0.4470
   44CHL1   C24 3244   3.533   5.771   7.721 -0.3256  0.2171 -0.0493
   44CHL1  H24A 3245   3.434   5.778   7.772 -0.4014 -0.8730 -0.0160
   44CHL1  H24B 3246   3.545   5.666   7.686 -0.6419  0.4726 -0.9596
   44CHL1   C25 3247   3.647   5.811   7.824  0.3232  0.1456  0.1901
   44CHL1   H25 3248   3.749   5.796   7.780 -0.4838 -2.2838 -1.0350
   44CHL1   C26 3249   3.615   5.959   7.872  0.0356  0.9079 -0.4688
   44CHL1  H26A 3250   3.615   6.031   7.787  0.6997  0.3381 -0.9712
   44CHL1  H26B 3251   3.524   5.956   7.935  1.1923 -2.8235  1.3068
   44CHL1  H26C 3252   3.704   5.979   7.936  0.0610 -0.5505 -0.0140
   44CHL1   C27 3253   3.651   5.710   7.944  0.0952  0.2831 -0.3744
   44CHL1  H27A 3254   3.557   5.708   8.004 -0.3395 -0.2450 -1.0575
   44CHL1  H27B 3255   3.687   5.607   7.924 -0.0577  0.2233 -0.3417
   44CHL1  H27C 3256   3.726   5.754   8.014 -0.1847  0.1928 -0.0134
   45CHL1    C3 3257   4.505   4.386   6.739 -0.0805 -0.4553 -0.5153
   45CHL1    H3 3258   4.399   4.392   6.708  0.1039 -2.4377 -1.6303
   45CHL1    O3 3259   4.591   4.441   6.633  0.0560 -0.1401  0.2128
   45CHL1   H3' 3260   4.643   4.368   6.599 -1.3121 -1.3547  0.6318
   45CHL1    C4 3261   4.534   4.470   6.868  0.0025 -0.8759  0.2073
   45CHL1   H4A 3262   4.642   4.483   6.886 -0.3134 -0.0212  1.6621
   45CHL1   H4B 3263   4.500   4.573   6.847 -1.7183 -1.2768  0.8354
   45CHL1    C5 3264   4.471   4.420   6.994  0.5970  0.7112  0.2705
   45CHL1    C6 3265   4.409   4.498   7.078  0.3334 -0.2088 -0.3102
   45CHL1    H6 3266   4.404   4.606   7.058 -2.7033  0.1136  1.5107
   45CHL1    C7 3267   4.336   4.458   7.200 -0.1583 -0.4176 -0.0172
   45CHL1   H7A 3268   4.350   4.529   7.285  1.4756 -3.6238  2.6459
   45CHL1   H7B 3269   4.230   4.481   7.177 -0.3836 -2.5015 -1.3554
   45CHL1    C8 3270   4.363   4.310   7.249  0.3273 -0.1186 -0.1089
   45CHL1    H8 3271   4.453   4.318   7.312  0.7909  0.1397 -0.7899
   45CHL1   C14 3272   4.253   4.260   7.351  0.1073  0.7564  0.8644
   45CHL1   H14 3273   4.157   4.275   7.297 -0.3313  1.4662  1.8156
   45CHL1   C15 3274   4.225   4.344   7.477  0.2054  0.3058 -0.1406
   45CHL1  H15A 3275   4.324   4.364   7.525  0.1109 -0.6458  0.4608
   45CHL1  H15B 3276   4.180   4.440   7.443  2.3548  1.2416 -0.5097
   45CHL1   C16 3277   4.134   4.245   7.560 -0.6907 -0.8226  0.8844
   45CHL1  H16A 3278   4.190   4.243   7.656  2.7267 -3.0148 -0.9666
   45CHL1  H16B 3279   4.028   4.271   7.582 -0.4743  0.3532  0.6321
   45CHL1   C17 3280   4.148   4.103   7.493  0.5650  0.8555 -0.0759
   45CHL1   H17 3281   4.057   4.095   7.429  0.6508 -0.0849 -0.0989
   45CHL1   C13 3282   4.268   4.119   7.400 -0.4098  0.3693  0.4491
   45CHL1   C18 3283   4.396   4.107   7.484 -0.3974  0.1000  0.4841
   45CHL1  H18A 3284   4.401   4.005   7.528  1.1350 -1.1633 -2.3944
   45CHL1  H18B 3285   4.485   4.127   7.421  0.2877  1.5864  1.8594
   45CHL1  H18C 3286   4.398   4.179   7.569  0.2638  0.8918 -0.1932
   45CHL1   C12 3287   4.264   4.027   7.272 -0.7851 -0.4948  0.5245
   45CHL1  H12A 3288   4.282   3.921   7.301  2.2899  0.2417  1.7589
   45CHL1  H12B 3289   4.166   4.037   7.221 -0.4189 -1.7114 -0.4592
   45CHL1   C11 3290   4.380   4.058   7.182  0.4831  0.0386  0.0081
   45CHL1  H11A 3291   4.478   4.054   7.233  0.9144  1.3272 -0.6713
   45CHL1  H11B 3292   4.381   3.990   7.094 -0.2338  0.2179 -0.1426
   45CHL1    C9 3293   4.374   4.207   7.130  0.3026 -0.9027  0.4905
   45CHL1    H9 3294   4.281   4.220   7.072  0.9087  0.2669 -0.2568
   45CHL1   C10 3295   4.475   4.257   7.023 -0.1534 -0.8935 -0.2109
   45CHL1   C19 3296   4.622   4.231   7.074 -0.1084  0.0326 -0.2866
   45CHL1  H19A 3297   4.646   4.299   7.159  0.6380 -1.1912  0.5060
   45CHL1  H19B 3298   4.643   4.124   7.093 -0.3578 -0.0464 -0.4419
   45CHL1  H19C 3299   4.695   4.262   6.996  1.8096  0.1142  1.4623
   45CHL1    C1 3300   4.458   4.193   6.884  1.2282  0.2351 -0.1224
   45CHL1   H1A 3301   4.479   4.084   6.888  2.7256  0.5010 -0.1483
   45CHL1   H1B 3302   4.352   4.206   6.853  1.4861  2.5890 -0.1591
   45CHL1    C2 3303   4.547   4.241   6.769 -0.8655 -0.2932  0.1881
   45CHL1   H2A 3304   4.526   4.187   6.675  1.6685 -0.9315 -0.1000
   45CHL1   H2B 3305   4.652   4.223   6.801 -0.2193  1.8264 -0.6043
   45CHL1   C20 3306   4.140   3.979   7.592 -0.0531 -0.1325  0.1739
   45CHL1   H20 3307   4.230   3.974   7.656 -0.4601 -2.1349  0.6501
   45CHL1   C21 3308   4.126   3.850   7.502 -0.1936  0.8239 -0.2350
   45CHL1  H21A 3309   4.218   3.819   7.447 -0.1965  1.2980 -0.5118
   45CHL1  H21B 3310   4.053   3.870   7.421 -0.7677  0.5221  0.1994
   45CHL1  H21C 3311   4.088   3.768   7.567 -1.2059  0.2997 -1.4438
   45CHL1   C22 3312   4.015   3.990   7.683  0.6476 -0.5077 -0.1029
   45CHL1  H22A 3313   4.004   4.094   7.721  4.6836 -0.5107  1.5970
   45CHL1  H22B 3314   3.937   3.962   7.609 -1.1212 -0.2292  1.5835
   45CHL1   C23 3315   4.001   3.893   7.799  0.4357  0.3856 -0.5282
   45CHL1  H23A 3316   4.009   3.787   7.769 -0.1393 -0.1000  0.9517
   45CHL1  H23B 3317   4.081   3.904   7.876 -1.9114 -0.2751  2.1958
   45CHL1   C24 3318   3.870   3.930   7.873 -0.2699  0.2002  0.3654
   45CHL1  H24A 3319   3.868   4.037   7.904  0.8763  0.0661  0.9565
   45CHL1  H24B 3320   3.796   3.931   7.790 -0.6998 -0.1845  0.7405
   45CHL1   C25 3321   3.831   3.845   7.991 -1.2300 -0.3124 -1.3085
   45CHL1   H25 3322   3.825   3.737   7.964  2.1656 -1.3538  1.2968
   45CHL1   C26 3323   3.935   3.867   8.105 -0.3303 -0.0537  0.1655
   45CHL1  H26A 3324   3.895   3.827   8.201  0.9906  1.5860  1.4569
   45CHL1  H26B 3325   4.031   3.816   8.082  0.6570  0.4862  2.7316
   45CHL1  H26C 3326   3.939   3.976   8.126 -1.3696  0.1051 -0.3455
   45CHL1   C27 3327   3.689   3.877   8.042  0.5875 -0.3309 -0.1190
   45CHL1  H27A 3328   3.698   3.985   8.067 -1.2982  0.0104 -0.7908
   45CHL1  H27B 3329   3.622   3.865   7.954  1.0884  0.6430 -0.6492
   45CHL1  H27C 3330   3.655   3.832   8.137 -1.8556  1.7527  0.0761
   46CHL1    C3 3331   4.178   6.670   6.931  0.1224  0.5355  0.3136
   46CHL1    H3 3332   4.112   6.756   6.954 -1.3904 -1.1200  2.6867
   46CHL1    O3 3333   4.181   6.634   6.791 -0.5178 -0.5121  0.0254
   46CHL1   H3' 3334   4.238   6.557   6.789  0.5218  0.2356  0.2031
   46CHL1    C4 3335   4.326   6.691   6.979  0.1052 -0.2551 -0.0635
   46CHL1   H4A 3336   4.376   6.600   6.938 -0.8153 -0.3678 -0.9642
   46CHL1   H4B 3337   4.363   6.780   6.924  2.8128 -0.3402  1.4438
   46CHL1    C5 3338   4.331   6.702   7.132 -0.3507 -0.2960  0.3235
   46CHL1    C6 3339   4.393   6.806   7.185 -0.1767  0.2460 -0.3372
   46CHL1    H6 3340   4.453   6.876   7.125  0.5296  1.0668  1.2873
   46CHL1    C7 3341   4.400   6.825   7.331 -0.3400 -0.4183  0.3302
   46CHL1   H7A 3342   4.499   6.870   7.354 -0.7334 -0.0670  1.3538
   46CHL1   H7B 3343   4.328   6.903   7.363  0.6940 -0.1212  2.0122
   46CHL1    C8 3344   4.362   6.708   7.420  0.5358 -0.4447 -0.1684
   46CHL1    H8 3345   4.449   6.638   7.421  0.3359 -0.7629  2.5800
   46CHL1   C14 3346   4.339   6.756   7.563  0.7736 -0.3760 -0.1809
   46CHL1   H14 3347   4.252   6.825   7.551 -0.7367 -2.5505 -2.9974
   46CHL1   C15 3348   4.447   6.841   7.627  0.2466  0.0900  0.1936
   46CHL1  H15A 3349   4.546   6.818   7.582  0.0176 -0.0343 -0.2485
   46CHL1  H15B 3350   4.433   6.950   7.608 -0.5010 -0.3134 -1.8123
   46CHL1   C16 3351   4.433   6.813   7.774 -0.9879  0.2791  0.9975
   46CHL1  H16A 3352   4.528   6.768   7.808 -0.5414  0.8661  0.5498
   46CHL1  H16B 3353   4.432   6.910   7.828  1.9920  0.0718  1.5890
   46CHL1   C17 3354   4.310   6.724   7.798 -0.5142  0.6622  0.1651
   46CHL1   H17 3355   4.219   6.788   7.795 -0.1406  1.1384 -1.9801
   46CHL1   C13 3356   4.305   6.645   7.659 -0.5802 -0.1085 -0.2118
   46CHL1   C18 3357   4.413   6.531   7.663  0.0741 -0.5839 -0.0610
   46CHL1  H18A 3358   4.392   6.442   7.727  0.9693 -2.9061 -2.7596
   46CHL1  H18B 3359   4.431   6.496   7.559 -0.2562  1.0531 -0.7067
   46CHL1  H18C 3360   4.506   6.583   7.694 -0.5478  0.0214  0.8442
   46CHL1   C12 3361   4.166   6.582   7.606  0.1666  0.6322 -0.3093
   46CHL1  H12A 3362   4.132   6.497   7.670  0.2442 -0.0608 -1.1632
   46CHL1  H12B 3363   4.083   6.656   7.605 -0.9645 -0.4564 -3.6965
   46CHL1   C11 3364   4.180   6.535   7.458  0.7414  0.5122 -0.2453
   46CHL1  H11A 3365   4.251   6.450   7.454  1.3240  0.9967 -0.3844
   46CHL1  H11B 3366   4.082   6.500   7.418  1.5944 -1.9244 -0.3632
   46CHL1    C9 3367   4.235   6.647   7.364  0.1441 -0.0536  0.4028
   46CHL1    H9 3368   4.159   6.728   7.362 -0.2305 -0.4089 -0.6958
   46CHL1   C10 3369   4.257   6.596   7.221  0.2402  0.3455  0.8504
   46CHL1   C19 3370   4.352   6.469   7.210 -0.2493  0.7646 -0.0588
   46CHL1  H19A 3371   4.452   6.469   7.258 -0.4143 -0.9619  0.3365
   46CHL1  H19B 3372   4.303   6.379   7.254 -0.4586  1.4439  1.1370
   46CHL1  H19C 3373   4.363   6.445   7.102  1.2218 -2.3555  0.6714
   46CHL1    C1 3374   4.125   6.561   7.147 -0.1536  0.0309 -0.4969
   46CHL1   H1A 3375   4.080   6.467   7.188 -3.1300  0.8083 -1.7208
   46CHL1   H1B 3376   4.046   6.638   7.158 -1.2890 -0.9341 -1.5048
   46CHL1    C2 3377   4.134   6.534   6.994 -0.4449 -0.4779 -0.5296
   46CHL1   H2A 3378   4.033   6.495   6.968 -0.4411 -0.2108 -0.9549
   46CHL1   H2B 3379   4.210   6.459   6.964  0.2732  0.8255 -2.0645
   46CHL1   C20 3380   4.325   6.651   7.929 -0.0837  0.2251  0.0179
   46CHL1   H20 3381   4.421   6.596   7.936 -0.0034  0.5349  1.5995
   46CHL1   C21 3382   4.212   6.551   7.959 -0.1559  0.3492  0.7311
   46CHL1  H21A 3383   4.190   6.482   7.875 -0.5911 -0.1653  1.2647
   46CHL1  H21B 3384   4.113   6.602   7.954  0.0154  0.6247 -2.8926
   46CHL1  H21C 3385   4.223   6.494   8.053 -0.2268 -1.3956 -0.2787
   46CHL1   C22 3386   4.335   6.750   8.052 -0.3599 -0.0609  0.6532
   46CHL1  H22A 3387   4.340   6.691   8.145 -0.1358 -0.7882  0.1862
   46CHL1  H22B 3388   4.432   6.803   8.038 -0.6746  0.2753 -0.4517
   46CHL1   C23 3389   4.225   6.856   8.056  0.6229 -0.3244  0.6575
   46CHL1  H23A 3390   4.226   6.925   7.969  0.0465 -2.0064 -0.7515
   46CHL1  H23B 3391   4.127   6.805   8.048  2.0993 -3.2802 -0.5025
   46CHL1   C24 3392   4.233   6.932   8.193 -0.5322  0.5062  0.3893
   46CHL1  H24A 3393   4.193   6.871   8.278  1.5175 -1.0435  0.3139
   46CHL1  H24B 3394   4.336   6.967   8.213 -0.4498  0.6497 -0.2616
   46CHL1   C25 3395   4.145   7.066   8.200 -0.2080  0.5126  0.0120
   46CHL1   H25 3396   4.209   7.147   8.161 -0.2666  1.1235  1.1324
   46CHL1   C26 3397   4.013   7.054   8.120 -0.4287 -0.0550 -0.3332
   46CHL1  H26A 3398   4.035   7.043   8.012  0.6415  0.6707 -0.2023
   46CHL1  H26B 3399   3.953   6.967   8.154  0.6481 -0.6316  0.1522
   46CHL1  H26C 3400   3.969   7.154   8.141  0.4154  0.0140  1.2573
   46CHL1   C27 3401   4.107   7.101   8.343 -0.6525 -0.9629 -0.2799
   46CHL1  H27A 3402   4.193   7.143   8.400  0.4777  0.7817 -3.0252
   46CHL1  H27B 3403   4.025   7.176   8.338  2.8828  3.3209 -0.4965
   46CHL1  H27C 3404   4.059   7.016   8.394  0.0086 -0.3625  1.4056
   47CHL1    C3 3405   5.077   4.914   7.114  0.0688  0.2790 -0.0107
   47CHL1    H3 3406   5.136   4.826   7.081 -1.1236 -0.6591  0.2662
   47CHL1    O3 3407   5.005   4.959   7.000  0.0394  0.0148 -0.3841
   47CHL1   H3' 3408   4.930   4.903   6.979 -0.4308  0.9015 -1.1454
   47CHL1    C4 3409   4.970   4.872   7.213  0.1491  0.2371 -1.2971
   47CHL1   H4A 3410   4.905   4.961   7.232  1.2752  1.4708 -2.9543
   47CHL1   H4B 3411   4.903   4.792   7.175  0.7609 -1.3119  0.7661
   47CHL1    C5 3412   5.032   4.819   7.337 -0.1170  0.2978 -0.4406
   47CHL1    C6 3413   5.024   4.688   7.375  0.4239  0.0412  0.0771
   47CHL1    H6 3414   4.973   4.604   7.325  4.7506 -1.9469 -1.4324
   47CHL1    C7 3415   5.092   4.643   7.510 -0.3647 -0.2290 -0.0031
   47CHL1   H7A 3416   5.014   4.585   7.565 -0.8020 -1.1884 -1.5706
   47CHL1   H7B 3417   5.185   4.585   7.493 -0.2684 -0.4358  1.1088
   47CHL1    C8 3418   5.123   4.754   7.614 -0.2443 -0.4427  0.1324
   47CHL1    H8 3419   5.028   4.788   7.658  0.4041 -1.8863  2.9016
   47CHL1   C14 3420   5.221   4.705   7.715 -0.1246 -0.1159 -0.4868
   47CHL1   H14 3421   5.315   4.679   7.663 -0.2140  1.1768 -1.3403
   47CHL1   C15 3422   5.196   4.586   7.810  0.2700 -1.1521  0.4060
   47CHL1  H15A 3423   5.094   4.568   7.849 -0.0549  1.0490  0.6981
   47CHL1  H15B 3424   5.228   4.493   7.758 -0.9635 -0.2466 -2.1249
   47CHL1   C16 3425   5.299   4.610   7.930 -0.0316  0.0119 -0.0410
   47CHL1  H16A 3426   5.237   4.602   8.022 -0.2260  1.2465 -0.0391
   47CHL1  H16B 3427   5.376   4.530   7.935  0.2808  0.1344 -2.0594
   47CHL1   C17 3428   5.369   4.743   7.906 -0.0284 -0.3706  0.0123
   47CHL1   H17 3429   5.453   4.724   7.836  0.5701  2.1540 -0.0725
   47CHL1   C13 3430   5.273   4.821   7.810 -0.0557 -0.7396 -0.7630
   47CHL1   C18 3431   5.152   4.871   7.886 -0.2227 -0.5001  0.4012
   47CHL1  H18A 3432   5.102   4.799   7.953 -1.4530  0.6794  0.8057
   47CHL1  H18B 3433   5.187   4.959   7.943 -1.9511  0.4204  0.1253
   47CHL1  H18C 3434   5.069   4.907   7.820 -0.1310 -2.9826 -1.1992
   47CHL1   C12 3435   5.347   4.929   7.722  0.3291 -0.0116 -0.1418
   47CHL1  H12A 3436   5.375   5.011   7.792 -2.7628  1.6227 -0.6417
   47CHL1  H12B 3437   5.441   4.888   7.679  1.2258 -0.4338  2.0495
   47CHL1   C11 3438   5.250   4.981   7.614 -0.2645  0.3667 -0.6599
   47CHL1  H11A 3439   5.172   5.034   7.672  1.8560  0.4559  2.3576
   47CHL1  H11B 3440   5.298   5.055   7.546  1.0730 -0.9993 -1.2850
   47CHL1    C9 3441   5.192   4.867   7.525 -0.2405  0.0173  0.0530
   47CHL1    H9 3442   5.279   4.815   7.480 -0.1002  0.2900  0.0042
   47CHL1   C10 3443   5.113   4.926   7.405  0.3094 -0.2820  0.4407
   47CHL1   C19 3444   5.021   5.033   7.465 -0.1346 -0.4083 -0.1767
   47CHL1  H19A 3445   4.941   5.073   7.399 -0.3338  2.2356  1.5097
   47CHL1  H19B 3446   4.966   4.986   7.550  0.7119  0.3679  0.8289
   47CHL1  H19C 3447   5.070   5.115   7.522 -1.7656  1.1485 -0.9122
   47CHL1    C1 3448   5.217   4.975   7.309  0.2020  0.1781 -0.0910
   47CHL1   H1A 3449   5.259   5.068   7.352 -1.4283  0.6550  0.5526
   47CHL1   H1B 3450   5.293   4.898   7.285  0.4480  0.6853 -1.0054
   47CHL1    C2 3451   5.158   5.028   7.177  0.1614  0.0521 -0.0403
   47CHL1   H2A 3452   5.232   5.055   7.098  2.0066 -1.6844  0.9808
   47CHL1   H2B 3453   5.094   5.115   7.198 -2.5610 -1.2564 -2.2541
   47CHL1   C20 3454   5.434   4.807   8.024  1.1376  0.3409  0.2266
   47CHL1   H20 3455   5.473   4.905   7.988 -2.2431  1.2085 -1.4577
   47CHL1   C21 3456   5.547   4.715   8.079  0.5144 -0.1639 -0.5385
   47CHL1  H21A 3457   5.622   4.679   8.006 -1.1941  1.0774 -3.0410
   47CHL1  H21B 3458   5.494   4.625   8.115 -2.3474  1.7657  0.4117
   47CHL1  H21C 3459   5.598   4.764   8.165  1.2873 -3.3964  1.0112
   47CHL1   C22 3460   5.339   4.850   8.142  0.1119  0.4164  0.3954
   47CHL1  H22A 3461   5.231   4.839   8.116 -0.8250  5.2744  1.1828
   47CHL1  H22B 3462   5.354   4.775   8.221  1.6904  0.7504  0.4331
   47CHL1   C23 3463   5.370   4.990   8.196  0.6434  0.1893  0.6688
   47CHL1  H23A 3464   5.470   4.974   8.240  0.2791 -1.4416  0.9394
   47CHL1  H23B 3465   5.377   5.071   8.119 -0.3442  0.4457  0.8353
   47CHL1   C24 3466   5.284   5.021   8.317  0.6384 -0.5165 -0.5886
   47CHL1  H24A 3467   5.180   5.047   8.288  0.6750 -0.8045 -0.9958
   47CHL1  H24B 3468   5.260   4.934   8.382 -0.9484 -2.7960 -3.9160
   47CHL1   C25 3469   5.339   5.140   8.398 -0.1860  0.0629  0.2465
   47CHL1   H25 3470   5.348   5.227   8.329  3.0010 -1.3605 -1.3313
   47CHL1   C26 3471   5.232   5.179   8.499  0.4809  0.0127  0.5151
   47CHL1  H26A 3472   5.268   5.251   8.575  1.7045  1.7932 -1.6550
   47CHL1  H26B 3473   5.143   5.224   8.449  0.4680 -0.2946  0.2591
   47CHL1  H26C 3474   5.200   5.090   8.558  1.0825 -0.6046 -0.0766
   47CHL1   C27 3475   5.485   5.117   8.456  0.5660 -0.2081  0.9020
   47CHL1  H27A 3476   5.559   5.107   8.374  0.5423  3.6238  0.2438
   47CHL1  H27B 3477   5.502   5.216   8.503 -1.6934  0.5042  0.3359
   47CHL1  H27C 3478   5.478   5.036   8.531  1.1290 -2.1716 -1.0600
   48CHL1    C3 3479   6.560   1.457   6.826 -0.9404 -0.4720  0.0248
   48CHL1    H3 3480   6.515   1.355   6.821 -0.6135 -0.6996  1.3917
   48CHL1    O3 3481   6.569   1.504   6.689  0.4580  0.3643  0.0723
   48CHL1   H3' 3482   6.606   1.429   6.642  1.0192 -0.4967  1.7799
   48CHL1    C4 3483   6.453   1.543   6.906  0.1111 -0.2334 -0.2778
   48CHL1   H4A 3484   6.480   1.651   6.912 -0.2044 -0.0592 -1.6548
   48CHL1   H4B 3485   6.360   1.530   6.847  1.0563 -0.5014 -1.7509
   48CHL1    C5 3486   6.443   1.502   7.052  0.5735  0.6148 -0.7780
   48CHL1    C6 3487   6.320   1.489   7.108 -0.5543 -0.0689  0.2397
   48CHL1    H6 3488   6.237   1.507   7.038 -0.8327 -1.4077  0.1946
   48CHL1    C7 3489   6.292   1.448   7.246  0.0086 -0.0211 -0.0975
   48CHL1   H7A 3490   6.210   1.511   7.286 -2.2142 -1.0790 -2.7201
   48CHL1   H7B 3491   6.245   1.348   7.241 -1.0515  0.4644  0.0110
   48CHL1    C8 3492   6.423   1.462   7.339  0.5018 -0.0004  0.1382
   48CHL1    H8 3493   6.437   1.571   7.354 -0.1682  0.1969 -0.6352
   48CHL1   C14 3494   6.407   1.386   7.471  0.0919 -0.1118 -0.6777
   48CHL1   H14 3495   6.411   1.282   7.432 -0.0492  0.3101 -1.8659
   48CHL1   C15 3496   6.281   1.409   7.561 -0.0074  0.3484  0.5928
   48CHL1  H15A 3497   6.281   1.518   7.582  1.4880  0.7617 -1.3025
   48CHL1  H15B 3498   6.181   1.384   7.519  0.8805 -0.5433 -1.0767
   48CHL1   C16 3499   6.313   1.340   7.694 -0.9585 -0.1755 -0.2251
   48CHL1  H16A 3500   6.307   1.409   7.781  0.8781 -0.0240 -0.1825
   48CHL1  H16B 3501   6.237   1.260   7.704 -0.6068 -0.7074 -1.5826
   48CHL1   C17 3502   6.464   1.298   7.684  0.2064  0.5988 -0.6901
   48CHL1   H17 3503   6.479   1.199   7.637  1.1049 -1.5053  3.5606
   48CHL1   C13 3504   6.528   1.387   7.567 -0.2912  0.0355  0.6478
   48CHL1   C18 3505   6.556   1.530   7.618 -0.2215 -0.1214  0.4129
   48CHL1  H18A 3506   6.647   1.532   7.683 -0.8893  1.1959  1.3450
   48CHL1  H18B 3507   6.579   1.588   7.526 -0.7049 -1.5025 -0.6026
   48CHL1  H18C 3508   6.472   1.568   7.680 -1.0430 -2.3044  0.7468
   48CHL1   C12 3509   6.643   1.327   7.486 -0.3953  0.2435 -0.3810
   48CHL1  H12A 3510   6.737   1.325   7.545 -1.4209 -1.3856  1.3116
   48CHL1  H12B 3511   6.622   1.219   7.472 -4.1967  1.0269 -1.7652
   48CHL1   C11 3512   6.676   1.407   7.363 -0.3057  0.1556 -0.7402
   48CHL1  H11A 3513   6.704   1.512   7.387  2.0907 -0.5977 -0.0421
   48CHL1  H11B 3514   6.752   1.348   7.307 -0.7539 -1.7173  0.5292
   48CHL1    C9 3515   6.555   1.415   7.262  0.5210 -0.7958  0.3171
   48CHL1    H9 3516   6.525   1.312   7.235 -2.7391 -0.5747  2.4276
   48CHL1   C10 3517   6.582   1.476   7.122  0.1363  0.0689  0.4927
   48CHL1   C19 3518   6.644   1.618   7.152 -0.3207  0.0153 -0.3668
   48CHL1  H19A 3519   6.576   1.686   7.208 -1.7041  1.2604 -3.3200
   48CHL1  H19B 3520   6.749   1.605   7.187 -0.5063  0.5587  0.4292
   48CHL1  H19C 3521   6.658   1.671   7.055  0.6008 -0.7799 -0.6850
   48CHL1    C1 3522   6.691   1.399   7.041 -0.0604  0.5246  0.4296
   48CHL1   H1A 3523   6.786   1.393   7.098  0.0183 -0.8367  0.1730
   48CHL1   H1B 3524   6.659   1.294   7.023  0.8452  0.5098 -1.4093
   48CHL1    C2 3525   6.696   1.458   6.891 -0.2489  0.6468  0.0938
   48CHL1   H2A 3526   6.759   1.394   6.825  0.6705  1.0466  0.5701
   48CHL1   H2B 3527   6.728   1.564   6.892  0.4340  0.4642 -0.9732
   48CHL1   C20 3528   6.529   1.294   7.825 -0.3575  0.4865 -0.2612
   48CHL1   H20 3529   6.536   1.396   7.868  0.8818 -0.4892  2.0215
   48CHL1   C21 3530   6.681   1.261   7.811 -0.1559 -0.2508 -0.4023
   48CHL1  H21A 3531   6.721   1.227   7.909  1.0398  1.0109 -0.4150
   48CHL1  H21B 3532   6.732   1.358   7.791  0.1078 -0.1784  0.5328
   48CHL1  H21C 3533   6.710   1.191   7.731 -0.4269 -1.1435  0.2586
   48CHL1   C22 3534   6.450   1.208   7.927  0.0403 -0.0404  0.7829
   48CHL1  H22A 3535   6.343   1.192   7.901 -0.2463  2.0533  0.4887
   48CHL1  H22B 3536   6.498   1.109   7.941 -0.1866 -0.2752 -0.0298
   48CHL1   C23 3537   6.451   1.279   8.065 -0.3582 -0.2049  0.2841
   48CHL1  H23A 3538   6.552   1.286   8.110 -0.4497  1.2830  0.3213
   48CHL1  H23B 3539   6.426   1.387   8.053  3.8352  0.7692 -1.5858
   48CHL1   C24 3540   6.337   1.220   8.159  0.4743  0.3876 -0.2700
   48CHL1  H24A 3541   6.315   1.283   8.247  0.8386 -2.4448  2.0136
   48CHL1  H24B 3542   6.243   1.204   8.102 -0.5580  1.1109  1.1732
   48CHL1   C25 3543   6.357   1.072   8.206  0.5166 -0.5374  0.4720
   48CHL1   H25 3544   6.385   1.014   8.115  3.2586 -0.8515  1.4089
   48CHL1   C26 3545   6.469   1.049   8.303  0.0967  0.3734  0.0750
   48CHL1  H26A 3546   6.444   1.106   8.395  1.7597 -0.5498  1.1598
   48CHL1  H26B 3547   6.483   0.940   8.317  1.1609 -0.1463 -3.9209
   48CHL1  H26C 3548   6.567   1.083   8.262 -0.8718  0.0976 -2.6681
   48CHL1   C27 3549   6.226   1.018   8.258  0.5233  0.1516  0.3014
   48CHL1  H27A 3550   6.245   0.918   8.303 -0.3626  0.4650  1.4336
   48CHL1  H27B 3551   6.169   1.084   8.327 -1.0860  0.7448 -1.5148
   48CHL1  H27C 3552   6.161   0.999   8.170 -1.0041 -1.4773  1.6985
   49CHL1    C3 3553   3.977   2.759   6.865 -0.7476 -0.1115 -0.8624
   49CHL1    H3 3554   4.067   2.824   6.857 -0.7441 -0.3328 -3.4862
   49CHL1    O3 3555   3.935   2.696   6.745 -0.5329 -0.5398 -0.3178
   49CHL1   H3' 3556   3.909   2.771   6.690 -0.5236  1.3360  2.0609
   49CHL1    C4 3557   3.996   2.650   6.973  0.1446 -0.0154 -0.3637
   49CHL1   H4A 3558   3.916   2.573   6.967 -0.8476  0.7943  1.6170
   49CHL1   H4B 3559   4.086   2.595   6.937 -1.9445 -4.8689  1.0604
   49CHL1    C5 3560   4.008   2.696   7.119 -0.4014 -0.2682  0.3758
   49CHL1    C6 3561   4.113   2.656   7.193 -0.8977 -0.4626  0.4596
   49CHL1    H6 3562   4.192   2.590   7.155  0.0165  1.3273 -0.8548
   49CHL1    C7 3563   4.132   2.695   7.340  0.2647 -0.0810  0.1916
   49CHL1   H7A 3564   4.166   2.605   7.396 -1.5198 -0.7573  0.2572
   49CHL1   H7B 3565   4.215   2.769   7.339 -0.2253  0.4765  0.3937
   49CHL1    C8 3566   4.000   2.741   7.397  0.7262 -0.3962  0.1926
   49CHL1    H8 3567   3.934   2.653   7.410  0.5452 -0.2974 -0.0377
   49CHL1   C14 3568   4.019   2.805   7.536 -0.7371  0.3800  0.0867
   49CHL1   H14 3569   4.073   2.901   7.525 -1.5861  0.6930 -1.5746
   49CHL1   C15 3570   4.108   2.740   7.642 -0.4985 -0.0193 -0.5058
   49CHL1  H15A 3571   4.076   2.634   7.654 -3.3947  0.8187  0.1083
   49CHL1  H15B 3572   4.217   2.744   7.622 -0.9522  0.4309 -3.4264
   49CHL1   C16 3573   4.066   2.822   7.773 -0.1986  1.0906  0.1448
   49CHL1  H16A 3574   4.032   2.748   7.850  1.5401  0.9376  0.8023
   49CHL1  H16B 3575   4.155   2.873   7.815  1.0729 -0.6534 -0.3659
   49CHL1   C17 3576   3.941   2.909   7.741 -0.4751 -0.0206 -0.5362
   49CHL1   H17 3577   3.989   3.006   7.717  0.7402 -1.0051 -2.3773
   49CHL1   C13 3578   3.889   2.850   7.608 -0.1092  0.9922  0.1800
   49CHL1   C18 3579   3.796   2.727   7.630  0.4919  0.3863 -0.0450
   49CHL1  H18A 3580   3.760   2.674   7.540 -3.5257 -1.1940  2.2641
   49CHL1  H18B 3581   3.841   2.644   7.688 -0.0513 -0.4133 -0.7442
   49CHL1  H18C 3582   3.705   2.767   7.680 -0.4270  2.3878 -3.0270
   49CHL1   C12 3583   3.826   2.959   7.517 -0.2130  0.8231  0.3525
   49CHL1  H12A 3584   3.724   2.985   7.555 -0.3098 -1.1715  1.5947
   49CHL1  H12B 3585   3.883   3.054   7.512  0.8088  0.3719  2.2923
   49CHL1   C11 3586   3.802   2.912   7.370 -0.1485 -0.0650 -0.3717
   49CHL1  H11A 3587   3.711   2.850   7.370 -0.9182  0.9388  1.9253
   49CHL1  H11B 3588   3.776   3.000   7.307  1.1320  0.3118 -0.4079
   49CHL1    C9 3589   3.919   2.840   7.302 -0.2617 -0.4382 -0.0690
   49CHL1    H9 3590   4.000   2.915   7.291  1.4842 -2.2174 -0.0124
   49CHL1   C10 3591   3.891   2.780   7.167 -0.1922  0.2584  0.2507
   49CHL1   C19 3592   3.768   2.696   7.174  0.4041  0.5195 -0.2754
   49CHL1  H19A 3593   3.683   2.765   7.191  1.5514  1.7055  0.8306
   49CHL1  H19B 3594   3.744   2.642   7.079  3.3135  2.5240 -2.3030
   49CHL1  H19C 3595   3.789   2.629   7.261  1.9130  0.8164 -0.3871
   49CHL1    C1 3596   3.872   2.893   7.051 -0.7696  0.0330 -0.9261
   49CHL1   H1A 3597   3.774   2.940   7.078 -0.9141 -1.4282  1.3876
   49CHL1   H1B 3598   3.953   2.969   7.051 -1.4299  0.7599 -1.1574
   49CHL1    C2 3599   3.861   2.852   6.905  0.0707  0.7507  0.4152
   49CHL1   H2A 3600   3.851   2.935   6.832 -1.2390  0.7523  0.5689
   49CHL1   H2B 3601   3.769   2.793   6.887  1.0788 -0.9564  0.6536
   49CHL1   C20 3602   3.851   2.917   7.863  0.5160 -0.0299 -0.3386
   49CHL1   H20 3603   3.826   2.813   7.893  0.0253 -0.1811 -1.2330
   49CHL1   C21 3604   3.729   2.992   7.831  0.3150 -0.1055  0.5442
   49CHL1  H21A 3605   3.684   2.941   7.743  0.3927 -0.3941  0.6729
   49CHL1  H21B 3606   3.751   3.097   7.803  0.8952 -0.7883 -1.7785
   49CHL1  H21C 3607   3.662   2.981   7.919  1.0289 -2.8663  0.8357
   49CHL1   C22 3608   3.916   2.980   7.982  0.3324  0.0897 -0.5648
   49CHL1  H22A 3609   4.018   2.936   7.989  0.4288  0.4277  0.3425
   49CHL1  H22B 3610   3.926   3.090   7.969  0.7637  0.2646  1.0310
   49CHL1   C23 3611   3.846   2.952   8.116  0.1766 -0.2320 -0.0418
   49CHL1  H23A 3612   3.756   3.016   8.116 -0.0442 -0.4867  1.7052
   49CHL1  H23B 3613   3.822   2.845   8.135 -0.4983 -0.3396 -1.4037
   49CHL1   C24 3614   3.927   3.018   8.231  0.2709  0.2934 -0.3479
   49CHL1  H24A 3615   4.024   2.965   8.244 -1.1445 -2.8021 -1.5773
   49CHL1  H24B 3616   3.947   3.125   8.208  1.8946 -0.0339 -0.6433
   49CHL1   C25 3617   3.851   3.017   8.366 -0.0175 -0.2677 -0.4066
   49CHL1   H25 3618   3.752   3.067   8.359 -0.8304 -1.0315  3.3732
   49CHL1   C26 3619   3.817   2.874   8.409  0.1916  0.8897  0.3442
   49CHL1  H26A 3620   3.906   2.808   8.416 -0.6849 -0.9066 -3.1715
   49CHL1  H26B 3621   3.771   2.874   8.510  1.7144  2.4211  1.1021
   49CHL1  H26C 3622   3.756   2.822   8.332 -1.7010  2.0260  1.0314
   49CHL1   C27 3623   3.926   3.090   8.483 -0.8402 -0.6871  0.3559
   49CHL1  H27A 3624   4.025   3.042   8.496 -0.2290 -0.0163 -1.4738
   49CHL1  H27B 3625   3.951   3.194   8.455 -1.6517 -0.8205 -0.9978
   49CHL1  H27C 3626   3.863   3.100   8.574 -0.8699  0.1710  0.2473
   50CHL1    C3 3627   4.634   3.133   6.812 -0.0163 -0.1717 -0.2187
   50CHL1    H3 3628   4.725   3.194   6.832 -0.2103  0.3407 -0.8692
   50CHL1    O3 3629   4.599   3.142   6.673 -0.1148 -0.2317  0.1080
   50CHL1   H3' 3630   4.509   3.109   6.670 -0.7654  1.4886 -1.6296
   50CHL1    C4 3631   4.649   2.982   6.858  0.4315 -0.1535 -0.3148
   50CHL1   H4A 3632   4.558   2.925   6.830 -0.4529  2.0547 -2.2166
   50CHL1   H4B 3633   4.727   2.927   6.803 -1.4412 -1.4035 -1.8483
   50CHL1    C5 3634   4.677   2.980   7.006 -0.4231  0.4147 -0.1706
   50CHL1    C6 3635   4.782   2.913   7.060 -0.1020  0.3546  0.1902
   50CHL1    H6 3636   4.849   2.849   7.001 -0.0549  1.3316 -0.8494
   50CHL1    C7 3637   4.807   2.909   7.207 -0.0030 -0.5683 -0.1407
   50CHL1   H7A 3638   4.852   2.811   7.234  2.3767  0.4340 -0.1689
   50CHL1   H7B 3639   4.900   2.968   7.227  0.7046 -2.6535  3.5700
   50CHL1    C8 3640   4.704   2.968   7.297 -0.3663  0.5922 -0.0675
   50CHL1    H8 3641   4.625   2.891   7.314 -0.0156 -0.5535 -3.0964
   50CHL1   C14 3642   4.769   2.995   7.428 -0.4198 -0.3215 -0.1372
   50CHL1   H14 3643   4.849   3.072   7.415 -0.9121  0.4336  1.1656
   50CHL1   C15 3644   4.837   2.875   7.501 -0.8534  0.0198 -0.0127
   50CHL1  H15A 3645   4.774   2.785   7.485 -0.3911 -0.2901 -0.0864
   50CHL1  H15B 3646   4.939   2.848   7.469 -0.0772  1.5803  0.9951
   50CHL1   C16 3647   4.843   2.924   7.653  0.1839 -0.0332 -0.4173
   50CHL1  H16A 3648   4.792   2.854   7.723 -3.0706  0.9727 -1.5965
   50CHL1  H16B 3649   4.950   2.942   7.677 -0.1146  0.3314  0.7008
   50CHL1   C17 3650   4.765   3.061   7.657 -0.0310 -0.2640 -0.6400
   50CHL1   H17 3651   4.837   3.138   7.622 -1.5038  0.8189 -1.3874
   50CHL1   C13 3652   4.672   3.049   7.539  0.5705  0.6580 -0.1375
   50CHL1   C18 3653   4.558   2.952   7.581  0.4792 -0.4362  0.3971
   50CHL1  H18A 3654   4.591   2.864   7.640 -2.2987 -1.4475  0.5849
   50CHL1  H18B 3655   4.481   2.995   7.649 -0.6223  0.1326 -1.1618
   50CHL1  H18C 3656   4.504   2.906   7.496 -0.3191 -2.6780  2.0255
   50CHL1   C12 3657   4.600   3.175   7.482 -0.6259  0.2854  0.3649
   50CHL1  H12A 3658   4.512   3.205   7.544 -0.6674  2.6900 -0.7133
   50CHL1  H12B 3659   4.666   3.265   7.477 -0.0033 -0.1598  0.4421
   50CHL1   C11 3660   4.534   3.144   7.340  0.0271 -0.1986  0.2761
   50CHL1  H11A 3661   4.455   3.069   7.363 -0.0346 -0.3047 -0.2516
   50CHL1  H11B 3662   4.483   3.237   7.308 -1.1369 -0.9403 -0.0642
   50CHL1    C9 3663   4.630   3.088   7.242 -0.4853  0.2645  0.4334
   50CHL1    H9 3664   4.710   3.165   7.233 -1.4033  1.3480  1.2413
   50CHL1   C10 3665   4.579   3.072   7.099 -0.6633  0.1726  0.1262
   50CHL1   C19 3666   4.453   2.987   7.100  0.5466 -0.0956  0.5367
   50CHL1  H19A 3667   4.378   3.037   7.164  0.7454  1.1560 -0.1707
   50CHL1  H19B 3668   4.414   2.972   6.997  3.3086 -1.4283 -0.3977
   50CHL1  H19C 3669   4.479   2.884   7.133  2.4063 -0.1647 -0.9873
   50CHL1    C1 3670   4.546   3.206   7.033 -0.8195  0.5120  0.5369
   50CHL1   H1A 3671   4.460   3.257   7.082 -1.1849  0.7134 -0.2954
   50CHL1   H1B 3672   4.629   3.280   7.038  0.1748 -0.6300  1.6309
   50CHL1    C2 3673   4.519   3.200   6.886  0.3087 -0.3438 -0.2205
   50CHL1   H2A 3674   4.513   3.304   6.847 -0.6782 -0.3014  0.0296
   50CHL1   H2B 3675   4.429   3.142   6.856  0.8110 -0.5952 -1.2838
   50CHL1   C20 3676   4.717   3.106   7.797 -0.1447  0.0281  0.2205
   50CHL1   H20 3677   4.652   3.029   7.845  1.0461  0.0039  1.8842
   50CHL1   C21 3678   4.658   3.243   7.788 -1.4935  0.1268 -0.6762
   50CHL1  H21A 3679   4.654   3.290   7.889 -1.3144  0.1698 -0.6882
   50CHL1  H21B 3680   4.555   3.243   7.747 -1.3528 -1.0774 -1.0493
   50CHL1  H21C 3681   4.727   3.313   7.735 -1.5377  2.0094  1.5520
   50CHL1   C22 3682   4.841   3.124   7.894  0.2911  0.3457 -0.1571
   50CHL1  H22A 3683   4.897   3.028   7.899  0.1523  0.3377  2.1079
   50CHL1  H22B 3684   4.910   3.199   7.849 -0.7373  2.2240  1.2258
   50CHL1   C23 3685   4.802   3.146   8.044  0.7851 -0.1381  0.7440
   50CHL1  H23A 3686   4.751   3.245   8.051 -1.4913 -0.9003 -2.6229
   50CHL1  H23B 3687   4.717   3.077   8.064  0.1662  0.2566 -0.4375
   50CHL1   C24 3688   4.921   3.146   8.139  0.8420  0.1458  0.7560
   50CHL1  H24A 3689   4.946   3.038   8.145 -0.6719 -0.1389  3.1606
   50CHL1  H24B 3690   4.999   3.210   8.093 -0.1822  1.7034  1.1048
   50CHL1   C25 3691   4.891   3.208   8.275 -0.1495  0.8110  0.2808
   50CHL1   H25 3692   4.796   3.162   8.311 -0.1567  0.3195 -0.3542
   50CHL1   C26 3693   5.006   3.158   8.373 -0.3644 -0.6934 -0.1222
   50CHL1  H26A 3694   5.108   3.193   8.345 -0.8920 -0.0083 -1.2762
   50CHL1  H26B 3695   4.981   3.199   8.473  0.6315  0.1661 -0.1986
   50CHL1  H26C 3696   4.999   3.048   8.385  0.4782 -0.7046  0.3888
   50CHL1   C27 3697   4.872   3.361   8.265  0.1157  0.9236  0.4288
   50CHL1  H27A 3698   4.873   3.413   8.363  1.9397  0.5036  0.6735
   50CHL1  H27B 3699   4.965   3.393   8.213 -0.7821  1.8550 -0.6709
   50CHL1  H27C 3700   4.783   3.389   8.205 -0.8380 -0.9344  0.8942
   51CHL1    C3 3701   0.267   2.568   6.682 -0.5371  0.5007  0.0263
   51CHL1    H3 3702   0.318   2.666   6.680  4.3482 -1.7534  0.7116
   51CHL1    O3 3703   0.264   2.529   6.551 -0.6949 -0.5871 -0.3565
   51CHL1   H3' 3704   0.199   2.458   6.553 -1.4053  0.0555  1.0104
   51CHL1    C4 3705   0.357   2.475   6.763  0.9183 -0.1412 -0.0163
   51CHL1   H4A 3706   0.328   2.368   6.747  1.7945 -0.0689 -2.6379
   51CHL1   H4B 3707   0.461   2.477   6.724  1.1289  1.0760  0.5901
   51CHL1    C5 3708   0.366   2.520   6.913 -0.3823  0.2552 -0.5553
   51CHL1    C6 3709   0.489   2.539   6.974 -0.0667  0.0105 -0.3901
   51CHL1    H6 3710   0.585   2.534   6.922  0.2715  1.7888  0.0104
   51CHL1    C7 3711   0.488   2.570   7.123 -0.7310 -0.4080  0.3255
   51CHL1   H7A 3712   0.566   2.504   7.167  0.7679  0.3238 -1.1251
   51CHL1   H7B 3713   0.527   2.672   7.144  0.5382 -0.7880 -0.1373
   51CHL1    C8 3714   0.356   2.552   7.202 -0.3938  1.0310 -0.3451
   51CHL1    H8 3715   0.342   2.442   7.212 -1.9507  1.2742  0.3293
   51CHL1   C14 3716   0.367   2.601   7.345  0.1567  0.4122 -0.3380
   51CHL1   H14 3717   0.385   2.710   7.340  2.1097  0.1312  0.0584
   51CHL1   C15 3718   0.476   2.540   7.434  0.9322 -0.3473 -0.2528
   51CHL1  H15A 3719   0.482   2.430   7.426 -0.3817 -0.2731 -4.2900
   51CHL1  H15B 3720   0.574   2.580   7.400  0.3041  0.3474 -1.2961
   51CHL1   C16 3721   0.441   2.601   7.573  0.0800  0.3327  0.3761
   51CHL1  H16A 3722   0.451   2.527   7.656  0.2540  1.9052  1.8260
   51CHL1  H16B 3723   0.502   2.689   7.603 -2.7206  2.5641 -0.1090
   51CHL1   C17 3724   0.290   2.659   7.558 -0.6387 -0.0509  0.0381
   51CHL1   H17 3725   0.307   2.769   7.547  1.1452 -0.1973  0.9336
   51CHL1   C13 3726   0.235   2.594   7.429 -0.3853  0.2487  0.4546
   51CHL1   C18 3727   0.195   2.452   7.455  0.4760  0.3086 -0.3159
   51CHL1  H18A 3728   0.271   2.392   7.510  1.5794  0.3316 -1.7549
   51CHL1  H18B 3729   0.111   2.456   7.527  1.2345  1.4096  0.5531
   51CHL1  H18C 3730   0.153   2.394   7.370  3.5086 -1.6415 -0.6548
   51CHL1   C12 3731   0.131   2.674   7.350  1.0021  0.3544 -0.5067
   51CHL1  H12A 3732   0.035   2.679   7.405  0.5764 -2.3342 -0.8594
   51CHL1  H12B 3733   0.168   2.779   7.353  2.1441 -0.0211  3.1767
   51CHL1   C11 3734   0.104   2.625   7.209 -0.3300  0.0270  0.6517
   51CHL1  H11A 3735   0.043   2.532   7.206 -0.3477  0.0481  0.2005
   51CHL1  H11B 3736   0.045   2.706   7.161 -0.4818 -0.6017 -0.2487
   51CHL1    C9 3737   0.241   2.609   7.123  0.7739  0.1339  0.3272
   51CHL1    H9 3738   0.278   2.710   7.096 -1.5841  0.9399 -0.0794
   51CHL1   C10 3739   0.233   2.539   6.983  0.0518  0.2922 -0.0643
   51CHL1   C19 3740   0.167   2.395   6.997 -0.2853  0.6619  0.0459
   51CHL1  H19A 3741   0.057   2.404   7.006 -0.3957 -1.8738  2.5891
   51CHL1  H19B 3742   0.181   2.341   6.901  1.0914  0.5756  0.2663
   51CHL1  H19C 3743   0.206   2.328   7.076 -0.9559 -1.6687 -1.4839
   51CHL1    C1 3744   0.142   2.637   6.890 -0.3899 -0.2893 -0.0116
   51CHL1   H1A 3745   0.044   2.643   6.942  0.3025 -0.5640  1.3655
   51CHL1   H1B 3746   0.192   2.736   6.887 -0.7023 -0.1317 -2.2470
   51CHL1    C2 3747   0.128   2.583   6.747 -0.3974  0.3664  0.2182
   51CHL1   H2A 3748   0.067   2.659   6.693  0.4398  1.8090  1.2301
   51CHL1   H2B 3749   0.079   2.484   6.756  0.7223 -0.0803  1.8655
   51CHL1   C20 3750   0.211   2.634   7.694  0.3726  0.2976  0.7214
   51CHL1   H20 3751   0.197   2.524   7.696 -2.0778  0.5414  2.6398
   51CHL1   C21 3752   0.069   2.689   7.673 -0.0784  0.1731  0.2514
   51CHL1  H21A 3753   0.008   2.685   7.766 -0.7388  1.8291 -0.0850
   51CHL1  H21B 3754   0.015   2.623   7.602 -1.5202  3.6232 -2.1421
   51CHL1  H21C 3755   0.083   2.787   7.622  2.1611 -0.3404 -0.2367
   51CHL1   C22 3756   0.262   2.679   7.826 -1.0015 -0.3639  0.7061
   51CHL1  H22A 3757   0.369   2.650   7.823 -0.3745  1.5642  2.3113
   51CHL1  H22B 3758   0.263   2.788   7.846  1.9816  0.2398 -1.8744
   51CHL1   C23 3759   0.189   2.612   7.950  0.2623 -0.2397 -0.7908
   51CHL1  H23A 3760   0.087   2.654   7.958  0.1866 -0.7945  1.7995
   51CHL1  H23B 3761   0.182   2.505   7.920  0.8472  0.3277 -3.2496
   51CHL1   C24 3762   0.265   2.605   8.082  0.5910 -0.6239 -0.1426
   51CHL1  H24A 3763   0.212   2.533   8.148  0.2049 -0.9507 -0.8024
   51CHL1  H24B 3764   0.359   2.554   8.051  1.2107  1.3895 -1.7644
   51CHL1   C25 3765   0.299   2.742   8.142  0.4509  0.0846 -0.1722
   51CHL1   H25 3766   0.334   2.825   8.077 -0.1203  2.9204  2.8888
   51CHL1   C26 3767   0.179   2.803   8.214  0.7170  0.2863  0.2540
   51CHL1  H26A 3768   0.210   2.899   8.260  0.7938  1.5675 -2.3224
   51CHL1  H26B 3769   0.102   2.815   8.135 -1.1964 -3.2452  1.3455
   51CHL1  H26C 3770   0.139   2.739   8.296 -1.0281  0.4077 -0.4644
   51CHL1   C27 3771   0.426   2.710   8.233  0.5136 -0.8643 -0.1473
   51CHL1  H27A 3772   0.395   2.633   8.308 -1.8669 -1.6246 -1.7776
   51CHL1  H27B 3773   0.511   2.668   8.176  0.1893 -2.4509  0.4643
   51CHL1  H27C 3774   0.456   2.802   8.288 -0.7671  1.3178 -2.8633
   52CHL1    C3 3775   1.939   4.075   6.762  0.5866 -0.5651  0.2070
   52CHL1    H3 3776   1.957   4.180   6.731 -0.4751 -0.4705 -0.1418
   52CHL1    O3 3777   1.921   4.012   6.640  0.7873  0.5838  0.1735
   52CHL1   H3' 3778   1.827   4.023   6.629  0.6506  0.0361  0.7255
   52CHL1    C4 3779   2.065   4.021   6.837  0.5286 -0.1530  0.1234
   52CHL1   H4A 3780   2.052   3.910   6.841 -0.7234 -0.0344 -0.0807
   52CHL1   H4B 3781   2.152   4.035   6.770  0.0252  2.1408 -0.1256
   52CHL1    C5 3782   2.073   4.085   6.975  0.3229  0.9366 -0.6762
   52CHL1    C6 3783   2.190   4.136   7.027  0.2449  0.2264  0.6663
   52CHL1    H6 3784   2.283   4.131   6.970  0.1210 -0.1586  0.5003
   52CHL1    C7 3785   2.206   4.180   7.172  0.0336 -0.6097  0.3473
   52CHL1   H7A 3786   2.304   4.142   7.208 -0.7679 -2.3688  0.7431
   52CHL1   H7B 3787   2.200   4.290   7.185  3.1263 -0.1022 -1.4451
   52CHL1    C8 3788   2.094   4.123   7.259 -0.5451  1.1279 -0.7755
   52CHL1    H8 3789   2.123   4.015   7.260 -1.0054  0.9989 -0.6564
   52CHL1   C14 3790   2.108   4.170   7.406 -0.0283  0.0464 -0.1346
   52CHL1   H14 3791   2.098   4.280   7.397  1.8978  0.1212 -2.6012
   52CHL1   C15 3792   2.236   4.136   7.482  0.0566  0.2395  0.2815
   52CHL1  H15A 3793   2.266   4.030   7.466 -2.3738 -0.7084  1.4190
   52CHL1  H15B 3794   2.308   4.219   7.466  0.6973 -0.4510 -0.4898
   52CHL1   C16 3795   2.201   4.145   7.632 -0.2100 -0.4129 -0.3213
   52CHL1  H16A 3796   2.244   4.062   7.692  0.1857  0.1442  0.1746
   52CHL1  H16B 3797   2.257   4.231   7.674  2.1022 -1.0872 -1.8509
   52CHL1   C17 3798   2.045   4.171   7.629 -0.7522 -0.7705 -0.3318
   52CHL1   H17 3799   2.023   4.279   7.619  0.3921 -0.4246  0.6742
   52CHL1   C13 3800   1.991   4.119   7.495  0.4214 -0.6622  0.1032
   52CHL1   C18 3801   1.979   3.963   7.485  0.1281 -0.5369  0.5213
   52CHL1  H18A 3802   1.973   3.925   7.381 -3.7220  1.0554 -0.0351
   52CHL1  H18B 3803   2.064   3.912   7.534  0.6394 -1.8456 -1.6053
   52CHL1  H18C 3804   1.888   3.925   7.537  1.1886 -4.3844 -0.1031
   52CHL1   C12 3805   1.865   4.193   7.432  0.1531  0.0960  0.2947
   52CHL1  H12A 3806   1.778   4.182   7.500 -0.2438  2.7555  0.3148
   52CHL1  H12B 3807   1.880   4.303   7.436 -1.5521  0.4313 -1.4001
   52CHL1   C11 3808   1.837   4.151   7.289  0.7142  0.3073 -0.3945
   52CHL1  H11A 3809   1.792   4.051   7.304 -1.9671  1.6745  1.6387
   52CHL1  H11B 3810   1.753   4.204   7.238 -0.4494 -0.8796  0.2197
   52CHL1    C9 3811   1.963   4.154   7.195 -0.1751 -0.1107  0.1433
   52CHL1    H9 3812   1.972   4.260   7.163  0.7509 -1.1854 -3.5670
   52CHL1   C10 3813   1.949   4.075   7.064  0.3609  0.3168 -0.3195
   52CHL1   C19 3814   1.909   3.927   7.081  0.1466 -0.2761  0.3086
   52CHL1  H19A 3815   1.911   3.869   6.986  0.4871 -0.6873  0.5588
   52CHL1  H19B 3816   1.991   3.887   7.145  0.1874  0.2639  0.6029
   52CHL1  H19C 3817   1.809   3.919   7.127  1.1733  0.4988  2.8320
   52CHL1    C1 3818   1.826   4.144   6.985 -0.3891  0.4451  0.9773
   52CHL1   H1A 3819   1.726   4.150   7.033 -2.2172 -1.5086 -2.1977
   52CHL1   H1B 3820   1.869   4.247   6.975  1.2861 -0.3049  0.0374
   52CHL1    C2 3821   1.805   4.077   6.845  0.5426  0.1303 -0.0193
   52CHL1   H2A 3822   1.735   4.137   6.784 -0.8382  0.1062  1.4680
   52CHL1   H2B 3823   1.779   3.970   6.836  2.4091 -0.4945  1.2642
   52CHL1   C20 3824   1.972   4.135   7.763 -0.1433 -0.2968 -0.4915
   52CHL1   H20 3825   1.970   4.024   7.766  0.3420 -0.3000  0.0035
   52CHL1   C21 3826   1.821   4.174   7.760  0.0408 -0.1239  0.0328
   52CHL1  H21A 3827   1.800   4.276   7.723 -1.6605 -0.6760 -0.6278
   52CHL1  H21B 3828   1.770   4.157   7.858  0.9820 -1.7193  0.2816
   52CHL1  H21C 3829   1.776   4.094   7.698  0.5048 -1.2271  1.0725
   52CHL1   C22 3830   2.043   4.194   7.889 -0.6735 -0.4338 -0.3486
   52CHL1  H22A 3831   2.142   4.145   7.900 -0.2304  0.4740 -0.2003
   52CHL1  H22B 3832   2.067   4.299   7.861 -0.1655 -0.8081 -1.3711
   52CHL1   C23 3833   1.982   4.206   8.035 -0.3011  0.0724 -0.7545
   52CHL1  H23A 3834   1.904   4.285   8.037 -1.0767 -0.6901  0.8770
   52CHL1  H23B 3835   1.941   4.107   8.063  0.8411 -0.9536 -2.5285
   52CHL1   C24 3836   2.098   4.224   8.136 -0.2532  0.1353  0.2017
   52CHL1  H24A 3837   2.171   4.141   8.141 -0.9348 -0.4044  2.0162
   52CHL1  H24B 3838   2.146   4.320   8.108 -0.5142  0.4398  0.7699
   52CHL1   C25 3839   2.067   4.252   8.289 -0.1208 -0.5677 -0.1475
   52CHL1   H25 3840   1.981   4.323   8.295 -1.8589 -2.6608  0.9373
   52CHL1   C26 3841   2.016   4.126   8.358  0.9437 -0.7147 -1.3702
   52CHL1  H26A 3842   1.937   4.068   8.306  2.2149 -3.3515 -0.5220
   52CHL1  H26B 3843   2.101   4.057   8.373 -0.2896 -2.2765 -1.3393
   52CHL1  H26C 3844   1.982   4.160   8.458  3.6530  1.6350 -1.1065
   52CHL1   C27 3845   2.192   4.301   8.364 -0.4411 -0.3699  0.3701
   52CHL1  H27A 3846   2.246   4.374   8.299 -1.2115 -0.4227 -0.3534
   52CHL1  H27B 3847   2.164   4.351   8.459  1.2387 -1.7920  1.6721
   52CHL1  H27C 3848   2.264   4.218   8.381 -0.1795 -0.2549 -0.1655
   53CHL1    C3 3849   4.639   0.445   6.986 -0.1423  0.0575  1.0364
   53CHL1    H3 3850   4.743   0.482   6.980 -0.1835  0.2497  1.4270
   53CHL1    O3 3851   4.604   0.427   6.854  0.3325 -0.0579 -0.3297
   53CHL1   H3' 3852   4.635   0.340   6.828 -0.4903 -0.1086 -1.2074
   53CHL1    C4 3853   4.614   0.319   7.071 -0.1938 -0.4188  0.5481
   53CHL1   H4A 3854   4.506   0.293   7.066 -0.2394 -0.5873  1.9766
   53CHL1   H4B 3855   4.659   0.229   7.024  0.3880 -0.7261  1.6660
   53CHL1    C5 3856   4.648   0.341   7.217  0.7677  0.5663 -0.4265
   53CHL1    C6 3857   4.733   0.259   7.280 -0.1713  0.7092 -0.0641
   53CHL1    H6 3858   4.770   0.163   7.241 -1.6829 -1.1135  2.6825
   53CHL1    C7 3859   4.768   0.264   7.424 -0.4937 -0.2482  0.1385
   53CHL1   H7A 3860   4.756   0.156   7.447  0.3283 -0.6392 -1.1657
   53CHL1   H7B 3861   4.870   0.297   7.454 -2.6434  3.3910  4.6605
   53CHL1    C8 3862   4.675   0.362   7.506 -0.4373 -0.0147  0.0315
   53CHL1    H8 3863   4.586   0.297   7.517  1.1334 -1.9715  2.0670
   53CHL1   C14 3864   4.744   0.403   7.636 -0.5208 -0.0848 -0.6929
   53CHL1   H14 3865   4.842   0.443   7.602  1.7740 -1.3982  3.6698
   53CHL1   C15 3866   4.805   0.290   7.727  0.5335 -0.3959 -0.0175
   53CHL1  H15A 3867   4.729   0.212   7.750 -1.0967  1.2106  0.3499
   53CHL1  H15B 3868   4.886   0.226   7.686 -0.0031 -2.2843  1.6627
   53CHL1   C16 3869   4.853   0.375   7.847  0.2006  0.0888 -0.0917
   53CHL1  H16A 3870   4.846   0.326   7.946  2.2410 -0.1657 -0.0175
   53CHL1  H16B 3871   4.961   0.400   7.838  0.1240  1.2487  1.6801
   53CHL1   C17 3872   4.780   0.513   7.837  1.2930 -0.1559 -0.2842
   53CHL1   H17 3873   4.849   0.588   7.791 -0.3808  1.4245 -0.3614
   53CHL1   C13 3874   4.671   0.500   7.722 -0.2399 -0.2279 -0.1544
   53CHL1   C18 3875   4.548   0.445   7.784 -0.0931  0.7351 -0.1728
   53CHL1  H18A 3876   4.497   0.516   7.852  1.0438  2.6146 -1.1941
   53CHL1  H18B 3877   4.479   0.431   7.698  0.4998  0.4796 -0.6165
   53CHL1  H18C 3878   4.575   0.352   7.837 -0.2964  0.9812  0.3697
   53CHL1   C12 3879   4.631   0.624   7.633  0.0556  0.1523 -0.1540
   53CHL1  H12A 3880   4.571   0.696   7.693 -0.3124  1.0907 -1.5933
   53CHL1  H12B 3881   4.724   0.680   7.610  1.5848 -1.5118  1.6197
   53CHL1   C11 3882   4.562   0.584   7.502  0.4023 -0.4684 -0.1151
   53CHL1  H11A 3883   4.464   0.536   7.525 -0.0557 -0.2365 -1.4850
   53CHL1  H11B 3884   4.535   0.677   7.448  0.2870  0.7847  1.9771
   53CHL1    C9 3885   4.633   0.484   7.417  0.3003 -0.0072  0.7691
   53CHL1    H9 3886   4.732   0.532   7.403  0.7793 -1.0974  0.3256
   53CHL1   C10 3887   4.573   0.452   7.278 -0.8450  0.6150  1.5158
   53CHL1   C19 3888   4.419   0.427   7.282  0.5558  0.1747  0.9932
   53CHL1  H19A 3889   4.389   0.357   7.363 -1.9875  0.0946  0.0650
   53CHL1  H19B 3890   4.370   0.525   7.302  0.5146  0.7053 -1.4622
   53CHL1  H19C 3891   4.376   0.400   7.183  1.8686  0.9668  0.1762
   53CHL1    C1 3892   4.586   0.581   7.185 -0.1339  0.2707  0.4644
   53CHL1   H1A 3893   4.520   0.660   7.227 -1.3247 -1.4485  1.9956
   53CHL1   H1B 3894   4.696   0.596   7.183 -0.1432  0.4840 -2.6176
   53CHL1    C2 3895   4.554   0.565   7.038 -0.1475  0.3990  1.0730
   53CHL1   H2A 3896   4.565   0.653   6.972 -1.5771 -1.8455 -2.4715
   53CHL1   H2B 3897   4.448   0.532   7.031 -0.0370 -0.2949  2.2148
   53CHL1   C20 3898   4.736   0.567   7.976  0.2165 -0.3384 -0.4894
   53CHL1   H20 3899   4.661   0.496   8.017 -2.1058  0.9257 -2.2591
   53CHL1   C21 3900   4.671   0.706   7.968 -0.1238  0.4035  0.2385
   53CHL1  H21A 3901   4.740   0.781   7.925 -0.7460  0.3287 -0.9398
   53CHL1  H21B 3902   4.641   0.734   8.072  0.9989 -2.2911  1.3770
   53CHL1  H21C 3903   4.585   0.693   7.898  0.7686 -3.6164 -0.3296
   53CHL1   C22 3904   4.858   0.567   8.079 -0.3429  0.1400 -0.6334
   53CHL1  H22A 3905   4.889   0.462   8.098 -2.0822 -0.3525 -0.3163
   53CHL1  H22B 3906   4.938   0.624   8.028 -1.2999  1.0188 -1.1871
   53CHL1   C23 3907   4.844   0.640   8.216 -0.6886 -0.1835  1.4223
   53CHL1  H23A 3908   4.942   0.639   8.270 -1.1583  0.8563  2.3441
   53CHL1  H23B 3909   4.830   0.748   8.197  0.7964 -0.2999 -0.6799
   53CHL1   C24 3910   4.733   0.589   8.307  0.0484  0.0542 -0.1022
   53CHL1  H24A 3911   4.733   0.651   8.399  2.3583  0.0164 -0.0414
   53CHL1  H24B 3912   4.633   0.605   8.260  0.2419 -3.1056 -1.8957
   53CHL1   C25 3913   4.731   0.437   8.343  0.3493 -0.4351 -0.2290
   53CHL1   H25 3914   4.750   0.382   8.248  2.4701  2.5512 -1.6941
   53CHL1   C26 3915   4.848   0.403   8.434 -0.5707 -0.4455 -0.0874
   53CHL1  H26A 3916   4.867   0.476   8.516  2.3258 -0.2495 -0.8054
   53CHL1  H26B 3917   4.831   0.306   8.485  2.5810 -1.0776 -0.0155
   53CHL1  H26C 3918   4.945   0.398   8.379 -0.0807  0.2794  0.6792
   53CHL1   C27 3919   4.597   0.397   8.401 -0.4220 -0.0802  0.5537
   53CHL1  H27A 3920   4.606   0.291   8.434  0.2373 -0.0698  0.4185
   53CHL1  H27B 3921   4.560   0.450   8.491 -1.2754 -1.9708  1.3796
   53CHL1  H27C 3922   4.522   0.402   8.320  0.6642  0.9967 -0.4300
   54CHL1    C3 3923   4.554   2.395   6.999 -0.4549  0.0915  1.2930
   54CHL1    H3 3924   4.551   2.284   6.998  2.5068 -0.1502 -2.1029
   54CHL1    O3 3925   4.556   2.433   6.860  0.5456 -0.2279  0.3959
   54CHL1   H3' 3926   4.604   2.364   6.813 -0.8016 -1.4318  0.7223
   54CHL1    C4 3927   4.433   2.456   7.063 -0.0006  0.1274 -0.4387
   54CHL1   H4A 3928   4.440   2.567   7.062 -2.9430  0.4280  1.3469
   54CHL1   H4B 3929   4.344   2.414   7.012  1.1048  0.0072 -2.3905
   54CHL1    C5 3930   4.433   2.420   7.211 -0.7425  0.1940  0.3937
   54CHL1    C6 3931   4.329   2.352   7.257  0.0752 -0.2196  0.0267
   54CHL1    H6 3932   4.245   2.312   7.199 -1.5654 -0.0788  2.2089
   54CHL1    C7 3933   4.314   2.330   7.408 -0.2062  0.7006 -0.8550
   54CHL1   H7A 3934   4.210   2.352   7.442 -0.7226 -1.0120 -1.1833
   54CHL1   H7B 3935   4.340   2.223   7.425  1.2381  1.0119 -1.0180
   54CHL1    C8 3936   4.408   2.417   7.496 -0.6312  0.7836  0.1774
   54CHL1    H8 3937   4.364   2.519   7.488 -1.5508  0.2873 -1.8023
   54CHL1   C14 3938   4.422   2.367   7.644  0.3789 -0.0606  0.0535
   54CHL1   H14 3939   4.465   2.265   7.634 -2.2000 -1.1913 -0.3435
   54CHL1   C15 3940   4.287   2.344   7.720  0.2090  0.2179 -0.0462
   54CHL1  H15A 3941   4.223   2.431   7.696  0.2376 -0.2549 -1.9604
   54CHL1  H15B 3942   4.242   2.247   7.688  0.3698 -0.3547  1.3714
   54CHL1   C16 3943   4.339   2.340   7.857  0.8259 -0.2063 -0.5950
   54CHL1  H16A 3944   4.276   2.402   7.925  0.8912 -0.6610 -0.1122
   54CHL1  H16B 3945   4.335   2.241   7.906  0.6891  0.4807  0.8643
   54CHL1   C17 3946   4.485   2.375   7.869 -0.2474 -0.5734 -0.0040
   54CHL1   H17 3947   4.541   2.280   7.866  0.9955  0.1045  0.7781
   54CHL1   C13 3948   4.518   2.444   7.731 -0.2817 -0.6177  0.2348
   54CHL1   C18 3949   4.465   2.590   7.743 -0.3631 -0.2267  0.1189
   54CHL1  H18A 3950   4.358   2.587   7.775  0.2426 -1.6518  2.2056
   54CHL1  H18B 3951   4.518   2.644   7.824  1.4903 -0.4344 -0.9103
   54CHL1  H18C 3952   4.478   2.641   7.645  0.9178  1.4244  1.0921
   54CHL1   C12 3953   4.665   2.437   7.680 -0.4688  0.6192 -0.3428
   54CHL1  H12A 3954   4.741   2.492   7.739 -0.5414  2.2311 -1.6841
   54CHL1  H12B 3955   4.694   2.330   7.689  1.1824  1.1123  0.4551
   54CHL1   C11 3956   4.659   2.489   7.536 -0.4094  0.2174  0.1889
   54CHL1  H11A 3957   4.648   2.599   7.552 -0.3737  0.0607  1.3588
   54CHL1  H11B 3958   4.751   2.463   7.481 -1.3671 -1.5626 -0.6548
   54CHL1    C9 3959   4.551   2.422   7.442 -0.4607 -0.7295 -0.1819
   54CHL1    H9 3960   4.587   2.318   7.459  1.4191  0.0038  0.6410
   54CHL1   C10 3961   4.549   2.473   7.302  0.0266  0.2165  0.9009
   54CHL1   C19 3962   4.537   2.631   7.311  0.1962 -0.3631  0.2671
   54CHL1  H19A 3963   4.628   2.671   7.359 -0.0287 -3.0327  3.2377
   54CHL1  H19B 3964   4.536   2.679   7.211 -2.4862  0.2657  0.4969
   54CHL1  H19C 3965   4.438   2.662   7.352  1.1540  1.7683  1.1057
   54CHL1    C1 3966   4.680   2.435   7.223  0.3147 -0.1867 -0.2271
   54CHL1   H1A 3967   4.759   2.500   7.265  1.8950 -1.4441 -1.1599
   54CHL1   H1B 3968   4.693   2.326   7.239  0.8769 -0.6910 -3.5503
   54CHL1    C2 3969   4.686   2.452   7.065 -0.1593  0.5016  0.2435
   54CHL1   H2A 3970   4.778   2.405   7.025 -0.2129 -0.7119  1.4980
   54CHL1   H2B 3971   4.693   2.561   7.042  2.0006  0.8338  2.1174
   54CHL1   C20 3972   4.523   2.440   8.002  1.0632  0.2752 -0.1499
   54CHL1   H20 3973   4.463   2.533   8.008  0.2894 -0.2699  0.7296
   54CHL1   C21 3974   4.666   2.479   8.018 -0.3100  0.1828  0.4806
   54CHL1  H21A 3975   4.677   2.574   7.962 -0.5672  0.0102  0.1328
   54CHL1  H21B 3976   4.723   2.392   7.981 -3.2616 -1.4609 -0.5887
   54CHL1  H21C 3977   4.701   2.501   8.121 -0.1048 -1.0528  0.6961
   54CHL1   C22 3978   4.486   2.346   8.121 -0.1419  0.1151 -1.1216
   54CHL1  H22A 3979   4.402   2.274   8.112  1.1359 -1.7255  0.5592
   54CHL1  H22B 3980   4.577   2.285   8.141  0.0841  0.2378 -1.7808
   54CHL1   C23 3981   4.456   2.426   8.254  0.2094  0.2603  0.4063
   54CHL1  H23A 3982   4.535   2.498   8.285  0.6942 -0.8329  1.7533
   54CHL1  H23B 3983   4.367   2.485   8.221  0.1292 -0.6753 -1.1646
   54CHL1   C24 3984   4.427   2.337   8.374  0.3392  0.0365 -0.4119
   54CHL1  H24A 3985   4.340   2.270   8.354  0.6480 -1.0367  1.5024
   54CHL1  H24B 3986   4.511   2.267   8.395 -1.6411 -1.5957  2.9737
   54CHL1   C25 3987   4.391   2.418   8.498 -0.0979  0.2070 -0.3908
   54CHL1   H25 3988   4.473   2.485   8.530 -1.4010  0.8314  1.8442
   54CHL1   C26 3989   4.272   2.519   8.490 -0.3787  0.3001 -0.0028
   54CHL1  H26A 3990   4.304   2.599   8.421 -0.7900 -0.4649 -1.1021
   54CHL1  H26B 3991   4.178   2.469   8.456 -0.1241 -0.2541  0.0926
   54CHL1  H26C 3992   4.254   2.555   8.594 -0.2203  3.0926 -0.8855
   54CHL1   C27 3993   4.367   2.311   8.614  0.0348  0.3122  0.6269
   54CHL1  H27A 3994   4.273   2.254   8.598 -1.1566  2.4883 -0.7470
   54CHL1  H27B 3995   4.449   2.238   8.631  1.2750  1.7318  1.0384
   54CHL1  H27C 3996   4.371   2.368   8.710  3.0622 -0.0621  0.8188
   55CHL1    C3 3997   5.715   3.904   6.498 -0.4820 -0.2719 -1.4244
   55CHL1    H3 3998   5.624   3.967   6.507 -1.4159 -1.8184  0.8764
   55CHL1    O3 3999   5.725   3.871   6.365  0.3363 -0.6873  0.0892
   55CHL1   H3' 4000   5.719   3.961   6.333 -0.9163 -0.3293  1.2577
   55CHL1    C4 4001   5.835   3.987   6.542 -0.7380  0.3521 -0.1048
   55CHL1   H4A 4002   5.929   3.932   6.518 -1.1511 -1.1178  1.3867
   55CHL1   H4B 4003   5.822   4.080   6.483 -0.1207  1.0104  0.7668
   55CHL1    C5 4004   5.822   4.009   6.688 -0.4251 -0.1766  0.2068
   55CHL1    C6 4005   5.818   4.134   6.736 -0.4312  0.8384 -0.3579
   55CHL1    H6 4006   5.807   4.222   6.672  0.2045 -0.2322 -2.0000
   55CHL1    C7 4007   5.800   4.174   6.882  0.2291  0.4848 -0.7438
   55CHL1   H7A 4008   5.843   4.272   6.913  0.5388  0.6856 -1.7527
   55CHL1   H7B 4009   5.690   4.183   6.894  0.1658  0.0091 -0.9554
   55CHL1    C8 4010   5.851   4.068   6.976 -0.3586 -0.5192  0.1754
   55CHL1    H8 4011   5.961   4.076   6.969 -0.4955  0.1454 -1.7887
   55CHL1   C14 4012   5.820   4.106   7.122 -0.0429  0.3040  0.2323
   55CHL1   H14 4013   5.710   4.111   7.129  0.0781  2.1186  1.6459
   55CHL1   C15 4014   5.864   4.245   7.181 -0.5305  0.9595 -0.1579
   55CHL1  H15A 4015   5.975   4.250   7.171 -0.3929 -0.4639  0.4772
   55CHL1  H15B 4016   5.818   4.337   7.138  2.9776  3.2666  0.6086
   55CHL1   C16 4017   5.825   4.223   7.331 -0.1866 -0.5305 -0.1399
   55CHL1  H16A 4018   5.906   4.274   7.387  0.3118  0.9187 -2.0657
   55CHL1  H16B 4019   5.722   4.266   7.330 -0.3158 -0.8321 -0.8806
   55CHL1   C17 4020   5.825   4.068   7.357 -0.4778 -1.5803 -0.1528
   55CHL1   H17 4021   5.719   4.037   7.368 -0.5989 -1.3179 -0.5737
   55CHL1   C13 4022   5.871   4.002   7.227 -0.3643 -0.5416 -0.2455
   55CHL1   C18 4023   6.021   3.982   7.217 -0.6158  0.1392  0.2922
   55CHL1  H18A 4024   6.048   3.939   7.118  0.2804  2.3547 -0.4874
   55CHL1  H18B 4025   6.073   4.078   7.235 -2.5612  0.7925  3.0001
   55CHL1  H18C 4026   6.060   3.906   7.288 -3.8076 -0.9489  1.0425
   55CHL1   C12 4027   5.794   3.877   7.187  0.5452  0.3672 -0.3750
   55CHL1  H12A 4028   5.836   3.798   7.254  2.4563  0.6641 -1.1684
   55CHL1  H12B 4029   5.685   3.886   7.202  0.6661  2.3433 -0.4402
   55CHL1   C11 4030   5.816   3.822   7.045  0.1494 -0.7907  0.1151
   55CHL1  H11A 4031   5.916   3.773   7.036 -0.2600 -1.5187 -0.7262
   55CHL1  H11B 4032   5.744   3.740   7.025 -0.8995 -0.0396  0.7512
   55CHL1    C9 4033   5.786   3.937   6.936 -0.6298 -0.0990 -0.4537
   55CHL1    H9 4034   5.678   3.959   6.948 -0.3927 -0.2680  2.6766
   55CHL1   C10 4035   5.815   3.896   6.785  0.2270  0.1406 -0.1555
   55CHL1   C19 4036   5.952   3.824   6.777  0.3606  0.0944 -0.0934
   55CHL1  H19A 4037   5.975   3.798   6.671  1.5113  0.5380  0.0444
   55CHL1  H19B 4038   6.023   3.886   6.835 -2.6035  2.5794  1.1593
   55CHL1  H19C 4039   5.941   3.731   6.837 -1.1636 -0.7571 -1.5915
   55CHL1    C1 4040   5.707   3.802   6.737 -0.4920  0.2487  0.3173
   55CHL1   H1A 4041   5.726   3.703   6.783  0.7581  1.0522  1.6141
   55CHL1   H1B 4042   5.608   3.826   6.781 -0.0550  0.5506  1.1576
   55CHL1    C2 4043   5.694   3.780   6.586  0.2941 -0.3781  0.8233
   55CHL1   H2A 4044   5.595   3.733   6.568  0.0193  0.3809  0.2710
   55CHL1   H2B 4045   5.768   3.706   6.549  1.1515  1.5603 -1.7167
   55CHL1   C20 4046   5.910   4.032   7.483 -0.9105 -0.0632 -0.2784
   55CHL1   H20 4047   6.019   4.043   7.465 -1.0750  1.0295 -0.6748
   55CHL1   C21 4048   5.878   3.892   7.513 -0.1141 -0.4597  0.3447
   55CHL1  H21A 4049   5.890   3.814   7.435 -0.6240  1.3245 -1.6146
   55CHL1  H21B 4050   5.773   3.894   7.549  0.2200 -1.9979  1.5455
   55CHL1  H21C 4051   5.938   3.858   7.601  0.7714  2.0383  0.7891
   55CHL1   C22 4052   5.902   4.119   7.613  0.3614 -0.7896 -0.0043
   55CHL1  H22A 4053   5.934   4.223   7.590 -0.5414  0.2517  2.9752
   55CHL1  H22B 4054   5.795   4.119   7.641  0.2644  0.9108 -0.2680
   55CHL1   C23 4055   5.996   4.081   7.724 -0.4213 -0.2548  0.5667
   55CHL1  H23A 4056   5.971   3.983   7.769 -0.4840  0.2256  1.6157
   55CHL1  H23B 4057   6.096   4.059   7.680  0.4258 -0.4154  2.4967
   55CHL1   C24 4058   6.010   4.188   7.839 -0.3018  0.0340 -0.1001
   55CHL1  H24A 4059   6.030   4.295   7.820  1.1377  0.4890  3.2912
   55CHL1  H24B 4060   5.912   4.174   7.889 -0.4027 -1.2662 -0.6023
   55CHL1   C25 4061   6.111   4.142   7.943 -0.4112 -0.0346  0.1651
   55CHL1   H25 4062   6.096   4.032   7.947 -1.4591  0.0770 -0.2359
   55CHL1   C26 4063   6.260   4.169   7.894 -0.2367  0.2238 -0.2274
   55CHL1  H26A 4064   6.339   4.130   7.961 -3.2560 -4.0221  1.2814
   55CHL1  H26B 4065   6.270   4.107   7.803 -0.9298  0.6266 -0.5917
   55CHL1  H26C 4066   6.278   4.277   7.871  1.1008  0.1046  0.1783
   55CHL1   C27 4067   6.096   4.185   8.087 -0.0137 -0.8818  0.6990
   55CHL1  H27A 4068   6.015   4.129   8.138 -0.1643 -3.3629 -2.0380
   55CHL1  H27B 4069   6.189   4.165   8.143 -0.0368  2.9514  2.4359
   55CHL1  H27C 4070   6.067   4.293   8.085 -0.7667 -1.0821  0.0474
   56CHL1    C3 4071   2.502   1.800   7.014  0.3604 -0.0817 -0.2117
   56CHL1    H3 4072   2.548   1.704   7.044  2.3813  0.8789 -0.0723
   56CHL1    O3 4073   2.495   1.797   6.870  0.2211  0.1346 -0.7465
   56CHL1   H3' 4074   2.588   1.807   6.848  0.4370 -0.2114 -0.0380
   56CHL1    C4 4075   2.361   1.805   7.081 -0.7055  0.9820  0.0604
   56CHL1   H4A 4076   2.299   1.894   7.059  0.2891  1.3150 -1.5916
   56CHL1   H4B 4077   2.309   1.715   7.040  2.5936  0.0292 -2.5228
   56CHL1    C5 4078   2.382   1.809   7.233  0.2630  0.4178 -0.4764
   56CHL1    C6 4079   2.339   1.712   7.316  0.0089  0.1165  0.0211
   56CHL1    H6 4080   2.280   1.630   7.274  1.5385 -0.9504 -0.1169
   56CHL1    C7 4081   2.350   1.720   7.464 -0.6628 -0.3141 -0.4150
   56CHL1   H7A 4082   2.260   1.675   7.512 -0.9882  0.6169 -0.1446
   56CHL1   H7B 4083   2.430   1.648   7.492 -0.2487  0.6553  0.9687
   56CHL1    C8 4084   2.368   1.867   7.513 -0.1194 -0.0704 -0.1116
   56CHL1    H8 4085   2.271   1.920   7.502 -0.2038  0.9380  4.0251
   56CHL1   C14 4086   2.409   1.863   7.662  0.3893 -0.2564  0.1339
   56CHL1   H14 4087   2.491   1.787   7.662  1.1278  0.5218  1.2258
   56CHL1   C15 4088   2.312   1.796   7.760  0.8424  0.0869 -0.0228
   56CHL1  H15A 4089   2.212   1.836   7.731  1.1916 -0.4456 -2.0944
   56CHL1  H15B 4090   2.301   1.686   7.752  1.4866 -0.0058  0.2741
   56CHL1   C16 4091   2.360   1.834   7.901  0.3885  0.5051 -0.4650
   56CHL1  H16A 4092   2.276   1.854   7.970  0.9568  0.0105  0.3825
   56CHL1  H16B 4093   2.415   1.747   7.942 -0.9208 -1.0499 -1.8892
   56CHL1   C17 4094   2.469   1.943   7.877 -0.4912 -0.9294 -0.2615
   56CHL1   H17 4095   2.569   1.894   7.881 -0.0406  0.0199  2.5290
   56CHL1   C13 4096   2.451   1.990   7.725  0.2357  0.2358 -0.3748
   56CHL1   C18 4097   2.333   2.094   7.711 -0.0154  0.3455  0.0129
   56CHL1  H18A 4098   2.361   2.184   7.770  0.7011  0.3360 -0.3023
   56CHL1  H18B 4099   2.319   2.120   7.604  2.3721  1.6542 -0.0455
   56CHL1  H18C 4100   2.238   2.058   7.756 -1.0309  2.4999 -0.3064
   56CHL1   C12 4101   2.577   2.044   7.656  0.5945  0.2893 -0.2261
   56CHL1  H12A 4102   2.602   2.146   7.694 -0.9551  0.4716  0.3680
   56CHL1  H12B 4103   2.660   1.971   7.666  0.0869 -0.8459 -3.1918
   56CHL1   C11 4104   2.547   2.063   7.501 -0.1962 -0.3413 -0.9987
   56CHL1  H11A 4105   2.482   2.150   7.482  0.6960  0.3771 -0.8490
   56CHL1  H11B 4106   2.643   2.074   7.447  0.2152  1.7272  0.0591
   56CHL1    C9 4107   2.483   1.934   7.432 -0.3163 -0.3450 -0.1965
   56CHL1    H9 4108   2.567   1.862   7.439  0.1626  0.2353  0.1719
   56CHL1   C10 4109   2.451   1.941   7.282  0.1709  0.4368  0.1725
   56CHL1   C19 4110   2.366   2.065   7.255  0.1216 -0.5409 -0.4283
   56CHL1  H19A 4111   2.391   2.162   7.304 -0.5834 -0.5952  0.0485
   56CHL1  H19B 4112   2.371   2.087   7.146 -1.1827  0.1105 -0.3755
   56CHL1  H19C 4113   2.259   2.052   7.280  0.1543  0.8784  0.6048
   56CHL1    C1 4114   2.584   1.952   7.207 -1.0313  0.0830  0.9209
   56CHL1   H1A 4115   2.630   2.053   7.222  0.7142 -0.2667 -1.4492
   56CHL1   H1B 4116   2.653   1.873   7.245  0.6795  1.6232  1.2043
   56CHL1    C2 4117   2.568   1.935   7.055  0.6078  0.4416 -0.7131
   56CHL1   H2A 4118   2.668   1.932   7.006  1.6873 -1.2940  1.4215
   56CHL1   H2B 4119   2.503   2.016   7.016  1.6065  1.2557 -0.7344
   56CHL1   C20 4120   2.489   2.058   7.979  1.1201  0.3713  0.1053
   56CHL1   H20 4121   2.546   2.139   7.928 -1.2325  1.0622 -1.6026
   56CHL1   C21 4122   2.578   2.001   8.097  0.1030 -0.1949  0.3554
   56CHL1  H21A 4123   2.660   1.937   8.058 -2.3896 -2.3870 -1.7079
   56CHL1  H21B 4124   2.520   1.928   8.158 -0.2379  0.4249  0.7814
   56CHL1  H21C 4125   2.621   2.084   8.157  3.1734 -1.7221  0.4670
   56CHL1   C22 4126   2.364   2.131   8.044  0.3034 -0.3020  0.7260
   56CHL1  H22A 4127   2.307   2.174   7.959  3.0282  0.2181 -1.0003
   56CHL1  H22B 4128   2.304   2.056   8.099  0.7254  0.5653  2.4312
   56CHL1   C23 4129   2.402   2.255   8.132  0.0287 -0.3804 -0.2256
   56CHL1  H23A 4130   2.311   2.289   8.187 -0.5824 -1.4208 -0.5724
   56CHL1  H23B 4131   2.486   2.241   8.203  1.1928 -1.3194 -1.7352
   56CHL1   C24 4132   2.460   2.372   8.050  0.4758  0.0781 -0.1175
   56CHL1  H24A 4133   2.561   2.337   8.020  1.4862  2.3794  0.3423
   56CHL1  H24B 4134   2.397   2.380   7.959 -1.9408  0.9705  1.5404
   56CHL1   C25 4135   2.476   2.516   8.115  0.7270 -0.0423 -0.7670
   56CHL1   H25 4136   2.522   2.505   8.215 -2.3454  0.6438  0.8601
   56CHL1   C26 4137   2.567   2.595   8.034 -0.6281 -0.2715  0.2124
   56CHL1  H26A 4138   2.643   2.534   7.979  0.7493 -0.4218  2.1922
   56CHL1  H26B 4139   2.614   2.677   8.092 -1.4194  1.3578 -1.3626
   56CHL1  H26C 4140   2.509   2.647   7.955 -1.6810  1.6884  2.1845
   56CHL1   C27 4141   2.347   2.581   8.146  0.5416  0.4268 -0.3464
   56CHL1  H27A 4142   2.279   2.529   8.216  2.0229  0.5143  1.2211
   56CHL1  H27B 4143   2.386   2.681   8.178  0.4362  0.4724 -0.3617
   56CHL1  H27C 4144   2.295   2.589   8.048 -0.9958 -0.4103  0.3757
   57SAPC     N 4145   5.500   4.983  11.249 -0.4901  0.6353  0.3734
   57SAPC   C12 4146   5.508   5.028  11.108 -0.1874 -0.2766  0.0190
   57SAPC  H12A 4147   5.610   5.057  11.085 -0.6386  0.9628 -0.4930
   57SAPC  H12B 4148   5.452   5.120  11.101 -1.3782 -0.9688  0.1890
   57SAPC   C13 4149   5.568   4.849  11.259  0.1147 -0.6592  0.1526
   57SAPC  H13A 4150   5.536   4.789  11.176 -0.1315 -2.4596  1.4723
   57SAPC  H13B 4151   5.675   4.857  11.258  0.1107 -0.1983  1.4590
   57SAPC  H13C 4152   5.538   4.803  11.352  1.3905 -1.7305  0.0620
   57SAPC   C14 4153   5.570   5.088  11.329  0.0832  0.5775 -0.1101
   57SAPC  H14A 4154   5.673   5.104  11.303  0.6293  0.0101  1.5689
   57SAPC  H14B 4155   5.513   5.179  11.328 -2.2881 -0.8218 -0.2220
   57SAPC  H14C 4156   5.571   5.059  11.433  0.7834  0.2487 -0.2041
   57SAPC   C15 4157   5.356   4.965  11.299  0.1590  0.4067 -0.3479
   57SAPC  H15A 4158   5.315   4.879  11.248  1.2145 -0.3658  0.0704
   57SAPC  H15B 4159   5.351   4.945  11.405 -1.3723  1.4963 -0.1779
   57SAPC  H15C 4160   5.289   5.048  11.281 -2.3417 -1.3501  0.4153
   57SAPC   C11 4161   5.464   4.927  10.999  0.5326 -0.1753  0.5702
   57SAPC  H11A 4162   5.453   4.996  10.912  2.0314 -0.7800 -0.1234
   57SAPC  H11B 4163   5.362   4.888  11.019 -1.3919  2.9139 -2.1509
   57SAPC     P 4164   5.687   4.858  10.882  0.2071 -0.3361 -0.1171
   57SAPC   O13 4165   5.727   4.997  10.906  0.7068  0.6029 -0.6402
   57SAPC   O14 4166   5.795   4.765  10.888  0.1537 -0.1612 -0.2170
   57SAPC   O12 4167   5.563   4.823  10.980  0.0749 -0.1500 -0.2216
   57SAPC   O11 4168   5.629   4.846  10.732 -0.2920  0.1826 -0.3408
   57SAPC    C1 4169   5.521   4.752  10.705  0.4708  1.1801 -0.1140
   57SAPC    HA 4170   5.557   4.648  10.724 -0.1678  1.0486  0.3994
   57SAPC    HB 4171   5.444   4.776  10.781  3.0011 -1.5747  3.7415
   57SAPC    C2 4172   5.467   4.769  10.559  0.1248  0.3896 -1.0870
   57SAPC    HS 4173   5.373   4.710  10.554  0.3119 -0.4766  2.5976
   57SAPC   O21 4174   5.554   4.723  10.456 -0.0798  0.1221 -0.3409
   57SAPC   C21 4175   5.654   4.640  10.469 -0.2083 -0.1401  0.8705
   57SAPC   O22 4176   5.693   4.577  10.564 -0.4414  0.2750  0.4582
   57SAPC   C22 4177   5.717   4.630  10.327 -0.4603  0.8153 -0.4767
   57SAPC   H2R 4178   5.663   4.691  10.251 -2.2045 -0.1468 -0.0437
   57SAPC   H2S 4179   5.821   4.671  10.330 -1.0808  2.4189  0.3495
   57SAPC    C3 4180   5.427   4.917  10.539 -0.4885 -0.0967  0.4018
   57SAPC    HX 4181   5.502   4.995  10.562 -3.5671  3.1254  0.3726
   57SAPC    HY 4182   5.356   4.936  10.622 -1.2607  2.7723 -0.7950
   57SAPC   O31 4183   5.368   4.953  10.404 -0.2418  0.4434  0.1816
   57SAPC   C31 4184   5.444   5.014  10.320  0.2602 -0.0024  0.1482
   57SAPC   O32 4185   5.561   5.043  10.328 -0.7840  0.1367  0.2875
   57SAPC   C32 4186   5.343   5.045  10.203 -0.0984  0.2628  0.1017
   57SAPC   H2X 4187   5.296   5.143  10.226  1.5194  1.3284 -0.9454
   57SAPC   H2Y 4188   5.266   4.967  10.188  0.1659 -0.0098  0.1457
   57SAPC   C23 4189   5.728   4.485  10.265 -0.2072 -0.4801 -0.2697
   57SAPC   H3R 4190   5.627   4.439  10.265 -0.1636 -0.7198 -2.5480
   57SAPC   H3S 4191   5.796   4.426  10.330 -0.2498 -0.0488  0.1699
   57SAPC   C24 4192   5.777   4.478  10.117 -0.1389  0.1022  0.1703
   57SAPC   H4R 4193   5.795   4.371  10.094 -1.9828  0.1422 -1.8190
   57SAPC   H4S 4194   5.871   4.536  10.104 -1.1709  2.0016  0.7405
   57SAPC   C25 4195   5.683   4.539  10.017  0.2195 -0.4155  0.9806
   57SAPC   H5R 4196   5.627   4.624  10.057  1.1366  0.7368 -0.1179
   57SAPC   C26 4197   5.663   4.499   9.890  0.0711  0.0648  0.1213
   57SAPC   H6R 4198   5.572   4.536   9.841  0.3992 -0.3212 -0.8166
   57SAPC   C27 4199   5.729   4.373   9.827  0.4397  0.1149  0.4572
   57SAPC   H7R 4200   5.652   4.303   9.787  2.0325 -0.6766 -1.3717
   57SAPC   H7S 4201   5.781   4.307   9.900 -1.2053 -1.9012 -0.0852
   57SAPC   C28 4202   5.823   4.411   9.717  0.8697  0.4255 -0.3061
   57SAPC   H8R 4203   5.917   4.458   9.751  0.7079  0.6474 -0.1678
   57SAPC   C29 4204   5.803   4.384   9.587 -0.8751 -0.8084 -0.3959
   57SAPC   H9R 4205   5.881   4.415   9.516 -0.9564 -2.3451 -1.2047
   57SAPC  C210 4206   5.689   4.318   9.515 -0.1858  0.5389 -0.6552
   57SAPC  H10R 4207   5.623   4.279   9.596  0.8018  1.8403  0.8196
   57SAPC  H10S 4208   5.728   4.234   9.454 -1.3529  0.0111 -0.7139
   57SAPC  C211 4209   5.611   4.396   9.416 -0.6520 -0.3810  0.4071
   57SAPC  H11R 4210   5.536   4.459   9.465 -0.3609  1.1362 -1.0294
   57SAPC  C212 4211   5.608   4.399   9.281 -0.1158  0.1216 -0.3943
   57SAPC  H12R 4212   5.532   4.462   9.232  0.2028  0.5646 -0.3327
   57SAPC  C213 4213   5.692   4.325   9.181  0.4240  0.0784  0.2774
   57SAPC  H13R 4214   5.772   4.268   9.231  0.8230 -1.6581 -2.1454
   57SAPC  H13S 4215   5.746   4.394   9.112  0.5967 -1.2256 -0.9375
   57SAPC  C214 4216   5.619   4.212   9.110  0.0478 -0.8221  0.1239
   57SAPC  H14R 4217   5.646   4.114   9.152  1.8951 -0.9584 -1.2545
   57SAPC  C215 4218   5.527   4.218   9.007 -0.2895 -0.4964  0.2797
   57SAPC  H15R 4219   5.476   4.123   8.988 -1.2283  0.1477 -0.4984
   57SAPC  C216 4220   5.481   4.334   8.929 -0.5496  0.3445  0.5339
   57SAPC  H16R 4221   5.525   4.424   8.976 -0.4324 -0.6042  2.3368
   57SAPC  H16S 4222   5.372   4.354   8.941 -0.3572  2.5288 -0.7884
   57SAPC  C217 4223   5.518   4.330   8.776 -0.3458  0.2283  0.4693
   57SAPC  H17R 4224   5.506   4.236   8.718 -1.7876  1.2463 -0.9425
   57SAPC  H17S 4225   5.625   4.360   8.782  0.3640 -1.1749 -2.6550
   57SAPC  C218 4226   5.458   4.457   8.696 -0.0125  0.7586  0.0755
   57SAPC  H18R 4227   5.475   4.552   8.752 -0.3362  0.7624  0.1668
   57SAPC  H18S 4228   5.349   4.443   8.685  0.4216 -1.4679 -2.2356
   57SAPC  C219 4229   5.510   4.471   8.553 -0.3536 -0.0198 -0.3829
   57SAPC  H19R 4230   5.476   4.380   8.500  0.1156 -1.8092  2.2087
   57SAPC  H19S 4231   5.621   4.471   8.559 -0.4217  0.5127  1.6919
   57SAPC  C220 4232   5.447   4.598   8.496  0.3097  0.4382  0.1636
   57SAPC  H20R 4233   5.438   4.679   8.572  0.9471 -0.9009  1.7490
   57SAPC  H20S 4234   5.346   4.576   8.456 -0.1058  0.4310  1.1879
   57SAPC  H20T 4235   5.516   4.639   8.419  0.0833 -0.2295 -0.4042
   57SAPC   C33 4236   5.408   5.056  10.066 -0.4793  0.1160  0.2937
   57SAPC   H3X 4237   5.480   5.140  10.059  1.2368 -1.2700  0.7602
   57SAPC   H3Y 4238   5.332   5.060   9.985  1.5296 -1.0355 -1.7677
   57SAPC   C34 4239   5.481   4.922  10.034  0.1774  0.2570 -0.1785
   57SAPC   H4X 4240   5.407   4.842  10.050  0.6848 -0.0168  0.8702
   57SAPC   H4Y 4241   5.564   4.909  10.107  1.9014  0.8100 -1.9236
   57SAPC   C35 4242   5.542   4.925   9.887 -0.1993  0.0057  0.1136
   57SAPC   H5X 4243   5.640   4.873   9.894 -0.8566 -1.1362  1.2358
   57SAPC   H5Y 4244   5.572   5.031   9.873  1.9415 -0.4976  0.4880
   57SAPC   C36 4245   5.448   4.863   9.784  0.0152  0.2190 -0.1888
   57SAPC   H6X 4246   5.344   4.897   9.802 -0.6619 -2.3616  1.2346
   57SAPC   H6Y 4247   5.461   4.754   9.799 -0.6095  0.1625 -0.0740
   57SAPC   C37 4248   5.496   4.885   9.639  0.1755  0.7578 -0.0943
   57SAPC   H7X 4249   5.485   4.994   9.621 -0.6321  0.9243  1.2301
   57SAPC   H7Y 4250   5.414   4.842   9.576  1.0558 -1.4580  0.1647
   57SAPC   C38 4251   5.631   4.811   9.603  0.1793 -0.1892 -0.3007
   57SAPC   H8X 4252   5.621   4.702   9.619  0.7367 -0.4422 -1.5569
   57SAPC   H8Y 4253   5.701   4.849   9.680 -1.8536 -0.4558  1.7921
   57SAPC   C39 4254   5.683   4.836   9.459 -0.4078 -0.1500  0.0357
   57SAPC   H9X 4255   5.789   4.809   9.446 -0.6893 -0.6723 -1.3764
   57SAPC   H9Y 4256   5.686   4.943   9.429  1.1888 -0.3239 -0.4950
   57SAPC  C310 4257   5.598   4.777   9.343 -0.5920 -0.4535  0.3408
   57SAPC  H10X 4258   5.492   4.803   9.364 -1.0451 -2.2466  0.4568
   57SAPC  H10Y 4259   5.598   4.666   9.334 -2.0141 -0.7015  2.4493
   57SAPC  C311 4260   5.640   4.829   9.205  0.5521 -0.4711  0.0876
   57SAPC  H11X 4261   5.748   4.808   9.195  0.7043 -0.9414  2.2715
   57SAPC  H11Y 4262   5.624   4.939   9.205 -2.1943 -0.7410  2.3685
   57SAPC  C312 4263   5.576   4.759   9.093  0.0809  0.0718 -0.1742
   57SAPC  H12X 4264   5.465   4.756   9.089  0.0733  0.9476 -0.8295
   57SAPC  H12Y 4265   5.593   4.649   9.096 -0.7165 -0.0346  1.0771
   57SAPC  C313 4266   5.634   4.805   8.958  0.6159  0.1705 -0.1655
   57SAPC  H13X 4267   5.684   4.904   8.962  0.6952  0.2263 -1.6757
   57SAPC  H13Y 4268   5.556   4.803   8.879 -0.1489 -0.0204  0.5795
   57SAPC  C314 4269   5.744   4.707   8.910  0.0908 -0.1011 -0.3593
   57SAPC  H14X 4270   5.690   4.618   8.871 -0.7508 -0.0881  0.7260
   57SAPC  H14Y 4271   5.812   4.676   8.991  0.5690  0.5068 -0.5172
   57SAPC  C315 4272   5.836   4.767   8.795  0.2007  0.5581 -0.5311
   57SAPC  H15X 4273   5.922   4.697   8.780 -2.0597 -2.2666 -1.1908
   57SAPC  H15Y 4274   5.865   4.872   8.814 -0.4798  1.1353 -2.4271
   57SAPC  C316 4275   5.751   4.764   8.667 -0.0662 -0.2568 -0.1309
   57SAPC  H16X 4276   5.674   4.844   8.666  2.3538  2.2519  0.7915
   57SAPC  H16Y 4277   5.698   4.666   8.672  0.3123 -0.3900  3.6467
   57SAPC  C317 4278   5.831   4.779   8.532  0.1637  0.6190  0.1008
   57SAPC  H17X 4279   5.905   4.696   8.521 -1.0885 -1.1340  3.4751
   57SAPC  H17Y 4280   5.887   4.874   8.523  1.1493 -0.0997 -2.3434
   57SAPC  C318 4281   5.754   4.764   8.405  0.0428 -0.1628  0.5841
   57SAPC  H18X 4282   5.659   4.820   8.410  0.7807  1.3424 -0.8906
   57SAPC  H18Y 4283   5.745   4.655   8.384  1.4076 -0.5046  1.5661
   57SAPC  H18Z 4284   5.805   4.806   8.315  0.1579  1.8942  1.5561
   58SAPC     N 4285   1.765   1.333  10.922 -0.6467 -0.6452  0.7611
   58SAPC   C12 4286   1.718   1.478  10.906 -0.1828 -0.9495 -0.3447
   58SAPC  H12A 4287   1.806   1.539  10.919  0.7829 -2.6403  1.7857
   58SAPC  H12B 4288   1.649   1.496  10.987 -1.4291 -3.0791 -0.8553
   58SAPC   C13 4289   1.802   1.317  11.065  0.1367  0.6692  0.6824
   58SAPC  H13A 4290   1.821   1.214  11.092 -0.4409  0.0490 -1.1582
   58SAPC  H13B 4291   1.895   1.367  11.085  1.7732 -1.6785 -0.6186
   58SAPC  H13C 4292   1.715   1.344  11.124 -0.2308  0.1687  0.3742
   58SAPC   C14 4293   1.650   1.243  10.879  0.4501 -0.0592 -0.1979
   58SAPC  H14A 4294   1.675   1.139  10.894 -0.7075 -0.0778  2.0854
   58SAPC  H14B 4295   1.562   1.259  10.940  0.4315  0.0431 -0.2508
   58SAPC  H14C 4296   1.607   1.260  10.782 -1.2740  0.9413  0.6923
   58SAPC   C15 4297   1.885   1.308  10.837  0.4174  0.8680  0.3211
   58SAPC  H15A 4298   1.927   1.212  10.861 -0.6212 -0.0240 -1.2299
   58SAPC  H15B 4299   1.857   1.304  10.733  1.7222 -1.8351 -0.0048
   58SAPC  H15C 4300   1.953   1.392  10.841  1.0941  0.3770 -0.6089
   58SAPC   C11 4301   1.652   1.518  10.775 -0.5403  0.5076 -0.2594
   58SAPC  H11A 4302   1.711   1.504  10.682 -0.8257 -0.3012 -0.3271
   58SAPC  H11B 4303   1.639   1.628  10.772  2.6797  0.9575 -2.1228
   58SAPC     P 4304   1.397   1.513  10.813 -0.0887 -0.0417  0.0001
   58SAPC   O13 4305   1.306   1.402  10.852  0.0255  0.5940 -0.2459
   58SAPC   O14 4306   1.424   1.610  10.921 -0.4051 -0.3209 -0.7100
   58SAPC   O12 4307   1.530   1.453  10.753  0.0736  0.3700 -0.1102
   58SAPC   O11 4308   1.329   1.585  10.692  0.9617 -0.8759  0.4295
   58SAPC    C1 4309   1.405   1.622  10.579 -0.4425 -0.8881  0.5801
   58SAPC    HA 4310   1.367   1.723  10.554  0.6680 -0.6497 -0.2377
   58SAPC    HB 4311   1.514   1.640  10.595 -0.5327  0.2382  0.0108
   58SAPC    C2 4312   1.363   1.543  10.452  0.6566  0.4188 -0.4953
   58SAPC    HS 4313   1.389   1.436  10.468  1.6834  0.7379  0.1013
   58SAPC   O21 4314   1.441   1.581  10.342 -0.3245 -0.3066 -0.1438
   58SAPC   C21 4315   1.570   1.573  10.350 -1.1457 -0.2460 -0.4323
   58SAPC   O22 4316   1.639   1.528  10.440 -0.4093  0.0325  0.8375
   58SAPC   C22 4317   1.622   1.651  10.229  0.7650  0.8401  0.3561
   58SAPC   H2R 4318   1.583   1.753  10.209  3.5709  1.2790 -4.4963
   58SAPC   H2S 4319   1.733   1.659  10.230  0.9287 -0.0032 -2.1298
   58SAPC    C3 4320   1.214   1.542  10.423  0.0728 -0.1282 -0.0699
   58SAPC    HX 4321   1.181   1.646  10.400 -1.9101 -1.0495 -1.7229
   58SAPC    HY 4322   1.165   1.511  10.518  3.5057 -1.4201  1.4531
   58SAPC   O31 4323   1.174   1.460  10.310  0.0431  0.3061 -0.2779
   58SAPC   C31 4324   1.173   1.325  10.334 -0.0564 -0.2567 -0.6029
   58SAPC   O32 4325   1.203   1.274  10.439 -0.3465  0.4358 -0.3028
   58SAPC   C32 4326   1.139   1.250  10.208  0.1098  0.7360 -0.7360
   58SAPC   H2X 4327   1.109   1.323  10.130  2.1793 -1.2863 -3.6505
   58SAPC   H2Y 4328   1.052   1.185  10.231  0.4775  0.5637  0.2075
   58SAPC   C23 4329   1.589   1.567  10.100  0.1332 -0.1286 -0.4872
   58SAPC   H3R 4330   1.590   1.640  10.016  0.8580 -2.2807 -2.4690
   58SAPC   H3S 4331   1.485   1.530  10.099 -0.3528  1.0069 -3.8302
   58SAPC   C24 4332   1.682   1.444  10.083  0.1151  1.0652  0.3804
   58SAPC   H4R 4333   1.676   1.385  10.176 -2.1244 -0.0310 -0.3948
   58SAPC   H4S 4334   1.783   1.491  10.079 -0.9085  3.3358 -0.4563
   58SAPC   C25 4335   1.636   1.357   9.962  0.0831 -0.2678 -0.5194
   58SAPC   H5R 4336   1.564   1.278   9.985 -0.0352 -0.4511 -1.4748
   58SAPC   C26 4337   1.687   1.364   9.842  0.7317 -0.2831 -0.3357
   58SAPC   H6R 4338   1.635   1.303   9.767 -1.8312  0.1288  1.0158
   58SAPC   C27 4339   1.807   1.433   9.791 -0.4333 -1.0123  0.6118
   58SAPC   H7R 4340   1.830   1.507   9.871 -1.8525  2.2495 -1.7332
   58SAPC   H7S 4341   1.773   1.499   9.708 -1.6025  0.4100  2.1292
   58SAPC   C28 4342   1.938   1.360   9.756  0.0757  0.3510  0.2147
   58SAPC   H8R 4343   1.993   1.305   9.833 -1.0186 -2.0031 -0.6084
   58SAPC   C29 4344   1.998   1.350   9.640 -0.4098  0.1137 -0.2648
   58SAPC   H9R 4345   2.090   1.290   9.630  0.6080  1.7386 -1.1688
   58SAPC  C210 4346   1.972   1.401   9.500  0.0673  0.2854 -0.2997
   58SAPC  H10R 4347   2.054   1.470   9.469 -0.6002  2.5933  2.5505
   58SAPC  H10S 4348   1.885   1.470   9.503 -0.2979 -0.2028  1.8104
   58SAPC  C211 4349   1.958   1.290   9.398 -0.8018 -0.1930  0.8809
   58SAPC  H11R 4350   2.003   1.193   9.424  1.2703  0.4736  0.0581
   58SAPC  C212 4351   1.906   1.311   9.275  0.6466  0.8978  0.5286
   58SAPC  H12R 4352   1.909   1.230   9.200 -0.6433  2.5023 -1.3737
   58SAPC  C213 4353   1.859   1.438   9.213  0.2060 -0.3102  0.0201
   58SAPC  H13R 4354   1.856   1.512   9.296  2.5702  3.1147 -2.6975
   58SAPC  H13S 4355   1.754   1.434   9.176  0.1643  0.2009  0.0708
   58SAPC  C214 4356   1.952   1.495   9.105  0.4708 -0.7121  0.0508
   58SAPC  H14R 4357   2.052   1.525   9.142 -0.3024  3.9549 -0.9894
   58SAPC  C215 4358   1.927   1.524   8.975 -0.0645  0.4563 -0.0245
   58SAPC  H15R 4359   1.995   1.590   8.920  0.0314  0.0013 -0.4650
   58SAPC  C216 4360   1.796   1.510   8.905 -0.1845 -0.2197 -0.2531
   58SAPC  H16R 4361   1.735   1.593   8.946 -1.6026 -2.2843  2.0776
   58SAPC  H16S 4362   1.744   1.414   8.924 -2.0826  0.7946 -0.1370
   58SAPC  C217 4363   1.811   1.522   8.753 -0.5830  0.0158  0.5103
   58SAPC  H17R 4364   1.868   1.436   8.711 -1.1129  0.4893 -1.2739
   58SAPC  H17S 4365   1.852   1.617   8.712 -0.3142 -0.8622 -1.3531
   58SAPC  C218 4366   1.673   1.495   8.686  0.5819 -0.1103  0.5462
   58SAPC  H18R 4367   1.598   1.562   8.732  1.9685  2.5369 -0.8202
   58SAPC  H18S 4368   1.642   1.400   8.734 -0.0783  0.4938  1.3281
   58SAPC  C219 4369   1.676   1.491   8.533  0.0553  0.7014 -0.3460
   58SAPC  H19R 4370   1.744   1.412   8.495  1.8985  1.4925  1.1310
   58SAPC  H19S 4371   1.712   1.591   8.501  0.7150  0.6156  0.1138
   58SAPC  C220 4372   1.534   1.473   8.478 -0.0448 -0.6112 -0.5276
   58SAPC  H20R 4373   1.463   1.557   8.491  0.6836 -0.0986  0.1886
   58SAPC  H20S 4374   1.489   1.386   8.532 -1.7386  1.4300  1.5619
   58SAPC  H20T 4375   1.534   1.449   8.369 -0.5963 -0.1265 -0.6428
   58SAPC   C33 4376   1.256   1.182  10.135 -1.0478  0.8718 -0.2633
   58SAPC   H3X 4377   1.294   1.104  10.205 -0.4080  0.5051 -0.9983
   58SAPC   H3Y 4378   1.347   1.245  10.123  0.3519 -0.3069  3.0048
   58SAPC   C34 4379   1.222   1.123   9.998  0.2752  0.0964 -0.1314
   58SAPC   H4X 4380   1.193   1.203   9.927  0.3755 -0.2640 -0.5806
   58SAPC   H4Y 4381   1.136   1.057  10.024 -2.9029  3.4612 -1.2553
   58SAPC   C35 4382   1.340   1.045   9.946  0.4307 -0.7448  0.1474
   58SAPC   H5X 4383   1.375   0.963  10.013 -0.2659 -0.2143  1.2072
   58SAPC   H5Y 4384   1.433   1.106   9.945  0.9899 -1.4407 -3.4781
   58SAPC   C36 4385   1.306   0.998   9.805 -0.3910 -0.3365  0.0144
   58SAPC   H6X 4386   1.328   1.078   9.732 -1.5336  0.8732  0.9313
   58SAPC   H6Y 4387   1.201   0.963   9.793 -0.1653 -0.2885 -2.4583
   58SAPC   C37 4388   1.390   0.876   9.777 -1.0476 -0.2557  0.0427
   58SAPC   H7X 4389   1.379   0.812   9.868  0.1371 -1.6186 -0.7223
   58SAPC   H7Y 4390   1.495   0.914   9.773 -1.8757  2.0605 -1.8475
   58SAPC   C38 4391   1.355   0.800   9.655 -0.3412 -0.3734 -0.3741
   58SAPC   H8X 4392   1.245   0.782   9.659 -0.8446  2.3936  0.2362
   58SAPC   H8Y 4393   1.410   0.703   9.660  0.2390 -0.1318 -1.7002
   58SAPC   C39 4394   1.386   0.884   9.536 -0.6866  0.0802 -0.3024
   58SAPC   H9X 4395   1.494   0.905   9.523  0.0846 -2.0222  1.8335
   58SAPC   H9Y 4396   1.340   0.985   9.538  0.7737  0.7908 -0.9776
   58SAPC  C310 4397   1.324   0.823   9.405 -0.7693  0.6344 -0.6026
   58SAPC  H10X 4398   1.334   0.903   9.328  0.2108  1.1543  0.0484
   58SAPC  H10Y 4399   1.215   0.809   9.420 -0.7393 -0.8955 -1.5199
   58SAPC  C311 4400   1.396   0.691   9.358  0.3979  0.5722 -0.2671
   58SAPC  H11X 4401   1.365   0.607   9.424 -1.7476  2.2700  1.0117
   58SAPC  H11Y 4402   1.507   0.693   9.354  0.4731 -1.2298 -0.1903
   58SAPC  C312 4403   1.350   0.651   9.214  0.2133  0.4376 -0.6072
   58SAPC  H12X 4404   1.380   0.724   9.136  3.4052 -0.7906 -0.6964
   58SAPC  H12Y 4405   1.241   0.647   9.195  0.2836 -1.8978 -0.8514
   58SAPC  C313 4406   1.395   0.512   9.173 -0.2053  0.2406  0.5839
   58SAPC  H13X 4407   1.357   0.447   9.255 -0.9782  0.0685  0.1001
   58SAPC  H13Y 4408   1.505   0.512   9.182 -0.0464  0.6915 -1.0311
   58SAPC  C314 4409   1.361   0.459   9.028  0.4554 -0.3635 -0.4218
   58SAPC  H14X 4410   1.257   0.419   9.024  0.6937 -0.9545 -0.9368
   58SAPC  H14Y 4411   1.433   0.377   9.005  0.7902 -0.0643 -0.4484
   58SAPC  C315 4412   1.385   0.567   8.919  0.8064  0.0243 -0.1797
   58SAPC  H15X 4413   1.311   0.647   8.941  0.0358 -0.1563 -1.9444
   58SAPC  H15Y 4414   1.362   0.530   8.817  3.8909 -0.4825 -0.7821
   58SAPC  C316 4415   1.522   0.623   8.923 -0.4673  0.6299 -0.2561
   58SAPC  H16X 4416   1.582   0.531   8.938 -2.2547 -0.7973 -1.3595
   58SAPC  H16Y 4417   1.532   0.688   9.012  1.9995 -0.8338  0.6260
   58SAPC  C317 4418   1.549   0.696   8.796  0.4215 -0.1231 -0.0214
   58SAPC  H17X 4419   1.520   0.635   8.707  2.5165 -1.2202 -0.0170
   58SAPC  H17Y 4420   1.657   0.721   8.789  0.3138  0.7872  1.1992
   58SAPC  C318 4421   1.475   0.832   8.778  0.1569  0.4751  0.4719
   58SAPC  H18X 4422   1.451   0.878   8.877 -2.7473  0.2640 -0.0341
   58SAPC  H18Y 4423   1.373   0.823   8.734  0.9336  1.8395 -1.7535
   58SAPC  H18Z 4424   1.531   0.907   8.718  1.1460  0.6257  1.5450
   59SAPC     N 4425   1.966   3.265  11.540  0.9559 -0.0875  0.3068
   59SAPC   C12 4426   2.023   3.398  11.491  0.3533  0.1868 -0.8949
   59SAPC  H12A 4427   2.060   3.443  11.582 -0.4337 -2.5101  0.8696
   59SAPC  H12B 4428   1.942   3.457  11.450 -0.9498 -1.7128 -1.1975
   59SAPC   C13 4429   1.890   3.204  11.429 -0.2194 -0.4299 -0.1872
   59SAPC  H13A 4430   1.852   3.106  11.454 -0.8090 -0.0420  0.4761
   59SAPC  H13B 4431   1.808   3.267  11.398 -0.1718 -0.5927 -0.6427
   59SAPC  H13C 4432   1.943   3.196  11.335 -0.0877 -0.7698 -0.0858
   59SAPC   C14 4433   2.071   3.166  11.591 -0.3533 -0.6790  0.7809
   59SAPC  H14A 4434   2.028   3.067  11.598 -1.1577 -0.3669  0.3946
   59SAPC  H14B 4435   2.152   3.167  11.519  0.4526 -1.0800  1.6529
   59SAPC  H14C 4436   2.104   3.205  11.686 -0.3364 -1.2058  0.9920
   59SAPC   C15 4437   1.873   3.292  11.649 -0.0273  0.3556  0.0262
   59SAPC  H15A 4438   1.784   3.345  11.619 -0.4595 -0.7220 -0.6958
   59SAPC  H15B 4439   1.853   3.200  11.702  1.2420 -0.9944 -1.7116
   59SAPC  H15C 4440   1.923   3.350  11.725 -0.2602  0.0031  0.4538
   59SAPC   C11 4441   2.142   3.393  11.393  0.2987 -0.2055  0.3505
   59SAPC  H11A 4442   2.228   3.345  11.444 -1.0068 -0.8972  1.9675
   59SAPC  H11B 4443   2.173   3.496  11.364  0.8666 -0.4332  0.1431
   59SAPC     P 4444   2.061   3.382  11.129  0.0355  0.6942 -0.3090
   59SAPC   O13 4445   2.072   3.276  11.022 -0.1969  0.5741  1.0372
   59SAPC   O14 4446   1.927   3.444  11.153 -0.2425 -0.8061 -0.5766
   59SAPC   O12 4447   2.113   3.325  11.268 -0.6567  0.3065  0.7956
   59SAPC   O11 4448   2.164   3.493  11.093  0.1663  0.7743 -0.1226
   59SAPC    C1 4449   2.298   3.471  11.073  0.3431  0.7251 -0.2909
   59SAPC    HA 4450   2.346   3.487  11.172 -0.8281 -1.2414  0.6528
   59SAPC    HB 4451   2.317   3.365  11.043 -0.1748  0.1424  1.3509
   59SAPC    C2 4452   2.358   3.565  10.973  0.0205 -0.1474 -0.2840
   59SAPC    HS 4453   2.469   3.569  10.981 -0.0030  0.0631 -0.0668
   59SAPC   O21 4454   2.306   3.695  10.997  0.2409 -0.1972  0.0309
   59SAPC   C21 4455   2.358   3.756  11.110 -0.0925 -0.5582  0.4022
   59SAPC   O22 4456   2.461   3.712  11.164  0.2305 -1.4340 -0.5194
   59SAPC   C22 4457   2.279   3.876  11.154  0.2800 -0.0619  0.1679
   59SAPC   H2R 4458   2.301   3.959  11.084 -1.4818  0.4792  0.1905
   59SAPC   H2S 4459   2.175   3.839  11.137  0.8629 -1.7120 -0.0054
   59SAPC    C3 4460   2.308   3.514  10.834  0.1499  0.2246 -0.4521
   59SAPC    HX 4461   2.324   3.603  10.769  0.9110  1.0665  0.8275
   59SAPC    HY 4462   2.199   3.492  10.836  0.4295 -1.2879 -0.7640
   59SAPC   O31 4463   2.380   3.392  10.794 -0.0315  0.2462  0.2717
   59SAPC   C31 4464   2.377   3.372  10.664  0.0715 -0.4029  0.7328
   59SAPC   O32 4465   2.325   3.445  10.579  0.1021 -0.4226  0.1654
   59SAPC   C32 4466   2.437   3.233  10.630 -0.1404 -1.2799 -0.2442
   59SAPC   H2X 4467   2.350   3.170  10.661 -0.5964  0.0105  1.2148
   59SAPC   H2Y 4468   2.522   3.214  10.699 -0.8205 -2.0921  0.3961
   59SAPC   C23 4469   2.300   3.908  11.302  0.1476  0.5240 -0.5815
   59SAPC   H3R 4470   2.281   4.016  11.323 -0.2010  0.1571  1.1074
   59SAPC   H3S 4471   2.409   3.898  11.321 -0.1387 -0.4327  0.6852
   59SAPC   C24 4472   2.235   3.813  11.397 -0.0068  0.8336  1.0867
   59SAPC   H4R 4473   2.268   3.822  11.503 -0.0702 -1.5339  1.3442
   59SAPC   H4S 4474   2.261   3.707  11.379 -0.7722  0.0918  3.8519
   59SAPC   C25 4475   2.088   3.824  11.386  0.2322 -0.1224  0.1888
   59SAPC   H5R 4476   2.049   3.798  11.287  0.5432  2.4566 -0.6907
   59SAPC   C26 4477   1.998   3.866  11.480 -0.2962 -0.1894  0.3448
   59SAPC   H6R 4478   1.890   3.859  11.458 -1.0067  0.4240  3.2090
   59SAPC   C27 4479   2.025   3.921  11.617 -0.1065  0.6846  0.0310
   59SAPC   H7R 4480   2.112   3.868  11.662 -0.1530 -0.8149 -1.5475
   59SAPC   H7S 4481   1.945   3.880  11.682 -1.0522  2.9591  0.3893
   59SAPC   C28 4482   2.058   4.067  11.627 -1.1414 -0.0230  0.1774
   59SAPC   H8R 4483   2.136   4.095  11.555 -1.8469 -0.9514 -0.9753
   59SAPC   C29 4484   1.987   4.160  11.692 -0.4456  0.3739 -0.2370
   59SAPC   H9R 4485   2.026   4.263  11.695  2.1004 -0.2448 -4.4235
   59SAPC  C210 4486   1.863   4.115  11.764  0.9608  0.4672 -0.3545
   59SAPC  H10R 4487   1.882   4.029  11.832 -1.7577  0.2705  0.2774
   59SAPC  H10S 4488   1.784   4.083  11.693  1.1286  0.5963 -0.5994
   59SAPC  C211 4489   1.784   4.225  11.839 -0.3628  0.5859 -0.3798
   59SAPC  H11R 4490   1.850   4.303  11.879  0.8099  0.7113 -2.4141
   59SAPC  C212 4491   1.649   4.241  11.837 -0.2606 -0.7907  0.1175
   59SAPC  H12R 4492   1.612   4.326  11.895 -0.4915 -1.6993  1.3332
   59SAPC  C213 4493   1.543   4.156  11.774 -0.8750 -0.0006 -0.1033
   59SAPC  H13R 4494   1.474   4.124  11.854 -0.8558 -0.6358 -0.3338
   59SAPC  H13S 4495   1.584   4.063  11.730  1.0509  0.8176 -0.1502
   59SAPC  C214 4496   1.457   4.228  11.675 -0.5052  0.0844  0.3779
   59SAPC  H14R 4497   1.492   4.204  11.573  1.8527  2.3344  0.5659
   59SAPC  C215 4498   1.357   4.312  11.698 -0.1152 -0.1915 -0.0971
   59SAPC  H15R 4499   1.311   4.370  11.617  1.4052  1.3480  0.1008
   59SAPC  C216 4500   1.316   4.363  11.835 -0.3281  0.1655  0.0024
   59SAPC  H16R 4501   1.354   4.293  11.912  1.4304 -0.4131 -1.3036
   59SAPC  H16S 4502   1.206   4.377  11.834 -0.5006 -0.9425 -1.7085
   59SAPC  C217 4503   1.382   4.501  11.877  0.3894  0.4759 -0.2224
   59SAPC  H17R 4504   1.489   4.474  11.891  0.0335 -1.1997 -0.5352
   59SAPC  H17S 4505   1.340   4.524  11.977  2.5714 -0.2443  0.9128
   59SAPC  C218 4506   1.356   4.617  11.768  0.2221 -0.1067  0.3207
   59SAPC  H18R 4507   1.249   4.609  11.739  0.2751 -1.2249  0.3998
   59SAPC  H18S 4508   1.422   4.610  11.678 -2.1126 -0.4987 -1.4491
   59SAPC  C219 4509   1.387   4.751  11.841  0.2132  0.2376  0.4187
   59SAPC  H19R 4510   1.383   4.733  11.950 -1.9063  1.2723  0.5666
   59SAPC  H19S 4511   1.306   4.824  11.819  0.9970  1.2367  0.7333
   59SAPC  C220 4512   1.535   4.801  11.820  0.0106 -0.5193 -0.3241
   59SAPC  H20R 4513   1.541   4.851  11.721 -1.0528  2.1326  0.8685
   59SAPC  H20S 4514   1.608   4.719  11.839  2.8445  1.6569 -1.0148
   59SAPC  H20T 4515   1.551   4.873  11.903 -1.5596 -1.1781  0.5954
   59SAPC   C33 4516   2.469   3.202  10.484 -0.1105 -0.0710  0.4486
   59SAPC   H3X 4517   2.371   3.208  10.433 -0.8338 -0.7194  1.6955
   59SAPC   H3Y 4518   2.507   3.097  10.480  0.1729  0.0691 -0.7924
   59SAPC   C34 4519   2.582   3.291  10.414  0.2775 -0.1820 -0.0133
   59SAPC   H4X 4520   2.662   3.328  10.481 -0.0284  0.9854 -0.2682
   59SAPC   H4Y 4521   2.535   3.382  10.370 -0.2317 -0.1713  0.5442
   59SAPC   C35 4522   2.655   3.205  10.310 -0.3376 -0.1273  0.4257
   59SAPC   H5X 4523   2.692   3.111  10.357 -2.8883 -2.0629 -1.1666
   59SAPC   H5Y 4524   2.754   3.255  10.307  0.4092 -1.5589  0.3125
   59SAPC   C36 4525   2.581   3.201  10.176  0.0638  0.6580 -0.0892
   59SAPC   H6X 4526   2.514   3.287  10.154 -2.4756 -1.4978 -1.3193
   59SAPC   H6Y 4527   2.516   3.113  10.187  3.2207 -1.8324  0.1616
   59SAPC   C37 4528   2.674   3.198  10.057 -0.0722 -0.3321 -0.1627
   59SAPC   H7X 4529   2.727   3.101  10.069 -0.8121 -0.7763 -0.4134
   59SAPC   H7Y 4530   2.745   3.283  10.053 -1.4246  0.7902 -2.4553
   59SAPC   C38 4531   2.599   3.211   9.932 -0.0932 -0.4707  0.5739
   59SAPC   H8X 4532   2.564   3.316   9.934  0.1147 -0.4135  1.9907
   59SAPC   H8Y 4533   2.510   3.145   9.919 -0.3008 -0.0421 -0.2645
   59SAPC   C39 4534   2.684   3.182   9.804 -0.4386  0.0997 -0.0795
   59SAPC   H9X 4535   2.728   3.080   9.811  0.8890  0.6481 -0.0709
   59SAPC   H9Y 4536   2.779   3.238   9.816 -0.2925 -0.3111  0.7912
   59SAPC  C310 4537   2.615   3.218   9.672  0.7914  0.4984  0.2705
   59SAPC  H10X 4538   2.556   3.311   9.681 -0.2498 -0.3598  3.5766
   59SAPC  H10Y 4539   2.546   3.133   9.655 -1.2874  1.7557  1.9917
   59SAPC  C311 4540   2.712   3.218   9.553  0.2614  0.3417 -0.2692
   59SAPC  H11X 4541   2.752   3.115   9.542 -0.5945  0.0342 -0.6284
   59SAPC  H11Y 4542   2.802   3.279   9.572  0.2484  0.3021 -0.0738
   59SAPC  C312 4543   2.655   3.247   9.417  0.1229 -0.4278  0.0433
   59SAPC  H12X 4544   2.623   3.352   9.404  1.1534 -0.1292 -0.1254
   59SAPC  H12Y 4545   2.562   3.186   9.413  0.5090 -0.9996 -0.6651
   59SAPC  C313 4546   2.753   3.217   9.302 -0.0312 -0.1276 -0.1611
   59SAPC  H13X 4547   2.764   3.107   9.290 -0.4773 -0.1464 -0.4422
   59SAPC  H13Y 4548   2.857   3.250   9.320  0.0920  0.1404 -1.2990
   59SAPC  C314 4549   2.714   3.271   9.163  0.5801 -0.1088 -0.5019
   59SAPC  H14X 4550   2.603   3.264   9.162  0.5401  0.3803  0.0143
   59SAPC  H14Y 4551   2.751   3.201   9.085 -0.9478 -1.5718  0.0389
   59SAPC  C315 4552   2.745   3.417   9.129 -0.7454 -0.0032 -0.7011
   59SAPC  H15X 4553   2.855   3.434   9.128 -0.8290  0.8960  1.0788
   59SAPC  H15Y 4554   2.707   3.487   9.207  1.0191 -0.0159  0.2132
   59SAPC  C316 4555   2.691   3.438   8.985 -0.0222  0.3397 -0.5570
   59SAPC  H16X 4556   2.582   3.413   8.987  0.5691 -2.9606  3.2815
   59SAPC  H16Y 4557   2.745   3.359   8.929  1.0427 -1.2879  2.5036
   59SAPC  C317 4558   2.723   3.574   8.918 -0.2180 -0.1158 -0.5974
   59SAPC  H17X 4559   2.834   3.586   8.919  0.5194 -4.2873  3.9319
   59SAPC  H17Y 4560   2.683   3.661   8.974 -0.8628 -0.3408 -0.7069
   59SAPC  C318 4561   2.676   3.589   8.771  0.0116  0.7241 -0.3525
   59SAPC  H18X 4562   2.721   3.676   8.719  0.5619  0.4044 -0.4125
   59SAPC  H18Y 4563   2.565   3.594   8.763 -0.1116  1.4284  1.3102
   59SAPC  H18Z 4564   2.714   3.498   8.721 -0.5634  0.3683 -0.1564
   60SAPC     N 4565   2.473   1.889  10.721  0.0687 -0.0596  0.7670
   60SAPC   C12 4566   2.500   1.908  10.564  0.0724 -0.3588  0.1938
   60SAPC  H12A 4567   2.417   1.970  10.536  0.1548  0.4768  1.7156
   60SAPC  H12B 4568   2.484   1.811  10.519  0.9500 -0.5402  0.2535
   60SAPC   C13 4569   2.457   2.023  10.786  0.0547  0.0828  0.3517
   60SAPC  H13A 4570   2.387   2.087  10.735 -0.2952 -1.2622 -0.9199
   60SAPC  H13B 4571   2.424   2.013  10.888 -0.5849 -1.8882 -0.0136
   60SAPC  H13C 4572   2.554   2.070  10.789  1.4455 -2.3394 -2.0661
   60SAPC   C14 4573   2.344   1.813  10.732 -0.7167 -0.2425 -0.4045
   60SAPC  H14A 4574   2.307   1.806  10.833 -0.8134  1.6602 -0.2601
   60SAPC  H14B 4575   2.274   1.869  10.673  0.4532  1.4407 -0.2725
   60SAPC  H14C 4576   2.364   1.716  10.690 -0.3357 -0.6124  0.5969
   60SAPC   C15 4577   2.587   1.814  10.797  0.5462 -0.0964  0.7181
   60SAPC  H15A 4578   2.566   1.801  10.903  0.9009 -0.1196  0.7856
   60SAPC  H15B 4579   2.620   1.724  10.747 -0.4210  1.0345 -2.1524
   60SAPC  H15C 4580   2.672   1.878  10.783  2.2171 -2.2047  0.6733
   60SAPC   C11 4581   2.629   1.968  10.514  0.5334 -0.0670  0.3132
   60SAPC  H11A 4582   2.644   2.064  10.569 -3.0029  0.3734  0.7729
   60SAPC  H11B 4583   2.626   2.000  10.408 -0.1322  2.2170  0.9574
   60SAPC     P 4584   2.771   1.760  10.439 -0.3014 -0.1928 -0.0199
   60SAPC   O13 4585   2.864   1.665  10.502 -0.2456  0.0722 -0.0391
   60SAPC   O14 4586   2.645   1.712  10.393  0.8375  0.2244 -0.0145
   60SAPC   O12 4587   2.744   1.878  10.544  0.3961 -0.5929  0.0409
   60SAPC   O11 4588   2.833   1.845  10.323  0.3842  0.3279 -0.4553
   60SAPC    C1 4589   2.961   1.906  10.346  0.6449 -0.7119  0.1906
   60SAPC    HA 4590   2.965   2.003  10.402  1.0706 -0.2667 -0.6020
   60SAPC    HB 4591   3.030   1.839  10.401  2.1216  0.5485 -0.0600
   60SAPC    C2 4592   3.046   1.924  10.217  0.3427 -0.0233 -0.1236
   60SAPC    HS 4593   3.139   1.980  10.240  0.4239  1.2128 -2.9095
   60SAPC   O21 4594   2.973   1.996  10.113  0.2878 -0.0152 -0.1764
   60SAPC   C21 4595   2.901   2.100  10.152 -0.4362  0.6177  0.2444
   60SAPC   O22 4596   2.921   2.174  10.243  0.0569  0.0170  0.0868
   60SAPC   C22 4597   2.794   2.125  10.054 -0.2429  0.2509  0.5429
   60SAPC   H2R 4598   2.834   2.167   9.959 -1.5463 -2.9059 -1.5951
   60SAPC   H2S 4599   2.760   2.027  10.013  2.3364 -0.0112 -1.2512
   60SAPC    C3 4600   3.088   1.778  10.166 -0.0939 -0.0003 -0.1819
   60SAPC    HX 4601   2.996   1.717  10.154 -0.6615  0.7566  0.2212
   60SAPC    HY 4602   3.155   1.726  10.238  0.0759 -0.7369 -0.8607
   60SAPC   O31 4603   3.161   1.794  10.041 -0.3691 -0.1610 -0.0342
   60SAPC   C31 4604   3.084   1.776   9.929 -0.0593  0.4781  0.1581
   60SAPC   O32 4605   2.965   1.760   9.931  0.0667 -0.1373  0.5464
   60SAPC   C32 4606   3.168   1.791   9.802 -0.1275  0.0533 -0.7143
   60SAPC   H2X 4607   3.227   1.703   9.770  0.8637  0.4531 -0.0457
   60SAPC   H2Y 4608   3.237   1.878   9.805 -0.9752  0.7181  2.2237
   60SAPC   C23 4609   2.679   2.217  10.102  0.0908  0.6316  0.2989
   60SAPC   H3R 4610   2.717   2.301  10.164  0.2514  0.6488  0.1779
   60SAPC   H3S 4611   2.609   2.161  10.168 -1.6903  2.5950  0.1724
   60SAPC   C24 4612   2.611   2.291   9.987  0.9089 -0.7968 -0.1234
   60SAPC   H4R 4613   2.674   2.371   9.943  3.7053 -1.8079  1.7730
   60SAPC   H4S 4614   2.529   2.356  10.026 -1.6320 -2.4610 -2.2980
   60SAPC   C25 4615   2.533   2.199   9.896  0.1002 -0.4209  0.6010
   60SAPC   H5R 4616   2.473   2.123   9.947  0.2333 -1.2388 -0.4253
   60SAPC   C26 4617   2.539   2.196   9.762  0.1017 -0.4697 -0.2302
   60SAPC   H6R 4618   2.473   2.126   9.708 -0.8783 -1.2277  1.8705
   60SAPC   C27 4619   2.604   2.297   9.665  0.1597 -0.2978 -0.0101
   60SAPC   H7R 4620   2.636   2.389   9.718 -0.9247  0.6037 -0.8642
   60SAPC   H7S 4621   2.514   2.329   9.608  0.3171 -0.4900 -0.3670
   60SAPC   C28 4622   2.716   2.223   9.595  0.5360 -0.3989 -0.3686
   60SAPC   H8R 4623   2.801   2.186   9.655  2.6762  1.7139 -1.8767
   60SAPC   C29 4624   2.720   2.201   9.460  0.1841 -0.4124  0.1897
   60SAPC   H9R 4625   2.799   2.141   9.412 -0.6661 -0.6842 -0.8952
   60SAPC  C210 4626   2.620   2.238   9.353  0.1913 -0.3775 -0.2852
   60SAPC  H10R 4627   2.526   2.257   9.409 -0.5207 -1.2268 -1.1464
   60SAPC  H10S 4628   2.600   2.146   9.294  0.3263 -0.9403  0.5307
   60SAPC  C211 4629   2.651   2.360   9.271 -0.7164 -0.2541 -0.0522
   60SAPC  H11R 4630   2.630   2.455   9.324  0.0738 -0.2039  0.1815
   60SAPC  C212 4631   2.705   2.357   9.145 -0.0056 -0.4635 -0.4904
   60SAPC  H12R 4632   2.715   2.454   9.093 -2.9064  1.0065  1.4047
   60SAPC  C213 4633   2.718   2.239   9.054  0.5685  0.1813 -0.6937
   60SAPC  H13R 4634   2.629   2.189   9.012 -0.8503 -0.2390  2.5364
   60SAPC  H13S 4635   2.759   2.151   9.108  1.6583  1.1357  0.0871
   60SAPC  C214 4636   2.808   2.273   8.935 -0.5267 -0.4151 -0.3484
   60SAPC  H14R 4637   2.909   2.287   8.976 -0.3671 -0.1210 -0.8460
   60SAPC  C215 4638   2.792   2.269   8.797  0.2392 -0.4213  0.6455
   60SAPC  H15R 4639   2.877   2.293   8.732 -0.6826 -1.3211 -0.9364
   60SAPC  C216 4640   2.669   2.239   8.716 -0.2972  0.4758 -0.4006
   60SAPC  H16R 4641   2.587   2.185   8.767 -0.0380 -2.5677 -2.9002
   60SAPC  H16S 4642   2.689   2.170   8.632 -2.2237  1.3915 -1.6844
   60SAPC  C217 4643   2.599   2.364   8.671  0.3937 -0.1619  0.9010
   60SAPC  H17R 4644   2.659   2.416   8.593 -0.0384  2.0223  1.9414
   60SAPC  H17S 4645   2.587   2.432   8.759 -0.8798  0.6732  0.1079
   60SAPC  C218 4646   2.460   2.349   8.614 -0.4211 -0.2061  0.4118
   60SAPC  H18R 4647   2.396   2.310   8.696 -1.3493  0.8469  0.2016
   60SAPC  H18S 4648   2.471   2.282   8.526 -1.2936  1.0230 -0.6574
   60SAPC  C219 4649   2.418   2.486   8.564  0.6550 -0.0655  0.2309
   60SAPC  H19R 4650   2.487   2.517   8.483 -1.2585 -0.8114 -1.7809
   60SAPC  H19S 4651   2.444   2.552   8.649 -1.3819  2.8010 -1.2202
   60SAPC  C220 4652   2.267   2.493   8.524  0.6351  0.2026 -0.3375
   60SAPC  H20R 4653   2.226   2.594   8.546 -2.7393 -1.0402 -0.3291
   60SAPC  H20S 4654   2.192   2.429   8.574 -1.4866  1.2148 -2.0416
   60SAPC  H20T 4655   2.252   2.459   8.419  1.3372 -3.3284  0.5871
   60SAPC   C33 4656   3.087   1.829   9.683  0.4309 -0.0261  0.1552
   60SAPC   H3X 4657   3.003   1.901   9.696  0.2345 -0.2109 -0.0771
   60SAPC   H3Y 4658   3.026   1.747   9.640  2.6921 -1.1518 -1.1383
   60SAPC   C34 4659   3.181   1.875   9.570  0.6672 -0.3102 -0.5084
   60SAPC   H4X 4660   3.249   1.789   9.553  0.2326 -0.6173 -0.7144
   60SAPC   H4Y 4661   3.249   1.958   9.601 -1.9833  1.5968  0.6318
   60SAPC   C35 4662   3.103   1.926   9.446 -0.0447  0.3979 -0.8526
   60SAPC   H5X 4663   3.039   2.006   9.488 -0.1621  0.0802 -0.4190
   60SAPC   H5Y 4664   3.036   1.846   9.406 -0.2861 -0.0065  0.3174
   60SAPC   C36 4665   3.189   1.984   9.339  0.1421  0.3131  0.8554
   60SAPC   H6X 4666   3.272   2.043   9.383 -0.1634  3.0684 -1.8853
   60SAPC   H6Y 4667   3.124   2.054   9.281  0.0293  1.5954  2.4582
   60SAPC   C37 4668   3.247   1.877   9.244  0.2030  0.0121 -0.4611
   60SAPC   H7X 4669   3.238   1.772   9.280  0.4925  0.1624  0.0586
   60SAPC   H7Y 4670   3.353   1.906   9.226  0.4068  0.7289  1.6528
   60SAPC   C38 4671   3.178   1.874   9.103 -0.2215  1.0329  0.2428
   60SAPC   H8X 4672   3.150   1.973   9.061  0.1702  0.7736 -0.6656
   60SAPC   H8Y 4673   3.076   1.836   9.121  0.2416 -0.4244 -0.0645
   60SAPC   C39 4674   3.261   1.783   9.008 -0.8677 -0.6554  0.7053
   60SAPC   H9X 4675   3.312   1.703   9.065  0.5941 -0.7869 -0.7163
   60SAPC   H9Y 4676   3.341   1.852   8.975  0.6705 -2.6185  0.2143
   60SAPC  C310 4677   3.182   1.721   8.899 -0.6795 -0.0066  0.7630
   60SAPC  H10X 4678   3.128   1.801   8.845  1.2845  0.5037 -0.5364
   60SAPC  H10Y 4679   3.112   1.645   8.940  1.3449 -1.8425  1.0146
   60SAPC  C311 4680   3.259   1.632   8.791  0.5277  0.1537 -1.3918
   60SAPC  H11X 4681   3.325   1.709   8.747 -0.2903  1.9150  0.3333
   60SAPC  H11Y 4682   3.185   1.571   8.734  2.0141 -2.2832 -0.8660
   60SAPC  C312 4683   3.354   1.521   8.859 -0.4256  0.5794  0.0142
   60SAPC  H12X 4684   3.308   1.481   8.952  1.3596  0.0442  0.7054
   60SAPC  H12Y 4685   3.438   1.580   8.902 -0.5901  1.1507 -0.4293
   60SAPC  C313 4686   3.422   1.415   8.776 -0.5178  0.6168  0.6327
   60SAPC  H13X 4687   3.449   1.450   8.674 -0.1344 -1.6199 -0.1014
   60SAPC  H13Y 4688   3.343   1.342   8.750 -0.4345 -0.5067  3.2327
   60SAPC  C314 4689   3.542   1.330   8.847  0.1120  0.5189  0.1436
   60SAPC  H14X 4690   3.507   1.308   8.950 -1.5921  3.4784  0.3275
   60SAPC  H14Y 4691   3.633   1.393   8.857  0.3190  0.3372 -0.5618
   60SAPC  C315 4692   3.581   1.210   8.764  0.0284  0.0855  0.3879
   60SAPC  H15X 4693   3.528   1.120   8.802 -0.1458 -0.4338 -1.0276
   60SAPC  H15Y 4694   3.688   1.187   8.782  0.6301 -0.7925 -3.4516
   60SAPC  C316 4695   3.568   1.217   8.613  0.3537  0.8484  0.0104
   60SAPC  H16X 4696   3.625   1.301   8.567  1.2378  0.6084  0.6494
   60SAPC  H16Y 4697   3.462   1.212   8.580  0.3227 -1.3246  0.2869
   60SAPC  C317 4698   3.622   1.092   8.539  0.2613 -0.5216  0.7560
   60SAPC  H17X 4699   3.542   1.017   8.553 -0.2874 -0.4431 -1.4744
   60SAPC  H17Y 4700   3.720   1.064   8.584 -0.8201 -2.8248  1.8341
   60SAPC  C318 4701   3.632   1.120   8.391 -0.2524 -0.3335 -0.0457
   60SAPC  H18X 4702   3.702   1.197   8.352  3.2672 -4.1298 -1.9828
   60SAPC  H18Y 4703   3.529   1.146   8.359 -0.5882 -1.4578  0.0840
   60SAPC  H18Z 4704   3.650   1.026   8.336 -2.9375 -0.3421 -1.0694
   61SAPC     N 4705   4.923   2.554  10.864 -0.2728 -0.1719  0.7901
   61SAPC   C12 4706   4.908   2.440  10.764  0.1201  0.2935 -0.1350
   61SAPC  H12A 4707   4.896   2.474  10.662  0.8185 -1.0761 -0.6867
   61SAPC  H12B 4708   4.816   2.388  10.786 -2.1554  4.3258  0.9879
   61SAPC   C13 4709   4.784   2.599  10.890  0.0037 -0.4900  0.7795
   61SAPC  H13A 4710   4.739   2.645  10.803  2.3167  1.1701  0.3651
   61SAPC  H13B 4711   4.722   2.520  10.931 -1.2701 -0.1305 -0.3759
   61SAPC  H13C 4712   4.778   2.682  10.958  0.2742  0.5367 -0.4131
   61SAPC   C14 4713   4.986   2.520  10.997 -0.5896  0.5558  0.0650
   61SAPC  H14A 4714   4.990   2.600  11.069 -0.5458 -1.3981  2.3676
   61SAPC  H14B 4715   4.921   2.452  11.051 -0.5406  0.4810  0.0309
   61SAPC  H14C 4716   5.082   2.472  10.981 -1.8338 -1.5167 -1.9658
   61SAPC   C15 4717   5.007   2.657  10.803  0.6731  0.1330  0.3340
   61SAPC  H15A 4718   5.098   2.614  10.762  0.7890  1.7039 -1.1775
   61SAPC  H15B 4719   4.947   2.697  10.723 -1.2710  0.9373  2.1163
   61SAPC  H15C 4720   5.036   2.729  10.877  0.3592  0.9726 -0.3472
   61SAPC   C11 4721   5.024   2.339  10.772  0.1569  0.1450  0.2602
   61SAPC  H11A 4722   4.999   2.262  10.696  0.6733 -0.5865  0.8095
   61SAPC  H11B 4723   5.024   2.294  10.874  1.9679 -0.0038  0.2360
   61SAPC     P 4724   5.271   2.331  10.795 -0.2284  0.0391  0.0104
   61SAPC   O13 4725   5.280   2.371  10.938 -0.4015 -0.3531  0.2159
   61SAPC   O14 4726   5.272   2.187  10.772 -0.4920  0.0578  0.0550
   61SAPC   O12 4727   5.149   2.400  10.730  0.3380  0.4854 -0.0334
   61SAPC   O11 4728   5.395   2.387  10.719 -0.8150 -0.1684  0.3316
   61SAPC    C1 4729   5.424   2.523  10.706 -0.8023  0.0139  0.3810
   61SAPC    HA 4730   5.379   2.589  10.784  2.5771  3.2853 -0.1174
   61SAPC    HB 4731   5.534   2.520  10.725 -0.3749 -2.0201 -1.9214
   61SAPC    C2 4732   5.393   2.586  10.567  0.0474  0.2351 -0.9204
   61SAPC    HS 4733   5.286   2.613  10.562  0.2339  0.8179 -2.3174
   61SAPC   O21 4734   5.439   2.490  10.468 -0.3910  0.2583  0.3820
   61SAPC   C21 4735   5.371   2.486  10.355 -0.0291 -0.0574  0.0517
   61SAPC   O22 4736   5.289   2.569  10.320 -0.6178  0.8493  0.0202
   61SAPC   C22 4737   5.412   2.364  10.275  0.0630 -0.4569  0.1275
   61SAPC   H2R 4738   5.523   2.358  10.274  0.0089 -1.8609  0.6745
   61SAPC   H2S 4739   5.379   2.279  10.339 -0.7503  0.4726  1.0026
   61SAPC    C3 4740   5.475   2.717  10.563 -0.3020 -0.2315 -0.2491
   61SAPC    HX 4741   5.584   2.700  10.555 -0.6973 -1.8872 -3.7589
   61SAPC    HY 4742   5.457   2.770  10.659 -0.3036 -1.6107  0.5389
   61SAPC   O31 4743   5.424   2.806  10.458 -0.2058  0.6219  0.0396
   61SAPC   C31 4744   5.494   2.782  10.352  0.3998 -0.1451 -0.1820
   61SAPC   O32 4745   5.582   2.700  10.331  0.3246 -0.2285  0.8065
   61SAPC   C32 4746   5.448   2.890  10.255 -0.4508  0.3869 -0.3830
   61SAPC   H2X 4747   5.491   2.985  10.295 -1.2044  0.8889 -0.7474
   61SAPC   H2Y 4748   5.338   2.897  10.267 -0.4626  0.2751 -0.4295
   61SAPC   C23 4749   5.338   2.342  10.140  0.1248  0.1701  0.5684
   61SAPC   H3R 4750   5.230   2.357  10.159 -0.6440 -2.6456 -1.0076
   61SAPC   H3S 4751   5.360   2.242  10.097 -2.9875  0.1841 -1.3508
   61SAPC   C24 4752   5.376   2.432  10.023 -0.2964 -0.4688 -0.0911
   61SAPC   H4R 4753   5.345   2.536  10.045 -0.7752 -0.3601 -1.2327
   61SAPC   H4S 4754   5.315   2.417   9.932 -2.6937 -1.1560  1.5247
   61SAPC   C25 4755   5.524   2.439   9.988 -0.4206  0.2845 -0.3115
   61SAPC   H5R 4756   5.597   2.446  10.070 -1.1393 -2.4251  0.6577
   61SAPC   C26 4757   5.573   2.450   9.863  0.2433  0.7475 -0.8421
   61SAPC   H6R 4758   5.681   2.452   9.838  0.7307 -0.0426  1.0736
   61SAPC   C27 4759   5.489   2.435   9.739 -0.3393 -0.2277  0.1421
   61SAPC   H7R 4760   5.418   2.353   9.761 -0.5098  0.3891  2.1190
   61SAPC   H7S 4761   5.562   2.407   9.659 -0.5168  2.2199 -0.9537
   61SAPC   C28 4762   5.413   2.563   9.709  0.0112  0.0949 -0.2220
   61SAPC   H8R 4763   5.467   2.657   9.726  2.4594 -1.0508 -1.1397
   61SAPC   C29 4764   5.286   2.575   9.666  0.2007  0.7577  0.3347
   61SAPC   H9R 4765   5.245   2.677   9.655  2.7628  1.7736 -0.5089
   61SAPC  C210 4766   5.200   2.457   9.619  0.0576  0.0214  0.1355
   61SAPC  H10R 4767   5.258   2.375   9.572  0.1840  0.1823  0.0049
   61SAPC  H10S 4768   5.131   2.496   9.541  0.2870 -1.6280 -0.9258
   61SAPC  C211 4769   5.116   2.401   9.731 -0.6636 -0.8163 -0.3151
   61SAPC  H11R 4770   5.135   2.446   9.830 -2.7324 -1.2646  0.3422
   61SAPC  C212 4771   5.027   2.303   9.724  0.3539 -0.2261 -0.2775
   61SAPC  H12R 4772   4.972   2.281   9.817 -1.2145  1.9259 -0.5979
   61SAPC  C213 4773   4.986   2.226   9.602 -0.2069 -0.5230 -0.3268
   61SAPC  H13R 4774   4.976   2.295   9.516 -2.8895  0.8015  0.9252
   61SAPC  H13S 4775   4.882   2.187   9.609 -0.9586  1.3490 -0.5449
   61SAPC  C214 4776   5.075   2.111   9.568  0.0818  0.4678  0.1493
   61SAPC  H14R 4777   5.117   2.119   9.467 -1.2101  1.9301 -0.3220
   61SAPC  C215 4778   5.088   1.995   9.637 -0.1110  0.8238  0.6812
   61SAPC  H15R 4779   5.146   1.914   9.591 -3.8826 -1.3081 -0.7789
   61SAPC  C216 4780   5.030   1.956   9.773  0.5995  0.6877 -0.5463
   61SAPC  H16R 4781   4.978   1.858   9.766  0.9397  0.5483 -1.3504
   61SAPC  H16S 4782   4.957   2.031   9.809 -0.5633 -1.3395  1.5480
   61SAPC  C217 4783   5.139   1.933   9.885 -0.0708 -0.4638  0.2851
   61SAPC  H17R 4784   5.207   2.020   9.901 -0.3121  0.1939 -1.9364
   61SAPC  H17S 4785   5.208   1.852   9.855  3.1632  2.4344 -0.7954
   61SAPC  C218 4786   5.087   1.865  10.011 -0.4260 -0.2104  0.3727
   61SAPC  H18R 4787   5.026   1.780   9.972 -0.0284 -0.1876 -0.3194
   61SAPC  H18S 4788   5.012   1.929  10.063 -0.4111  0.5974 -0.5564
   61SAPC  C219 4789   5.196   1.812  10.108  0.2266  0.6637  0.6259
   61SAPC  H19R 4790   5.275   1.783  10.036  0.5154 -1.3257  1.6682
   61SAPC  H19S 4791   5.169   1.723  10.169  0.2191  1.3264  1.6321
   61SAPC  C220 4792   5.262   1.918  10.202 -0.0250 -0.4956  0.2147
   61SAPC  H20R 4793   5.192   1.960  10.277  0.5458 -0.2880  0.6318
   61SAPC  H20S 4794   5.290   2.004  10.138  0.5341 -0.0133  1.1008
   61SAPC  H20T 4795   5.353   1.880  10.252  0.7970 -0.1480 -0.9707
   61SAPC   C33 4796   5.481   2.867  10.111 -0.5015 -0.3428  0.0124
   61SAPC   H3X 4797   5.446   2.766  10.078 -0.2842 -0.5329  0.3515
   61SAPC   H3Y 4798   5.592   2.865  10.107 -0.4529 -3.3751  0.2577
   61SAPC   C34 4799   5.425   2.980  10.021 -0.0106  0.3955  1.5310
   61SAPC   H4X 4800   5.468   3.078  10.050 -1.0155  1.0142  0.9997
   61SAPC   H4Y 4801   5.314   2.985  10.015  0.0794  0.9913 -2.7759
   61SAPC   C35 4802   5.454   2.934   9.877 -0.0525 -0.3087  0.1923
   61SAPC   H5X 4803   5.417   2.830   9.860  0.7912 -0.6939  0.6414
   61SAPC   H5Y 4804   5.561   2.922   9.852 -0.6898 -1.3439 -2.4554
   61SAPC   C36 4805   5.378   3.012   9.767  0.0281 -0.2180  0.7319
   61SAPC   H6X 4806   5.407   3.119   9.756 -2.1108  0.2801 -0.8042
   61SAPC   H6Y 4807   5.270   3.025   9.790 -0.0813  1.5002 -0.5266
   61SAPC   C37 4808   5.379   2.954   9.623  0.3513  0.0778 -0.1777
   61SAPC   H7X 4809   5.325   2.859   9.643 -0.1505  0.8103  2.1968
   61SAPC   H7Y 4810   5.484   2.927   9.599 -0.4846 -0.9405 -3.1612
   61SAPC   C38 4811   5.311   3.051   9.525  0.1579 -0.2591 -0.3059
   61SAPC   H8X 4812   5.381   3.130   9.491 -0.8720  0.1996 -1.4278
   61SAPC   H8Y 4813   5.213   3.089   9.563  1.6517  1.6577  1.9097
   61SAPC   C39 4814   5.267   2.980   9.396  0.5347 -0.4100  0.0870
   61SAPC   H9X 4815   5.187   3.039   9.346 -0.7769 -1.5207  0.8059
   61SAPC   H9Y 4816   5.217   2.882   9.412 -0.4020 -0.2153 -1.4417
   61SAPC  C310 4817   5.381   2.950   9.296  0.0802  0.4708  0.3466
   61SAPC  H10X 4818   5.442   2.870   9.344 -0.6336  0.4248  1.1905
   61SAPC  H10Y 4819   5.442   3.038   9.265  0.7181 -1.0809 -3.3764
   61SAPC  C311 4820   5.332   2.895   9.158  0.1125  0.3722 -0.0872
   61SAPC  H11X 4821   5.308   2.986   9.099  1.1811  1.0998  0.5623
   61SAPC  H11Y 4822   5.236   2.841   9.171  0.8297 -0.5439  1.7555
   61SAPC  C312 4823   5.435   2.810   9.077  0.0029  0.4105  0.0265
   61SAPC  H12X 4824   5.472   2.734   9.150  0.9048  0.6504 -0.1637
   61SAPC  H12Y 4825   5.518   2.880   9.054  0.2452  0.0179 -0.3021
   61SAPC  C313 4826   5.379   2.758   8.947 -0.2669  0.0660  0.8180
   61SAPC  H13X 4827   5.465   2.744   8.878  0.9071  4.6801  1.0442
   61SAPC  H13Y 4828   5.311   2.837   8.908 -1.5390 -1.1139  0.5595
   61SAPC  C314 4829   5.285   2.638   8.975  0.7272 -0.0279 -0.0621
   61SAPC  H14X 4830   5.239   2.608   8.878  0.0404  1.3880 -0.1976
   61SAPC  H14Y 4831   5.204   2.673   9.042  1.4019 -0.3355  0.9411
   61SAPC  C315 4832   5.359   2.515   9.036 -0.5322  0.5423 -0.6153
   61SAPC  H15X 4833   5.469   2.525   9.043 -0.5078  0.3052 -0.6598
   61SAPC  H15Y 4834   5.337   2.414   8.994  2.1239 -0.7597  0.8889
   61SAPC  C316 4835   5.319   2.488   9.181  0.8943  0.4201  0.5388
   61SAPC  H16X 4836   5.208   2.495   9.176  0.9327  0.1437 -2.0292
   61SAPC  H16Y 4837   5.352   2.580   9.234  1.1431  2.7927 -3.3269
   61SAPC  C317 4838   5.347   2.350   9.236  0.1306 -0.4784 -0.5870
   61SAPC  H17X 4839   5.332   2.284   9.147 -0.7199  0.9639 -1.5539
   61SAPC  H17Y 4840   5.277   2.311   9.312  0.4777 -0.5651 -0.3091
   61SAPC  C318 4841   5.497   2.323   9.275  0.0534 -0.3361  0.2646
   61SAPC  H18X 4842   5.538   2.399   9.344  0.6987 -0.2616 -0.1948
   61SAPC  H18Y 4843   5.562   2.336   9.186  1.1201  1.9533  1.3046
   61SAPC  H18Z 4844   5.513   2.219   9.310 -1.0478 -1.5529 -2.5727
   62SAPC     N 4845   5.831   5.823  11.176 -0.3651 -0.2490 -0.9341
   62SAPC   C12 4846   5.872   5.817  11.038 -0.8905  0.2512  0.2340
   62SAPC  H12A 4847   5.967   5.867  11.032 -1.2386  0.8931 -0.0443
   62SAPC  H12B 4848   5.802   5.880  10.984 -0.1076  0.2476 -0.8172
   62SAPC   C13 4849   5.697   5.755  11.191 -0.6779  0.1332  0.2556
   62SAPC  H13A 4850   5.709   5.650  11.169  0.3100  0.3697 -0.4113
   62SAPC  H13B 4851   5.653   5.760  11.290 -1.3864  0.7200 -0.0789
   62SAPC  H13C 4852   5.626   5.797  11.121  0.0813 -1.8614 -1.8288
   62SAPC   C14 4853   5.935   5.754  11.259  0.9052  1.1049 -0.3658
   62SAPC  H14A 4854   5.953   5.657  11.215 -4.1137  0.6079 -1.8947
   62SAPC  H14B 4855   6.028   5.806  11.277  1.6056 -0.1615 -0.2413
   62SAPC  H14C 4856   5.898   5.746  11.360  0.5832  2.8097 -0.3153
   62SAPC   C15 4857   5.816   5.961  11.222 -0.0871 -0.1648 -0.4521
   62SAPC  H15A 4858   5.907   6.017  11.208 -0.5394  0.5611 -0.5639
   62SAPC  H15B 4859   5.737   6.021  11.179  0.7381  0.9499 -0.4740
   62SAPC  H15C 4860   5.807   5.973  11.329  1.9976  0.7477 -0.3246
   62SAPC   C11 4861   5.878   5.684  10.960 -0.3971 -0.3002  0.2743
   62SAPC  H11A 4862   5.900   5.618  11.046 -0.4134  2.7926  2.8641
   62SAPC  H11B 4863   5.967   5.678  10.893 -0.1859 -3.0483  0.6879
   62SAPC     P 4864   5.723   5.720  10.759 -0.0110 -0.0609  0.3980
   62SAPC   O13 4865   5.737   5.865  10.773  0.6118  1.0972 -0.1584
   62SAPC   O14 4866   5.792   5.660  10.646 -0.0014  0.6696  0.0723
   62SAPC   O12 4867   5.760   5.639  10.889 -0.1253 -0.1106 -0.1509
   62SAPC   O11 4868   5.570   5.678  10.747  0.2958  0.6965  1.0665
   62SAPC    C1 4869   5.517   5.571  10.676 -0.3864  0.4594  0.2057
   62SAPC    HA 4870   5.595   5.499  10.643  1.3251  0.8672  2.9725
   62SAPC    HB 4871   5.445   5.517  10.741  0.3611 -0.9876 -0.1246
   62SAPC    C2 4872   5.440   5.611  10.541  0.0384 -0.0999  0.0456
   62SAPC    HS 4873   5.334   5.578  10.544 -0.1848  0.6290  0.5491
   62SAPC   O21 4874   5.509   5.560  10.423  0.3286  0.2703 -0.0574
   62SAPC   C21 4875   5.497   5.438  10.400  0.3574 -0.4326 -1.2091
   62SAPC   O22 4876   5.440   5.353  10.474  0.0911 -0.1326 -0.8767
   62SAPC   C22 4877   5.574   5.398  10.275 -0.1497  0.2740  0.1910
   62SAPC   H2R 4878   5.677   5.390  10.316 -0.6051  1.7223  1.7714
   62SAPC   H2S 4879   5.549   5.295  10.244  1.6581  0.6620 -2.9544
   62SAPC    C3 4880   5.436   5.769  10.527 -0.1606  0.6551  0.6140
   62SAPC    HX 4881   5.543   5.799  10.533  0.0514  0.1798 -0.5293
   62SAPC    HY 4882   5.383   5.811  10.615  4.2931 -0.7144  4.3408
   62SAPC   O31 4883   5.364   5.796  10.405 -0.4343  0.2264 -0.6554
   62SAPC   C31 4884   5.435   5.835  10.308 -0.4703 -1.4287  0.4140
   62SAPC   O32 4885   5.555   5.860  10.299 -0.1792 -0.8538 -0.1224
   62SAPC   C32 4886   5.355   5.861  10.187  0.4372 -0.4041 -0.4645
   62SAPC   H2X 4887   5.287   5.948  10.202  0.4164 -0.5228  0.1457
   62SAPC   H2Y 4888   5.300   5.767  10.165  3.3851 -2.1530 -0.9399
   62SAPC   C23 4889   5.575   5.493  10.153 -0.1291  0.3297  0.2639
   62SAPC   H3R 4890   5.599   5.592  10.199  1.1480  0.0574  0.2134
   62SAPC   H3S 4891   5.473   5.515  10.114 -0.0280  2.6581  1.1382
   62SAPC   C24 4892   5.686   5.458  10.052 -0.2133  0.1435  0.0346
   62SAPC   H4R 4893   5.702   5.348  10.053  0.9095  0.2847 -0.3825
   62SAPC   H4S 4894   5.785   5.493  10.088 -0.4930  1.7046 -0.6317
   62SAPC   C25 4895   5.651   5.511   9.918 -0.0298  0.0403 -0.2569
   62SAPC   H5R 4896   5.559   5.471   9.872 -0.7932 -0.8597  1.9441
   62SAPC   C26 4897   5.713   5.597   9.838  0.4012 -0.3480  0.4087
   62SAPC   H6R 4898   5.664   5.625   9.743 -0.5309  0.0152  0.9853
   62SAPC   C27 4899   5.837   5.667   9.877  0.0756 -0.5773  0.3001
   62SAPC   H7R 4900   5.926   5.606   9.849  1.5002  0.7455  1.6553
   62SAPC   H7S 4901   5.837   5.689   9.986 -1.9586 -0.3581  0.2860
   62SAPC   C28 4902   5.849   5.811   9.824  0.1712  0.0019 -0.2650
   62SAPC   H8R 4903   5.841   5.883   9.906 -0.1801 -0.3153 -0.0153
   62SAPC   C29 4904   5.883   5.846   9.701 -0.5748  0.4308  1.2221
   62SAPC   H9R 4905   5.890   5.952   9.674  0.3244  0.0160 -0.3104
   62SAPC  C210 4906   5.911   5.749   9.583  0.1756  0.2778 -0.4195
   62SAPC  H10R 4907   5.860   5.651   9.597  3.0731 -1.3319 -0.2135
   62SAPC  H10S 4908   6.016   5.713   9.590  0.9334  1.7249 -2.9234
   62SAPC  C211 4909   5.872   5.811   9.449  0.3529 -0.5272  0.6638
   62SAPC  H11R 4910   5.779   5.869   9.465  0.2375 -1.6346  5.9352
   62SAPC  C212 4911   5.927   5.809   9.322  0.0329  0.0602  0.4186
   62SAPC  H12R 4912   5.874   5.885   9.263 -0.9885 -0.1062  1.1027
   62SAPC  C213 4913   6.057   5.752   9.276 -1.7163 -0.0023  0.6249
   62SAPC  H13R 4914   6.049   5.644   9.252  3.1393  0.1739 -3.3076
   62SAPC  H13S 4915   6.118   5.755   9.369 -2.1496 -1.2615  0.9664
   62SAPC  C214 4916   6.118   5.818   9.160 -0.3321  0.3758  0.3610
   62SAPC  H14R 4917   6.190   5.896   9.192  2.2556 -2.2308  1.3755
   62SAPC  C215 4918   6.103   5.787   9.030  0.0610 -0.1917  0.2361
   62SAPC  H15R 4919   6.172   5.836   8.961  0.1700  0.6759  0.9422
   62SAPC  C216 4920   6.016   5.668   8.985  0.2617 -1.0126  0.1586
   62SAPC  H16R 4921   5.918   5.698   9.029  1.7775  4.8853  0.3295
   62SAPC  H16S 4922   6.044   5.567   9.021  1.3415 -0.9150 -0.3676
   62SAPC  C217 4923   5.997   5.657   8.833  0.2641  0.0670 -0.5336
   62SAPC  H17R 4924   6.078   5.606   8.775  0.8923  3.3535 -2.8306
   62SAPC  H17S 4925   5.992   5.756   8.783 -0.8559 -0.2558 -1.0935
   62SAPC  C218 4926   5.864   5.593   8.780  0.1648  0.0354 -0.3877
   62SAPC  H18R 4927   5.773   5.652   8.799  0.6528  1.0217 -1.0282
   62SAPC  H18S 4928   5.840   5.497   8.831 -1.0757  0.3104 -0.4421
   62SAPC  C219 4929   5.868   5.572   8.629 -0.0066 -0.0333  0.5039
   62SAPC  H19R 4930   5.786   5.500   8.604 -0.1863 -0.3234  1.8838
   62SAPC  H19S 4931   5.959   5.521   8.590  0.8471  0.6779  1.5190
   62SAPC  C220 4932   5.841   5.695   8.548  0.1415  0.7459 -0.2863
   62SAPC  H20R 4933   5.917   5.775   8.563  1.1207  0.2568 -2.1979
   62SAPC  H20S 4934   5.745   5.740   8.580 -0.1357  1.5327 -2.0773
   62SAPC  H20T 4935   5.831   5.678   8.438  1.5618  0.8659 -0.4516
   62SAPC   C33 4936   5.440   5.869  10.057  0.7815 -0.9797  0.0732
   62SAPC   H3X 4937   5.507   5.781  10.051  0.5915 -1.0726 -0.9489
   62SAPC   H3Y 4938   5.498   5.963  10.064 -0.7682  0.0563 -0.4166
   62SAPC   C34 4939   5.354   5.863   9.927 -0.7194 -0.4947  0.0505
   62SAPC   H4X 4940   5.277   5.943   9.934 -0.1882 -0.0180  0.5076
   62SAPC   H4Y 4941   5.282   5.778   9.933 -1.1047 -0.2001 -0.3246
   62SAPC   C35 4942   5.435   5.862   9.799 -0.4012 -0.4892  0.4896
   62SAPC   H5X 4943   5.477   5.760   9.788 -0.2197 -0.3878  0.2413
   62SAPC   H5Y 4944   5.519   5.934   9.791 -0.1554 -0.7021  1.0733
   62SAPC   C36 4945   5.337   5.893   9.681  0.6759 -0.0869  0.6880
   62SAPC   H6X 4946   5.300   5.996   9.702 -1.8515 -1.0727  1.4598
   62SAPC   H6Y 4947   5.261   5.815   9.660  3.2991 -2.2698 -1.3812
   62SAPC   C37 4948   5.432   5.908   9.548  0.3285 -0.3726 -0.9933
   62SAPC   H7X 4949   5.523   5.966   9.575 -0.8888  0.2650  2.1567
   62SAPC   H7Y 4950   5.372   5.971   9.480 -1.5168  0.6480  1.4211
   62SAPC   C38 4951   5.463   5.768   9.474  0.1044 -0.0326 -0.1308
   62SAPC   H8X 4952   5.385   5.693   9.502 -0.1349  0.4242  0.4532
   62SAPC   H8Y 4953   5.561   5.730   9.510  1.0705  0.3198 -2.2846
   62SAPC   C39 4954   5.464   5.782   9.313  0.2795 -0.1647 -0.1858
   62SAPC   H9X 4955   5.375   5.841   9.284  1.5549  1.2861 -1.2900
   62SAPC   H9Y 4956   5.457   5.681   9.267  1.2120 -0.1645 -0.3505
   62SAPC  C310 4957   5.586   5.857   9.254  0.4781  0.0611 -0.7181
   62SAPC  H10X 4958   5.674   5.789   9.258 -0.1683 -0.8646 -1.6832
   62SAPC  H10Y 4959   5.611   5.949   9.311 -2.3019 -0.5453  1.7625
   62SAPC  C311 4960   5.553   5.901   9.111 -0.7628 -0.3733  0.2159
   62SAPC  H11X 4961   5.480   5.982   9.135 -0.2181 -0.8417  4.0855
   62SAPC  H11Y 4962   5.508   5.821   9.048 -1.3457 -0.4752  0.7473
   62SAPC  C312 4963   5.688   5.947   9.039 -0.5220 -0.2893  0.0473
   62SAPC  H12X 4964   5.766   5.869   9.029 -1.0857 -0.6566 -1.9687
   62SAPC  H12Y 4965   5.739   6.032   9.089  0.1616 -1.1845  0.9144
   62SAPC  C313 4966   5.654   6.008   8.898  0.2289 -0.8517  0.1924
   62SAPC  H13X 4967   5.589   6.098   8.899  2.1745  0.6401  1.7343
   62SAPC  H13Y 4968   5.609   5.931   8.832 -1.1901 -0.8463  1.1228
   62SAPC  C314 4969   5.786   6.044   8.826 -0.0473  0.5509  0.1501
   62SAPC  H14X 4970   5.866   5.970   8.851 -0.1781 -0.3364 -1.8854
   62SAPC  H14Y 4971   5.816   6.146   8.858 -1.0058  1.0076 -0.3694
   62SAPC  C315 4972   5.784   6.047   8.672 -0.0266 -0.4321  0.7665
   62SAPC  H15X 4973   5.703   6.112   8.632 -0.2056  0.7046  2.8509
   62SAPC  H15Y 4974   5.754   5.943   8.645  0.6986 -0.8761  1.6163
   62SAPC  C316 4975   5.923   6.068   8.611 -0.0136 -0.0411  0.2097
   62SAPC  H16X 4976   5.994   5.990   8.649 -0.7271 -0.1873  1.2787
   62SAPC  H16Y 4977   5.976   6.159   8.646  1.8264  0.4060 -3.2028
   62SAPC  C317 4978   5.922   6.086   8.464  0.7900 -0.4469  0.3285
   62SAPC  H17X 4979   5.859   6.172   8.435  2.7505  0.4739 -1.4633
   62SAPC  H17Y 4980   5.876   5.994   8.422  2.5609 -1.2405  0.0174
   62SAPC  C318 4981   6.064   6.093   8.403  0.6584 -0.4922 -0.1802
   62SAPC  H18X 4982   6.107   6.183   8.453 -1.1195 -0.5214  1.5425
   62SAPC  H18Y 4983   6.058   6.114   8.294  1.9821  0.5309 -0.0777
   62SAPC  H18Z 4984   6.125   6.001   8.418  2.4660  0.9000  1.5892
   63SAPC     N 4985   0.060   0.028   6.256  0.1374 -0.1395  0.3881
   63SAPC   C12 4986  -0.070   0.072   6.311  0.6408  0.1691  0.2940
   63SAPC  H12A 4987  -0.140  -0.010   6.314 -1.9283  2.1590 -1.0514
   63SAPC  H12B 4988  -0.105   0.142   6.236 -1.3947  0.5065  1.4928
   63SAPC   C13 4989   0.031  -0.050   6.131 -0.1391 -0.0146 -0.0360
   63SAPC  H13A 4990   0.011   0.009   6.043  1.4956 -1.8869 -1.7618
   63SAPC  H13B 4991   0.124  -0.096   6.102  0.2741  1.5790 -1.3762
   63SAPC  H13C 4992  -0.054  -0.118   6.136 -0.3151 -0.0413 -2.3722
   63SAPC   C14 4993   0.146   0.138   6.222 -0.2222  0.3520  0.8085
   63SAPC  H14A 4994   0.176   0.185   6.314 -1.7662  0.4709  1.2787
   63SAPC  H14B 4995   0.239   0.114   6.172  1.6270  1.1857  3.6194
   63SAPC  H14C 4996   0.096   0.206   6.154  0.0903 -1.7510 -1.6709
   63SAPC   C15 4997   0.129  -0.062   6.352  0.3373 -0.3603 -0.4021
   63SAPC  H15A 4998   0.227  -0.091   6.316 -0.1601  0.2018 -2.3449
   63SAPC  H15B 4999   0.142  -0.000   6.439 -0.2611 -2.8769  1.6038
   63SAPC  H15C 5000   0.056  -0.138   6.375 -2.7211  1.9921 -1.6802
   63SAPC   C11 5001  -0.075   0.154   6.449  0.6178  0.0862 -0.1112
   63SAPC  H11A 5002  -0.039   0.087   6.529  0.6517 -1.0865 -1.0769
   63SAPC  H11B 5003  -0.181   0.173   6.475 -0.1619  0.5174 -3.1778
   63SAPC     P 5004  -0.059   0.394   6.352  0.2144  0.1144 -0.0043
   63SAPC   O13 5005   0.025   0.513   6.382 -0.4217  0.4338  0.2605
   63SAPC   O14 5006  -0.079   0.362   6.209 -0.3652  0.2610 -0.1743
   63SAPC   O12 5007   0.001   0.271   6.432  0.6231 -0.4109  0.3710
   63SAPC   O11 5008  -0.206   0.413   6.418 -0.6132  0.3354 -0.0149
   63SAPC    C1 5009  -0.244   0.526   6.488 -0.0620  0.1685 -0.2344
   63SAPC    HA 5010  -0.188   0.614   6.452  1.3271 -0.3299  0.6218
   63SAPC    HB 5011  -0.354   0.533   6.472 -0.1173 -0.7655 -0.3149
   63SAPC    C2 5012  -0.238   0.505   6.641 -0.0931  0.1259 -0.6085
   63SAPC    HS 5013  -0.307   0.580   6.683  0.0206  0.3302 -0.7835
   63SAPC   O21 5014  -0.105   0.541   6.690  0.0807 -0.6550 -0.3155
   63SAPC   C21 5015  -0.103   0.566   6.822  0.0739 -0.8300  0.0045
   63SAPC   O22 5016  -0.195   0.606   6.891  0.2248  0.9225 -0.0327
   63SAPC   C22 5017   0.042   0.552   6.879 -0.2320  0.7317 -0.0037
   63SAPC   H2R 5018   0.103   0.554   6.787 -2.4263  0.9875 -1.5426
   63SAPC   H2S 5019   0.062   0.639   6.944  0.5434  1.4566 -1.1780
   63SAPC    C3 5020  -0.269   0.359   6.688 -0.0249 -0.6913 -0.4440
   63SAPC    HX 5021  -0.177   0.301   6.666  1.1823  0.9010  0.1538
   63SAPC    HY 5022  -0.347   0.324   6.617 -0.8252  0.8205 -0.3387
   63SAPC   O31 5023  -0.307   0.367   6.827 -0.3147 -0.4094  0.3970
   63SAPC   C31 5024  -0.433   0.412   6.844 -0.0037  0.1125 -0.0642
   63SAPC   O32 5025  -0.515   0.433   6.752  0.0807 -0.0867 -0.2679
   63SAPC   C32 5026  -0.442   0.442   6.996  0.2187 -0.2937 -0.2418
   63SAPC   H2X 5027  -0.486   0.544   7.002 -1.5621 -1.0614  0.6133
   63SAPC   H2Y 5028  -0.340   0.440   7.039 -0.3663 -2.0180  1.1879
   63SAPC   C23 5029   0.064   0.414   6.954  0.1570  0.3405  0.0129
   63SAPC   H3R 5030   0.042   0.329   6.886 -0.1472  0.2808  0.1826
   63SAPC   H3S 5031  -0.002   0.392   7.041 -0.2188 -1.0489 -0.6034
   63SAPC   C24 5032   0.204   0.400   7.010  0.4509 -0.4942  0.0014
   63SAPC   H4R 5033   0.275   0.413   6.925  1.7967  1.8803  1.3548
   63SAPC   H4S 5034   0.209   0.298   7.054 -0.9811 -0.0425  1.3127
   63SAPC   C25 5035   0.238   0.511   7.105 -0.4461  0.2079  0.0456
   63SAPC   H5R 5036   0.302   0.590   7.063  0.6605 -1.1956 -1.0114
   63SAPC   C26 5037   0.219   0.513   7.239 -0.3860 -0.7938  0.3145
   63SAPC   H6R 5038   0.251   0.605   7.290 -0.4047 -0.7357  0.2215
   63SAPC   C27 5039   0.181   0.394   7.319  0.0249 -0.0651 -0.4114
   63SAPC   H7R 5040   0.256   0.406   7.401  0.3558  0.0546 -0.7260
   63SAPC   H7S 5041   0.211   0.299   7.270 -2.7209 -1.9688  1.3034
   63SAPC   C28 5042   0.041   0.390   7.376  0.1160  0.1967 -0.1385
   63SAPC   H8R 5043  -0.042   0.424   7.312  0.4513  1.9456  0.3074
   63SAPC   C29 5044   0.002   0.332   7.491 -0.0135 -0.2252  0.2617
   63SAPC   H9R 5045  -0.097   0.354   7.533  0.9164  1.5362  1.7011
   63SAPC  C210 5046   0.097   0.272   7.587  0.1194 -1.0005 -0.7473
   63SAPC  H10R 5047   0.198   0.249   7.547  0.6704 -0.6040  0.3661
   63SAPC  H10S 5048   0.055   0.171   7.605 -1.4856 -0.3348 -0.5366
   63SAPC  C211 5049   0.097   0.361   7.717 -0.2924  0.7553  0.1704
   63SAPC  H11R 5050   0.166   0.446   7.711  0.8466 -0.2037 -0.6832
   63SAPC  C212 5051   0.029   0.339   7.829 -0.4854  0.0801 -0.9883
   63SAPC  H12R 5052   0.037   0.403   7.918 -0.4186 -0.5029 -0.5687
   63SAPC  C213 5053  -0.062   0.217   7.854  0.0600 -0.8149  0.0272
   63SAPC  H13R 5054  -0.069   0.151   7.766 -0.7648 -0.9752  0.2030
   63SAPC  H13S 5055  -0.164   0.263   7.862 -0.6801 -2.1218 -1.4457
   63SAPC  C214 5056  -0.019   0.136   7.977  0.5056 -0.3208  0.2431
   63SAPC  H14R 5057   0.081   0.090   7.968 -0.2632 -2.1976  0.6949
   63SAPC  C215 5058  -0.071   0.146   8.100  0.7501  0.0056 -0.0457
   63SAPC  H15R 5059  -0.037   0.079   8.180  2.1905  0.2563 -0.4136
   63SAPC  C216 5060  -0.190   0.233   8.138 -0.3166 -0.3252 -0.8838
   63SAPC  H16R 5061  -0.274   0.166   8.168 -0.1656  0.3321  1.1644
   63SAPC  H16S 5062  -0.234   0.294   8.056  0.7800  1.2610 -0.3446
   63SAPC  C217 5063  -0.153   0.331   8.258  0.2166  0.7920  0.0839
   63SAPC  H17R 5064  -0.252   0.372   8.288 -0.2123 -1.8528  2.7749
   63SAPC  H17S 5065  -0.091   0.418   8.226  0.5680  1.0226  1.3408
   63SAPC  C218 5066  -0.101   0.256   8.383  0.0845 -0.3478 -0.3719
   63SAPC  H18R 5067  -0.004   0.207   8.363 -0.4737 -1.8567  0.4715
   63SAPC  H18S 5068  -0.171   0.171   8.401 -0.6797  0.2363 -0.5024
   63SAPC  C219 5069  -0.108   0.326   8.516 -0.0576 -0.4828  0.4878
   63SAPC  H19R 5070  -0.126   0.252   8.596  2.1563  1.0275  2.5431
   63SAPC  H19S 5071  -0.203   0.383   8.510  0.7839  0.8896 -1.2779
   63SAPC  C220 5072   0.016   0.414   8.547 -0.4862 -0.5900 -0.4441
   63SAPC  H20R 5073   0.114   0.371   8.517 -0.4132 -1.4403  0.9474
   63SAPC  H20S 5074   0.034   0.434   8.654  1.1636  1.4169 -1.0406
   63SAPC  H20T 5075   0.010   0.513   8.497 -2.4518 -1.0041 -1.1253
   63SAPC   C33 5076  -0.534   0.336   7.074 -0.0079 -0.4804  0.4437
   63SAPC   H3X 5077  -0.492   0.233   7.081 -0.8686 -0.8916 -0.2680
   63SAPC   H3Y 5078  -0.629   0.320   7.019  0.1333  0.4287 -0.0970
   63SAPC   C34 5079  -0.553   0.386   7.221 -0.0613 -0.0146  0.7237
   63SAPC   H4X 5080  -0.639   0.335   7.270  0.5015 -1.4944  0.2228
   63SAPC   H4Y 5081  -0.590   0.491   7.220  1.5881  0.6010  0.5053
   63SAPC   C35 5082  -0.433   0.379   7.316  0.0580  0.0353 -0.2150
   63SAPC   H5X 5083  -0.343   0.435   7.284 -0.4025  0.6466 -0.4730
   63SAPC   H5Y 5084  -0.410   0.271   7.316 -0.4168 -0.0688 -0.0484
   63SAPC   C36 5085  -0.478   0.420   7.461 -0.3062  0.1507  0.1263
   63SAPC   H6X 5086  -0.573   0.367   7.485 -0.1773 -0.2302 -0.1832
   63SAPC   H6Y 5087  -0.512   0.526   7.464 -0.4870  0.1622 -1.4484
   63SAPC   C37 5088  -0.368   0.401   7.563  0.8643  0.7985  0.0901
   63SAPC   H7X 5089  -0.408   0.455   7.651 -0.1806 -0.7831  0.6245
   63SAPC   H7Y 5090  -0.271   0.446   7.533  1.5228 -0.3791  0.3701
   63SAPC   C38 5091  -0.351   0.259   7.608  0.1779 -0.0552 -0.6699
   63SAPC   H8X 5092  -0.244   0.238   7.628  0.6591 -0.1277 -3.0492
   63SAPC   H8Y 5093  -0.354   0.190   7.521  2.4565 -0.9381 -0.1082
   63SAPC   C39 5094  -0.451   0.230   7.726 -0.2496  0.3825 -0.3288
   63SAPC   H9X 5095  -0.556   0.237   7.691 -1.0176 -0.0807  1.7547
   63SAPC   H9Y 5096  -0.428   0.316   7.793 -0.1411  0.8317 -0.9360
   63SAPC  C310 5097  -0.425   0.103   7.800  1.0828  0.0112 -0.1474
   63SAPC  H10X 5098  -0.318   0.081   7.820  0.7052 -2.2607 -0.3114
   63SAPC  H10Y 5099  -0.450   0.015   7.736  1.0213 -0.6029  0.7015
   63SAPC  C311 5100  -0.495   0.110   7.943  0.4895  0.9468  0.4268
   63SAPC  H11X 5101  -0.602   0.138   7.933  0.7186  2.0289  0.9064
   63SAPC  H11Y 5102  -0.447   0.192   8.002  1.2031  0.2908  0.7883
   63SAPC  C312 5103  -0.498  -0.027   8.018  0.4777  0.2583  0.1257
   63SAPC  H12X 5104  -0.402  -0.039   8.073  0.7120  2.0173  0.1423
   63SAPC  H12Y 5105  -0.501  -0.098   7.933 -0.5680  1.8588 -1.2490
   63SAPC  C313 5106  -0.623  -0.053   8.099  0.5615 -0.3573 -0.2216
   63SAPC  H13X 5107  -0.710  -0.036   8.033 -0.0432 -1.4182  0.2706
   63SAPC  H13Y 5108  -0.632   0.015   8.186 -2.3247 -0.2910 -0.4809
   63SAPC  C314 5109  -0.640  -0.197   8.166  0.0761 -0.0048  0.3140
   63SAPC  H14X 5110  -0.542  -0.247   8.183  0.5898  0.5494 -0.8900
   63SAPC  H14Y 5111  -0.705  -0.264   8.106  0.3926  0.2526 -0.3331
   63SAPC  C315 5112  -0.715  -0.180   8.304 -0.3043 -0.6919 -0.1211
   63SAPC  H15X 5113  -0.820  -0.143   8.302 -0.2031 -0.4277 -0.6317
   63SAPC  H15Y 5114  -0.658  -0.106   8.365 -0.4005 -0.8604  0.1769
   63SAPC  C316 5115  -0.730  -0.314   8.384 -0.4993 -0.1969  0.0122
   63SAPC  H16X 5116  -0.634  -0.365   8.408  0.7339  1.6819 -0.7381
   63SAPC  H16Y 5117  -0.787  -0.380   8.315  1.1403 -1.5374 -0.1494
   63SAPC  C317 5118  -0.801  -0.306   8.519 -0.7287  0.7650 -0.7361
   63SAPC  H17X 5119  -0.807  -0.408   8.561 -4.3047  1.3360  0.4835
   63SAPC  H17Y 5120  -0.907  -0.293   8.487 -1.3588 -1.8545  0.0666
   63SAPC  C318 5121  -0.751  -0.205   8.621  0.1064 -0.4309 -0.3437
   63SAPC  H18X 5122  -0.807  -0.214   8.717 -1.2923 -1.1005 -1.1949
   63SAPC  H18Y 5123  -0.758  -0.100   8.586  1.9924 -0.6024 -1.3673
   63SAPC  H18Z 5124  -0.643  -0.220   8.644 -0.2492 -2.4102  0.2195
   64SAPC     N 5125   2.645   6.205   5.627  0.6387 -0.4713  0.0008
   64SAPC   C12 5126   2.641   6.168   5.776  0.1967 -0.1541  0.9190
   64SAPC  H12A 5127   2.725   6.102   5.787  0.8169  0.2820 -0.8730
   64SAPC  H12B 5128   2.547   6.116   5.791 -0.0603 -0.2485 -0.7886
   64SAPC   C13 5129   2.772   6.268   5.583  0.6865  0.0969  0.3174
   64SAPC  H13A 5130   2.774   6.268   5.475 -0.2563  1.0811  0.2867
   64SAPC  H13B 5131   2.773   6.373   5.607  3.1773 -0.0468  1.1731
   64SAPC  H13C 5132   2.861   6.221   5.624  0.7954 -0.7186 -0.8106
   64SAPC   C14 5133   2.621   6.079   5.555 -0.2023  0.0331  0.2400
   64SAPC  H14A 5134   2.592   6.090   5.452  1.1963 -0.8664 -0.2607
   64SAPC  H14B 5135   2.712   6.022   5.544 -1.9547 -2.6310 -1.5968
   64SAPC  H14C 5136   2.550   6.014   5.605  1.3734 -1.1176  1.0503
   64SAPC   C15 5137   2.522   6.284   5.595  0.4416  0.4234 -0.5267
   64SAPC  H15A 5138   2.514   6.306   5.489  0.4233  2.9341 -0.0614
   64SAPC  H15B 5139   2.431   6.237   5.630 -0.6302  0.6480 -2.8400
   64SAPC  H15C 5140   2.531   6.376   5.650  0.5472 -0.4900  1.0353
   64SAPC   C11 5141   2.660   6.269   5.886 -0.8462 -0.3369 -0.0219
   64SAPC  H11A 5142   2.696   6.223   5.980 -0.2901  2.0753  1.0170
   64SAPC  H11B 5143   2.556   6.307   5.899 -1.5955 -1.9714 -0.9096
   64SAPC     P 5144   2.890   6.390   5.922 -0.0090 -0.1341 -0.1240
   64SAPC   O13 5145   2.958   6.267   5.895  0.5938  0.2584 -0.1039
   64SAPC   O14 5146   2.950   6.513   5.874 -0.0149 -0.1819  0.6006
   64SAPC   O12 5147   2.747   6.380   5.849  1.0815  0.5233  0.1541
   64SAPC   O11 5148   2.853   6.387   6.075  0.2766  0.0655  0.4814
   64SAPC    C1 5149   2.762   6.485   6.116 -0.9283 -0.4159  0.0141
   64SAPC    HA 5150   2.789   6.583   6.072  0.0040  0.2083  1.8252
   64SAPC    HB 5151   2.655   6.465   6.095 -2.2041  1.8797  3.3786
   64SAPC    C2 5152   2.772   6.497   6.274  0.5489 -1.1248 -0.1333
   64SAPC    HS 5153   2.686   6.559   6.306 -0.6657 -1.5969 -2.3066
   64SAPC   O21 5154   2.903   6.556   6.301  0.0834  1.0227  0.0354
   64SAPC   C21 5155   2.913   6.617   6.419  0.1590  0.2036 -0.4994
   64SAPC   O22 5156   2.823   6.638   6.496  0.0665  0.2288 -0.1640
   64SAPC   C22 5157   3.060   6.654   6.438  0.0010 -0.1081  0.3944
   64SAPC   H2R 5158   3.118   6.656   6.344  1.8825  1.1245  1.5270
   64SAPC   H2S 5159   3.073   6.756   6.480 -1.1701  0.7100 -1.1158
   64SAPC    C3 5160   2.751   6.359   6.343 -0.0953 -0.0049  0.0877
   64SAPC    HX 5161   2.840   6.295   6.330  0.3729  0.7218 -0.4028
   64SAPC    HY 5162   2.669   6.311   6.285  0.1015  1.0061 -1.0680
   64SAPC   O31 5163   2.731   6.380   6.484 -0.6088 -0.6812  0.4079
   64SAPC   C31 5164   2.606   6.367   6.533  0.0867 -0.5993  0.1705
   64SAPC   O32 5165   2.512   6.324   6.466  0.1215  0.2344 -0.2082
   64SAPC   C32 5166   2.598   6.412   6.679  0.5046  0.3714  0.0271
   64SAPC   H2X 5167   2.522   6.349   6.730 -1.7741  3.0315  0.1984
   64SAPC   H2Y 5168   2.549   6.512   6.689 -1.8220 -0.8676  2.4716
   64SAPC   C23 5169   3.134   6.557   6.530 -0.5326  0.7342 -0.3420
   64SAPC   H3R 5170   3.240   6.559   6.496  0.0116 -2.8144  0.7336
   64SAPC   H3S 5171   3.112   6.450   6.510  1.1681  0.1228  0.8309
   64SAPC   C24 5172   3.124   6.588   6.685 -0.3260  0.0461  0.0969
   64SAPC   H4R 5173   3.015   6.601   6.702 -0.9861 -4.1613  0.2407
   64SAPC   H4S 5174   3.184   6.682   6.689  1.1247 -0.7432 -1.3563
   64SAPC   C25 5175   3.166   6.463   6.765  0.3669 -0.3753 -0.3926
   64SAPC   H5R 5176   3.157   6.365   6.716 -2.5343  0.0826 -0.9973
   64SAPC   C26 5177   3.231   6.465   6.878  0.4367  0.2369  0.0348
   64SAPC   H6R 5178   3.253   6.370   6.927  0.4248  1.0552  1.7070
   64SAPC   C27 5179   3.273   6.594   6.961 -0.0355  0.6004  0.3551
   64SAPC   H7R 5180   3.285   6.690   6.905 -0.2023  0.2070 -0.3663
   64SAPC   H7S 5181   3.374   6.577   7.004  0.4530 -3.3002 -1.8212
   64SAPC   C28 5182   3.166   6.630   7.065 -0.6320  0.4882  0.3516
   64SAPC   H8R 5183   3.062   6.615   7.030 -0.9039  0.4179  1.1759
   64SAPC   C29 5184   3.190   6.659   7.191  0.0113  0.1254 -0.3002
   64SAPC   H9R 5185   3.113   6.677   7.268  1.0945  0.4367  0.7411
   64SAPC  C210 5186   3.328   6.672   7.251  0.2484 -0.8276  0.2888
   64SAPC  H10R 5187   3.333   6.761   7.317  0.5694 -0.7047  0.1010
   64SAPC  H10S 5188   3.403   6.692   7.171 -1.0052  2.1141 -0.2555
   64SAPC  C211 5189   3.355   6.548   7.341 -0.7584  0.2394  0.0736
   64SAPC  H11R 5190   3.347   6.453   7.286  1.7661 -1.6179  2.6335
   64SAPC  C212 5191   3.406   6.542   7.468 -0.1511  0.5083 -0.1039
   64SAPC  H12R 5192   3.415   6.450   7.527  0.0341  0.1972 -0.6062
   64SAPC  C213 5193   3.408   6.671   7.555  0.2980 -0.4168 -0.1374
   64SAPC  H13R 5194   3.410   6.766   7.497  2.5021  0.8490  1.8099
   64SAPC  H13S 5195   3.500   6.672   7.617  1.8420 -4.3404 -2.0283
   64SAPC  C214 5196   3.288   6.677   7.638 -0.0281 -0.2010  0.3798
   64SAPC  H14R 5197   3.196   6.654   7.583 -0.8705  0.2912  1.5463
   64SAPC  C215 5198   3.282   6.718   7.766 -0.0329  0.5113 -0.5451
   64SAPC  H15R 5199   3.184   6.723   7.814 -0.0090 -3.4468  0.2863
   64SAPC  C216 5200   3.405   6.765   7.846  0.5474  0.5627 -0.3173
   64SAPC  H16R 5201   3.442   6.857   7.796  0.7124  0.4225 -0.4525
   64SAPC  H16S 5202   3.488   6.692   7.848 -2.0442 -2.6757 -1.0433
   64SAPC  C217 5203   3.373   6.806   7.986  0.3881 -0.2604  0.1141
   64SAPC  H17R 5204   3.463   6.833   8.046 -0.2905  0.1193  0.9716
   64SAPC  H17S 5205   3.328   6.714   8.029 -1.5554  0.3893 -0.4467
   64SAPC  C218 5206   3.283   6.929   7.998 -0.2252  0.9404  0.4627
   64SAPC  H18R 5207   3.198   6.920   7.927  1.5072 -0.4348 -1.6243
   64SAPC  H18S 5208   3.337   7.022   7.972  1.3661 -0.0710 -0.0198
   64SAPC  C219 5209   3.231   6.945   8.146 -0.8944 -0.5926 -0.0424
   64SAPC  H19R 5210   3.196   6.843   8.174 -0.9611 -0.4697  0.3397
   64SAPC  H19S 5211   3.141   7.010   8.156  0.3619  1.0768  0.9391
   64SAPC  C220 5212   3.329   6.985   8.257  0.3882 -0.0198 -0.6851
   64SAPC  H20R 5213   3.396   6.897   8.259  1.0757  0.4936  0.6991
   64SAPC  H20S 5214   3.274   7.007   8.351  1.2376 -1.0624  0.0722
   64SAPC  H20T 5215   3.394   7.072   8.232 -0.0639  0.3352 -0.6317
   64SAPC   C33 5216   2.731   6.421   6.757 -0.2012  0.0319  0.1441
   64SAPC   H3X 5217   2.791   6.511   6.731  1.7432 -1.3939 -0.5798
   64SAPC   H3Y 5218   2.796   6.332   6.741  1.0581  0.4397  2.4775
   64SAPC   C34 5219   2.691   6.433   6.902  0.2955 -0.1548 -0.4991
   64SAPC   H4X 5220   2.604   6.369   6.928  0.2773  0.3687  0.8173
   64SAPC   H4Y 5221   2.649   6.530   6.935  0.7075  0.1531 -0.8707
   64SAPC   C35 5222   2.804   6.391   6.996 -0.3576 -0.0851  0.3689
   64SAPC   H5X 5223   2.891   6.451   6.963 -0.0155 -1.6934 -1.8686
   64SAPC   H5Y 5224   2.828   6.282   6.989  0.4083 -0.0175  1.6198
   64SAPC   C36 5225   2.765   6.433   7.142  0.0096  0.2439 -0.1031
   64SAPC   H6X 5226   2.676   6.377   7.176 -0.3455  1.2692  0.7065
   64SAPC   H6Y 5227   2.743   6.542   7.138  1.1380  0.5201  0.6976
   64SAPC   C37 5228   2.882   6.412   7.244  0.2178 -0.2750 -0.1296
   64SAPC   H7X 5229   2.965   6.484   7.230  0.6548 -0.6917  0.2930
   64SAPC   H7Y 5230   2.922   6.317   7.202 -0.8247 -0.1122 -1.5752
   64SAPC   C38 5231   2.841   6.396   7.391 -0.2755  0.0680  0.2416
   64SAPC   H8X 5232   2.772   6.309   7.403  0.3478 -0.5902 -0.7738
   64SAPC   H8Y 5233   2.782   6.490   7.401 -4.6250 -2.4257  0.4247
   64SAPC   C39 5234   2.952   6.416   7.493  0.0337  0.2554  0.9914
   64SAPC   H9X 5235   2.913   6.451   7.590  0.6170  1.3029  0.8666
   64SAPC   H9Y 5236   3.020   6.496   7.454 -2.6370  1.6495 -1.1517
   64SAPC  C310 5237   3.028   6.282   7.519  0.5211  0.3893  0.1898
   64SAPC  H10X 5238   3.089   6.251   7.431 -0.6519 -0.3888 -0.3802
   64SAPC  H10Y 5239   2.952   6.201   7.527  0.2291  0.7560  1.2953
   64SAPC  C311 5240   3.110   6.289   7.654  0.5473 -1.1647 -0.0907
   64SAPC  H11X 5241   3.038   6.304   7.737 -1.4494  1.7588 -2.1506
   64SAPC  H11Y 5242   3.166   6.384   7.646 -0.5078 -0.5976 -0.9684
   64SAPC  C312 5243   3.209   6.173   7.671 -0.8169 -0.3122  0.3747
   64SAPC  H12X 5244   3.285   6.185   7.592 -2.0425 -2.2376 -1.1840
   64SAPC  H12Y 5245   3.157   6.084   7.629  1.9643 -0.6908 -2.5515
   64SAPC  C313 5246   3.248   6.151   7.816  0.0042  0.3316 -0.0096
   64SAPC  H13X 5247   3.315   6.065   7.836  1.4893  1.4549  0.0388
   64SAPC  H13Y 5248   3.156   6.145   7.879  1.0756 -0.6377  1.5387
   64SAPC  C314 5249   3.319   6.272   7.872 -0.4830  0.2169 -0.5186
   64SAPC  H14X 5250   3.273   6.372   7.858  3.6652  2.1893 -1.9252
   64SAPC  H14Y 5251   3.412   6.281   7.811  0.4134  0.3767  0.8406
   64SAPC  C315 5252   3.365   6.245   8.012  0.1456  0.1058 -0.3155
   64SAPC  H15X 5253   3.427   6.153   8.008 -1.3579 -0.9835  0.7795
   64SAPC  H15Y 5254   3.276   6.221   8.073  0.4594 -3.1194 -0.9560
   64SAPC  C316 5255   3.439   6.363   8.083  0.0371 -0.0873 -0.2493
   64SAPC  H16X 5256   3.378   6.455   8.078  0.3718  0.0910 -1.2167
   64SAPC  H16Y 5257   3.538   6.391   8.040  0.4420  1.7068  1.6824
   64SAPC  C317 5258   3.463   6.333   8.233  0.3667 -0.5747 -0.5656
   64SAPC  H17X 5259   3.538   6.257   8.266 -0.5800 -0.9981  0.6956
   64SAPC  H17Y 5260   3.372   6.281   8.270 -0.3184  0.5721 -0.5962
   64SAPC  C318 5261   3.473   6.453   8.321 -0.0720  0.6721  0.1100
   64SAPC  H18X 5262   3.399   6.532   8.295 -0.4869  0.2613  0.0398
   64SAPC  H18Y 5263   3.572   6.500   8.302 -0.4139  1.1167 -0.6439
   64SAPC  H18Z 5264   3.448   6.424   8.425  3.3495 -0.0994  0.8287
   65SAPC     N 5265   2.510   1.250   6.128  0.1467  0.6794 -0.7665
   65SAPC   C12 5266   2.391   1.326   6.188 -0.1401  0.5370  0.4192
   65SAPC  H12A 5267   2.433   1.387   6.266  1.1586 -0.9085  0.9025
   65SAPC  H12B 5268   2.336   1.255   6.248  0.8933  0.3732  1.1950
   65SAPC   C13 5269   2.594   1.192   6.238  0.3201  0.7143  0.1307
   65SAPC  H13A 5270   2.624   1.267   6.310 -2.3587 -0.3135  2.5105
   65SAPC  H13B 5271   2.530   1.124   6.293 -1.0549  2.1463  0.3672
   65SAPC  H13C 5272   2.677   1.136   6.197  0.6288 -1.0484  2.8711
   65SAPC   C14 5273   2.466   1.139   6.039  0.1014 -0.2018  0.1317
   65SAPC  H14A 5274   2.410   1.057   6.082  0.5306  0.6277  2.4352
   65SAPC  H14B 5275   2.406   1.175   5.957 -0.6948 -1.1377  0.2814
   65SAPC  H14C 5276   2.554   1.090   5.999  0.8544 -1.2057  2.7724
   65SAPC   C15 5277   2.594   1.344   6.058  0.2948 -0.1326  1.2462
   65SAPC  H15A 5278   2.688   1.309   6.019  0.0606 -1.1950  1.6135
   65SAPC  H15B 5279   2.547   1.386   5.970 -0.3252 -0.3593  1.4616
   65SAPC  H15C 5280   2.602   1.429   6.125 -2.9396  1.9225 -0.6868
   65SAPC   C11 5281   2.292   1.413   6.097 -0.5061  0.3457 -0.4268
   65SAPC  H11A 5282   2.348   1.500   6.057 -0.7340  1.1573  0.9253
   65SAPC  H11B 5283   2.215   1.456   6.166  0.0194  2.4182 -1.0581
   65SAPC     P 5284   2.102   1.253   6.015  0.1171  0.3757 -0.1986
   65SAPC   O13 5285   1.988   1.340   5.973 -0.3099  0.1183 -0.3760
   65SAPC   O14 5286   2.123   1.119   5.947  0.6694  0.0732  0.1534
   65SAPC   O12 5287   2.234   1.338   5.992 -0.0417 -0.5623 -0.3677
   65SAPC   O11 5288   2.095   1.232   6.174  0.1706 -0.2270 -0.9126
   65SAPC    C1 5289   1.977   1.189   6.239 -0.0274  0.1240 -0.0573
   65SAPC    HA 5290   1.890   1.208   6.172  0.1939  3.1365  0.3594
   65SAPC    HB 5291   1.993   1.082   6.264 -2.4684 -0.3032 -0.0130
   65SAPC    C2 5292   1.947   1.266   6.367  0.2071  0.1290  0.1519
   65SAPC    HS 5293   1.876   1.209   6.430 -0.7977 -0.4295 -1.4367
   65SAPC   O21 5294   1.905   1.401   6.333 -0.3420  0.4741 -0.2905
   65SAPC   C21 5295   1.775   1.416   6.311 -0.3510 -0.2177 -0.9583
   65SAPC   O22 5296   1.696   1.326   6.303 -0.0459 -0.1019 -0.5486
   65SAPC   C22 5297   1.737   1.569   6.314  0.9853 -0.0730  0.4760
   65SAPC   H2R 5298   1.822   1.630   6.352  0.7515  0.2094  0.5491
   65SAPC   H2S 5299   1.734   1.600   6.207 -1.2353  0.2809  0.6083
   65SAPC    C3 5300   2.076   1.270   6.456 -0.7174 -0.0442 -0.2083
   65SAPC    HX 5301   2.057   1.327   6.549  1.0505 -0.1799  0.2850
   65SAPC    HY 5302   2.154   1.318   6.392  0.0684  0.2296  0.9116
   65SAPC   O31 5303   2.118   1.136   6.500  0.7563  0.1275 -0.1586
   65SAPC   C31 5304   2.237   1.088   6.478  0.1669 -0.4832  0.9394
   65SAPC   O32 5305   2.326   1.151   6.419  0.0861 -0.3059  0.3202
   65SAPC   C32 5306   2.240   0.944   6.515  0.9923  0.4229 -0.0320
   65SAPC   H2X 5307   2.344   0.906   6.505 -0.2544 -3.9163  0.9816
   65SAPC   H2Y 5308   2.181   0.892   6.436  0.8164  1.8344 -0.8639
   65SAPC   C23 5309   1.588   1.603   6.354 -0.2087 -1.0143 -0.0894
   65SAPC   H3R 5310   1.510   1.535   6.315 -2.8761  0.6905  1.8423
   65SAPC   H3S 5311   1.571   1.703   6.309  1.6893 -0.5627  0.1098
   65SAPC   C24 5312   1.565   1.599   6.507  0.1922 -0.1746 -0.1622
   65SAPC   H4R 5313   1.579   1.494   6.538  2.3671 -0.0580 -0.5543
   65SAPC   H4S 5314   1.456   1.614   6.524 -0.0894 -1.3800 -0.8140
   65SAPC   C25 5315   1.645   1.685   6.592 -0.0110 -0.1270 -0.7240
   65SAPC   H5R 5316   1.710   1.752   6.533  2.1594 -1.1379  0.3942
   65SAPC   C26 5317   1.651   1.688   6.728 -0.3257 -0.0494  0.4546
   65SAPC   H6R 5318   1.712   1.767   6.774  1.7052 -0.6935 -1.0097
   65SAPC   C27 5319   1.573   1.591   6.817  0.3723  0.2435 -0.1337
   65SAPC   H7R 5320   1.642   1.555   6.897 -1.4179 -2.3518  0.3668
   65SAPC   H7S 5321   1.552   1.494   6.767  0.1792 -0.3022  0.9813
   65SAPC   C28 5322   1.435   1.644   6.865 -0.2821 -0.0595 -0.1564
   65SAPC   H8R 5323   1.385   1.722   6.804  0.5834  0.2431 -0.5003
   65SAPC   C29 5324   1.384   1.616   6.989  0.3108  0.3541 -0.3815
   65SAPC   H9R 5325   1.284   1.640   7.028  1.2730  1.1685  1.7442
   65SAPC  C210 5326   1.460   1.530   7.085  0.7353  0.4469 -0.7884
   65SAPC  H10R 5327   1.519   1.450   7.035  0.3850  0.5193 -1.3293
   65SAPC  H10S 5328   1.391   1.466   7.143  0.4463  0.2467 -1.3459
   65SAPC  C211 5329   1.561   1.607   7.162  0.0912  0.1521  0.0892
   65SAPC  H11R 5330   1.651   1.622   7.101 -0.0166 -0.2392 -0.1709
   65SAPC  C212 5331   1.554   1.623   7.296 -0.1599  0.4486  0.0482
   65SAPC  H12R 5332   1.640   1.676   7.340  0.5351 -1.5221  1.2149
   65SAPC  C213 5333   1.449   1.579   7.388  0.2517  0.0040 -0.1064
   65SAPC  H13R 5334   1.481   1.558   7.493 -1.6120 -0.5916  0.3862
   65SAPC  H13S 5335   1.404   1.482   7.358  0.0508 -0.4464  1.5245
   65SAPC  C214 5336   1.334   1.677   7.386  0.2986  0.0832 -0.5380
   65SAPC  H14R 5337   1.325   1.745   7.300 -3.1262  0.5672  0.0739
   65SAPC  C215 5338   1.230   1.689   7.474  0.2476 -0.7106 -0.6517
   65SAPC  H15R 5339   1.152   1.766   7.462 -0.2063 -0.9739  0.4976
   65SAPC  C216 5340   1.206   1.616   7.605  0.3828 -0.1460  0.3039
   65SAPC  H16R 5341   1.295   1.555   7.631 -0.2529 -0.9004  0.7865
   65SAPC  H16S 5342   1.123   1.547   7.577  1.5107 -1.1840 -0.5445
   65SAPC  C217 5343   1.164   1.699   7.725 -0.7161 -0.2801  0.2486
   65SAPC  H17R 5344   1.075   1.762   7.707 -1.8076 -1.6755  0.5816
   65SAPC  H17S 5345   1.242   1.775   7.745 -0.6086 -0.4541  0.5013
   65SAPC  C218 5346   1.141   1.616   7.856  0.1436 -0.4734 -0.6583
   65SAPC  H18R 5347   1.146   1.675   7.950  1.1932 -0.1362 -0.9176
   65SAPC  H18S 5348   1.227   1.550   7.876  0.4348 -0.0065 -0.3531
   65SAPC  C219 5349   1.013   1.531   7.858  0.2233  0.3545 -0.5291
   65SAPC  H19R 5350   1.014   1.462   7.771  1.0552 -1.6128  0.9618
   65SAPC  H19S 5351   0.939   1.613   7.851  1.4509  1.8828  2.6542
   65SAPC  C220 5352   0.988   1.467   7.992 -0.7861  0.9180 -0.2903
   65SAPC  H20R 5353   1.084   1.421   8.025 -0.3626  1.7167 -0.3912
   65SAPC  H20S 5354   0.905   1.395   7.971  1.8396 -1.6628 -2.7519
   65SAPC  H20T 5355   0.954   1.529   8.077 -1.7898 -2.0605  1.6547
   65SAPC   C33 5356   2.175   0.909   6.658 -0.7892  0.7211 -0.2566
   65SAPC   H3X 5357   2.084   0.846   6.643 -0.4351  0.2964 -0.6573
   65SAPC   H3Y 5358   2.149   0.999   6.716 -2.4093 -0.0249  0.2460
   65SAPC   C34 5359   2.274   0.827   6.749  1.1175 -0.0864  0.1814
   65SAPC   H4X 5360   2.366   0.887   6.766  0.6111  0.6158  0.5355
   65SAPC   H4Y 5361   2.290   0.724   6.713  0.3356  0.9673 -3.6410
   65SAPC   C35 5362   2.209   0.813   6.887  0.4767  0.5871  0.4952
   65SAPC   H5X 5363   2.104   0.781   6.871  0.4400  0.6713  0.5676
   65SAPC   H5Y 5364   2.223   0.908   6.944  2.1037  1.6552 -1.5190
   65SAPC   C36 5365   2.286   0.701   6.960 -0.5283 -0.0810 -0.6479
   65SAPC   H6X 5366   2.394   0.717   6.940 -0.9328  2.1798 -1.3783
   65SAPC   H6Y 5367   2.270   0.601   6.914  0.7388 -0.3925 -0.4408
   65SAPC   C37 5368   2.259   0.695   7.110 -0.0381  0.2141 -0.0914
   65SAPC   H7X 5369   2.154   0.658   7.111  0.6043 -1.9105  3.0460
   65SAPC   H7Y 5370   2.273   0.798   7.150  0.3894  0.2563 -0.3392
   65SAPC   C38 5371   2.349   0.593   7.178  0.0107 -0.1664  0.2656
   65SAPC   H8X 5372   2.457   0.621   7.173  0.1734 -0.2765  2.4002
   65SAPC   H8Y 5373   2.335   0.495   7.128  0.1672  0.4233 -0.9685
   65SAPC   C39 5374   2.321   0.574   7.324 -0.2255  0.2113 -0.3037
   65SAPC   H9X 5375   2.214   0.562   7.351 -0.9287  1.8724 -2.1368
   65SAPC   H9Y 5376   2.362   0.662   7.378  0.2266 -0.1474 -0.0489
   65SAPC  C310 5377   2.397   0.449   7.383  0.5154  0.0800 -0.0584
   65SAPC  H10X 5378   2.503   0.471   7.358  0.9946 -2.8792 -1.0165
   65SAPC  H10Y 5379   2.367   0.358   7.326 -0.7609 -0.1477  0.9276
   65SAPC  C311 5380   2.366   0.427   7.532  0.0116 -0.7221 -0.3878
   65SAPC  H11X 5381   2.261   0.389   7.529 -0.6703  1.0194 -4.8012
   65SAPC  H11Y 5382   2.372   0.524   7.585 -0.8881 -0.2819 -1.0779
   65SAPC  C312 5383   2.459   0.322   7.596  0.2012 -0.0595 -0.0344
   65SAPC  H12X 5384   2.568   0.342   7.580  0.7954 -1.6131  1.6986
   65SAPC  H12Y 5385   2.443   0.233   7.533 -1.5815  0.8207 -0.8841
   65SAPC  C313 5386   2.430   0.296   7.747 -0.0698 -0.2410  0.0542
   65SAPC  H13X 5387   2.388   0.389   7.790 -1.3260  0.6900 -2.9290
   65SAPC  H13Y 5388   2.530   0.277   7.791  0.4867 -1.1563 -1.4981
   65SAPC  C314 5389   2.335   0.179   7.769 -0.4237 -0.4560 -0.8267
   65SAPC  H14X 5390   2.371   0.092   7.709 -0.3315 -0.7354 -0.3731
   65SAPC  H14Y 5391   2.231   0.205   7.740 -0.7493 -0.9752 -0.1851
   65SAPC  C315 5392   2.338   0.127   7.913  0.4350  0.5408  0.3514
   65SAPC  H15X 5393   2.446   0.121   7.940  0.9799 -1.4910 -1.9484
   65SAPC  H15Y 5394   2.291   0.027   7.906 -0.4219  0.8548  1.3438
   65SAPC  C316 5395   2.258   0.218   7.997 -0.1171 -0.3399 -0.4642
   65SAPC  H16X 5396   2.154   0.229   7.957 -0.3374 -2.5815 -0.5912
   65SAPC  H16Y 5397   2.304   0.319   8.004  1.4717 -0.9904 -1.1676
   65SAPC  C317 5398   2.254   0.176   8.140  1.0575 -0.1446 -0.9810
   65SAPC  H17X 5399   2.345   0.141   8.193 -0.9647 -2.1843  1.4484
   65SAPC  H17Y 5400   2.180   0.094   8.148 -0.3729  1.3016  3.9090
   65SAPC  C318 5401   2.184   0.282   8.234  0.0630  0.4526  0.7932
   65SAPC  H18X 5402   2.175   0.236   8.335 -0.3491  0.8339  0.9347
   65SAPC  H18Y 5403   2.088   0.318   8.190  0.6407 -0.5885 -1.4964
   65SAPC  H18Z 5404   2.253   0.369   8.238 -0.8324  1.1956  0.4796
   66SAPC     N 5405   0.157   1.826   6.053  0.4760 -0.6177  0.1968
   66SAPC   C12 5406   0.246   1.920   5.971  0.0481  0.1025  0.2787
   66SAPC  H12A 5407   0.187   1.986   5.908 -0.3444  0.0202  0.5523
   66SAPC  H12B 5408   0.308   1.856   5.910  0.7314  0.6075  0.4368
   66SAPC   C13 5409   0.238   1.741   6.145  0.6292 -0.1116  0.4802
   66SAPC  H13A 5410   0.182   1.685   6.219  1.0684 -0.0911  0.8314
   66SAPC  H13B 5411   0.308   1.680   6.091 -0.2022 -1.4426  0.8504
   66SAPC  H13C 5412   0.282   1.818   6.206 -1.8477  1.1288  0.8398
   66SAPC   C14 5413   0.064   1.914   6.128  0.7517  0.2621 -0.9307
   66SAPC  H14A 5414   0.002   1.856   6.195 -0.8918 -0.0311 -2.6135
   66SAPC  H14B 5415   0.117   1.982   6.193 -1.1287 -0.0959  1.1334
   66SAPC  H14C 5416  -0.007   1.962   6.063  1.2927 -0.6188 -2.2058
   66SAPC   C15 5417   0.076   1.743   5.959  0.1202  1.0339 -0.3337
   66SAPC  H15A 5418   0.010   1.679   6.016  0.6196 -1.5231 -2.4624
   66SAPC  H15B 5419   0.026   1.810   5.891 -0.2979  0.8250 -0.2327
   66SAPC  H15C 5420   0.139   1.677   5.902  4.3011  3.8063  0.6343
   66SAPC   C11 5421   0.346   2.014   6.046  0.5635 -0.5022 -0.2062
   66SAPC  H11A 5422   0.410   2.061   5.969  0.9874 -0.0031  0.4434
   66SAPC  H11B 5423   0.409   1.958   6.119  1.4406  1.0287  0.2629
   66SAPC     P 5424   0.298   2.160   6.251 -0.2947  0.2686  0.0676
   66SAPC   O13 5425   0.433   2.215   6.255 -0.1222  0.5260  0.1462
   66SAPC   O14 5426   0.194   2.245   6.317 -0.5228  0.6278 -0.4924
   66SAPC   O12 5427   0.263   2.113   6.112 -0.2960 -0.0387 -0.7219
   66SAPC   O11 5428   0.312   2.024   6.329  0.0235  0.1856  0.2458
   66SAPC    C1 5429   0.250   1.991   6.448  0.9825  0.3638 -0.8092
   66SAPC    HA 5430   0.180   2.074   6.469 -0.0765 -0.1881 -2.0748
   66SAPC    HB 5431   0.184   1.903   6.435 -2.1436  1.8706  2.8937
   66SAPC    C2 5432   0.343   1.974   6.575 -0.3384  0.0814  0.1425
   66SAPC    HS 5433   0.410   1.887   6.558 -0.0060 -0.1576  2.3583
   66SAPC   O21 5434   0.274   1.937   6.695 -0.5353 -0.0773 -0.2366
   66SAPC   C21 5435   0.174   1.989   6.742  0.1416  0.5389  0.2704
   66SAPC   O22 5436   0.115   2.088   6.695 -0.5419  0.0544 -0.5195
   66SAPC   C22 5437   0.136   1.920   6.874  0.4415 -0.5908 -0.7731
   66SAPC   H2R 5438   0.057   1.844   6.858 -0.8063 -0.4530  3.3552
   66SAPC   H2S 5439   0.230   1.875   6.913  0.1599 -1.1989 -0.7922
   66SAPC    C3 5440   0.428   2.107   6.603 -0.2500  0.0085  0.5712
   66SAPC    HX 5441   0.357   2.190   6.582 -1.2269 -1.2782 -1.6449
   66SAPC    HY 5442   0.507   2.123   6.526 -0.0452  0.1399  0.8098
   66SAPC   O31 5443   0.477   2.109   6.741 -0.0908 -0.3298 -0.0613
   66SAPC   C31 5444   0.601   2.076   6.751 -0.3863 -0.0987  0.4160
   66SAPC   O32 5445   0.681   2.057   6.663 -0.3583 -0.2259 -0.3721
   66SAPC   C32 5446   0.636   2.060   6.903  0.6020 -0.1315  0.1719
   66SAPC   H2X 5447   0.673   2.158   6.941 -1.4830  1.5193 -1.7261
   66SAPC   H2Y 5448   0.723   1.992   6.907 -0.4810 -1.5281  2.6454
   66SAPC   C23 5449   0.080   2.015   6.989 -0.6675  0.3569  0.1779
   66SAPC   H3R 5450   0.063   2.107   6.929  2.7491 -0.6445 -2.6994
   66SAPC   H3S 5451   0.162   2.047   7.057  0.8372 -0.7134 -1.0623
   66SAPC   C24 5452  -0.047   1.965   7.058  0.5176 -0.5371  0.6577
   66SAPC   H4R 5453  -0.031   1.871   7.115 -0.8847 -0.4369  1.2614
   66SAPC   H4S 5454  -0.123   1.944   6.980  0.1247 -1.7953  1.3448
   66SAPC   C25 5455  -0.093   2.080   7.150 -0.2487  0.6935  0.4391
   66SAPC   H5R 5456  -0.099   2.171   7.090  0.4244 -0.3134 -1.2206
   66SAPC   C26 5457  -0.124   2.079   7.282 -0.1147  0.5192  0.2669
   66SAPC   H6R 5458  -0.172   2.171   7.318  0.9193  1.0852  0.2234
   66SAPC   C27 5459  -0.132   1.964   7.381 -0.2976 -0.5340  0.4644
   66SAPC   H7R 5460  -0.192   1.879   7.343 -0.0997 -0.2538 -0.5087
   66SAPC   H7S 5461  -0.168   1.994   7.482  0.0673 -1.0188  0.7465
   66SAPC   C28 5462   0.008   1.900   7.408 -0.3329  1.0842  0.0219
   66SAPC   H8R 5463   0.055   1.859   7.318 -2.3470 -0.7010 -0.3002
   66SAPC   C29 5464   0.077   1.894   7.529 -0.2294  0.1004 -0.0227
   66SAPC   H9R 5465   0.165   1.828   7.531 -0.1563  0.2161  0.8942
   66SAPC  C210 5466   0.033   1.945   7.663  1.0666 -0.4617 -0.2726
   66SAPC  H10R 5467  -0.054   1.886   7.698  1.4041  0.0295  1.4938
   66SAPC  H10S 5468  -0.023   2.040   7.648 -0.3999 -0.8285  2.2711
   66SAPC  C211 5469   0.132   1.967   7.771 -0.0904 -0.5210  0.2558
   66SAPC  H11R 5470   0.186   2.063   7.772  0.7432 -0.9846  0.9813
   66SAPC  C212 5471   0.177   1.871   7.854  0.5682 -0.9320  0.4342
   66SAPC  H12R 5472   0.248   1.903   7.932 -0.5075  1.1597  0.6323
   66SAPC  C213 5473   0.122   1.733   7.874 -0.1207 -0.4983 -0.5721
   66SAPC  H13R 5474   0.191   1.677   7.941  0.0947  1.4951  0.9642
   66SAPC  H13S 5475   0.121   1.680   7.776 -1.6562  0.0930 -0.8962
   66SAPC  C214 5476  -0.021   1.714   7.926  0.7701  0.3490  0.4911
   66SAPC  H14R 5477  -0.097   1.784   7.886  0.7970 -0.4786 -1.0940
   66SAPC  C215 5478  -0.059   1.640   8.033  0.0535 -0.6179 -0.5091
   66SAPC  H15R 5479  -0.154   1.665   8.082  1.1037  3.2109 -0.0538
   66SAPC  C216 5480   0.033   1.553   8.113  0.1333  0.0152  0.0928
   66SAPC  H16R 5481   0.139   1.587   8.113 -0.0241  0.5675 -1.5594
   66SAPC  H16S 5482   0.023   1.448   8.076  0.1048  0.6195 -1.6750
   66SAPC  C217 5483  -0.006   1.530   8.264 -0.6819 -0.3134 -0.0989
   66SAPC  H17R 5484  -0.112   1.499   8.273 -1.3171  2.1161  2.2435
   66SAPC  H17S 5485   0.003   1.619   8.330 -2.4546 -0.1240 -0.0558
   66SAPC  C218 5486   0.093   1.426   8.321  0.0900  0.1734  0.1674
   66SAPC  H18R 5487   0.194   1.468   8.339  1.5035 -2.8066 -0.0745
   66SAPC  H18S 5488   0.110   1.349   8.242 -3.3006 -1.2050  0.5843
   66SAPC  C219 5489   0.046   1.363   8.458  0.2486  0.0969 -0.5647
   66SAPC  H19R 5490  -0.056   1.323   8.441  0.3681  0.2763 -1.7942
   66SAPC  H19S 5491   0.046   1.438   8.540  1.1577  0.3514 -0.7810
   66SAPC  C220 5492   0.131   1.251   8.505  0.3068 -0.2110  0.1517
   66SAPC  H20R 5493   0.113   1.245   8.615 -0.0900  1.0444  0.1645
   66SAPC  H20S 5494   0.242   1.262   8.507  0.2851 -0.0066  0.3691
   66SAPC  H20T 5495   0.107   1.159   8.448 -2.8395  1.6696 -1.8510
   66SAPC   C33 5496   0.524   2.004   6.999  0.1077 -0.2312  0.2423
   66SAPC   H3X 5497   0.517   1.895   6.976  0.4029  0.0625 -1.3867
   66SAPC   H3Y 5498   0.429   2.052   6.967 -0.0902 -1.6436 -1.4579
   66SAPC   C34 5499   0.551   2.017   7.149 -0.0738 -1.0348 -0.2237
   66SAPC   H4X 5500   0.574   2.120   7.186  1.8608 -1.7732  0.7712
   66SAPC   H4Y 5501   0.644   1.963   7.177 -0.0170 -0.1008  1.5601
   66SAPC   C35 5502   0.447   1.958   7.243  0.5141 -0.9588 -0.0160
   66SAPC   H5X 5503   0.439   1.853   7.208  1.9877 -1.3188  0.6489
   66SAPC   H5Y 5504   0.352   2.015   7.236  2.1623  1.9174 -0.6742
   66SAPC   C36 5505   0.482   1.953   7.395 -0.1744 -0.0453  0.3932
   66SAPC   H6X 5506   0.569   1.883   7.396 -0.3856 -0.3123  0.2621
   66SAPC   H6Y 5507   0.399   1.894   7.440  1.5823 -3.6916 -0.7902
   66SAPC   C37 5508   0.499   2.089   7.455 -0.1083  0.1849  0.5198
   66SAPC   H7X 5509   0.414   2.152   7.421  1.3220  1.1731 -1.3951
   66SAPC   H7Y 5510   0.591   2.137   7.415  0.2093 -0.9060 -0.1159
   66SAPC   C38 5511   0.495   2.078   7.609 -0.0075 -0.5538 -0.1804
   66SAPC   H8X 5512   0.588   2.024   7.637 -0.7858 -1.4499  0.7645
   66SAPC   H8Y 5513   0.398   2.025   7.626 -0.4594  0.4953  0.5728
   66SAPC   C39 5514   0.496   2.214   7.677  0.1928  0.2103 -0.1233
   66SAPC   H9X 5515   0.426   2.289   7.632 -0.6071 -0.0012  0.7287
   66SAPC   H9Y 5516   0.600   2.251   7.672 -0.1041  1.0803 -0.1514
   66SAPC  C310 5517   0.463   2.215   7.828  0.9585  0.2742 -0.0430
   66SAPC  H10X 5518   0.370   2.156   7.847  0.0815  2.0414  1.4673
   66SAPC  H10Y 5519   0.441   2.314   7.872 -0.6485 -1.4041  3.3374
   66SAPC  C311 5520   0.565   2.146   7.917  0.0200  0.2777 -0.0348
   66SAPC  H11X 5521   0.661   2.195   7.889  0.5806 -0.1138  1.1127
   66SAPC  H11Y 5522   0.562   2.040   7.884  1.7354 -0.0676  0.7835
   66SAPC  C312 5523   0.522   2.131   8.068  0.2358  0.2503  0.0678
   66SAPC  H12X 5524   0.608   2.081   8.117 -0.6370 -1.5884 -0.2187
   66SAPC  H12Y 5525   0.430   2.069   8.070 -1.0589  2.0485 -0.7996
   66SAPC  C313 5526   0.474   2.264   8.145 -0.9702  0.5856  0.7156
   66SAPC  H13X 5527   0.365   2.271   8.124 -0.9044 -2.0135 -0.9741
   66SAPC  H13Y 5528   0.529   2.353   8.107 -0.4466  0.5907  1.4683
   66SAPC  C314 5529   0.510   2.265   8.293 -0.2201 -0.9669  0.4882
   66SAPC  H14X 5530   0.616   2.299   8.303 -0.0917 -1.1229 -0.2900
   66SAPC  H14Y 5531   0.490   2.158   8.318  2.1353 -1.7637 -0.7323
   66SAPC  C315 5532   0.417   2.351   8.378  0.2260 -0.2678  0.5395
   66SAPC  H15X 5533   0.326   2.372   8.317  0.7285 -0.1682 -0.2004
   66SAPC  H15Y 5534   0.452   2.454   8.403 -2.0195  1.1263 -1.4878
   66SAPC  C316 5535   0.347   2.274   8.494  0.1723 -0.4607 -0.2637
   66SAPC  H16X 5536   0.432   2.244   8.559  1.2700 -0.0203 -1.4525
   66SAPC  H16Y 5537   0.290   2.185   8.459  0.7625 -2.3176  3.0641
   66SAPC  C317 5538   0.262   2.358   8.590 -0.3057  0.8218 -0.1089
   66SAPC  H17X 5539   0.322   2.447   8.619  1.0322  0.2189 -0.9283
   66SAPC  H17Y 5540   0.239   2.296   8.679 -1.5579 -0.2307 -1.1395
   66SAPC  C318 5541   0.133   2.398   8.520  0.2880 -0.4297 -0.0524
   66SAPC  H18X 5542   0.082   2.308   8.481 -2.7636  1.8679 -1.7860
   66SAPC  H18Y 5543   0.155   2.462   8.432  2.8419 -0.2003  0.6813
   66SAPC  H18Z 5544   0.065   2.455   8.587  0.4549  0.3822 -0.5604
   67SAPC     N 5545   2.703   3.886   5.881 -0.0697 -0.4446  0.0683
   67SAPC   C12 5546   2.671   3.886   6.025  0.1830  0.3141  0.1234
   67SAPC  H12A 5547   2.731   3.809   6.071 -0.2533  0.0866  0.3181
   67SAPC  H12B 5548   2.567   3.867   6.047 -0.0110 -0.3354 -1.2613
   67SAPC   C13 5549   2.640   3.994   5.806 -0.0569  0.1718 -0.1914
   67SAPC  H13A 5550   2.653   4.088   5.857 -2.2515  0.3047  0.2514
   67SAPC  H13B 5551   2.683   3.992   5.708  3.1621 -1.3591  1.1213
   67SAPC  H13C 5552   2.533   3.983   5.793 -0.1693 -2.4825  2.0914
   67SAPC   C14 5553   2.859   3.909   5.860  0.6711  0.2462 -0.0289
   67SAPC  H14A 5554   2.910   3.820   5.895  2.6283  1.6996  1.0132
   67SAPC  H14B 5555   2.898   3.931   5.762 -0.4181  1.0567 -0.2884
   67SAPC  H14C 5556   2.893   3.986   5.928 -0.8655 -0.1526  1.2395
   67SAPC   C15 5557   2.659   3.762   5.809 -0.0045  0.0645  0.6986
   67SAPC  H15A 5558   2.555   3.736   5.817 -0.9712  3.0186 -0.8625
   67SAPC  H15B 5559   2.665   3.772   5.701 -3.3509 -3.5396 -0.0409
   67SAPC  H15C 5560   2.725   3.679   5.831 -0.8283 -1.5655 -2.3792
   67SAPC   C11 5561   2.708   4.007   6.109  0.6302 -0.0678  0.3669
   67SAPC  H11A 5562   2.637   4.009   6.194 -0.3025  2.2477 -0.3849
   67SAPC  H11B 5563   2.684   4.105   6.062  1.6739  0.7844  1.5358
   67SAPC     P 5564   2.901   3.926   6.274 -0.1572  0.2119 -0.3570
   67SAPC   O13 5565   2.906   3.786   6.229 -0.1943 -0.5900  0.0816
   67SAPC   O14 5566   3.032   3.979   6.318  0.5430  0.2227 -0.1431
   67SAPC   O12 5567   2.847   4.008   6.151  0.0288 -0.3926 -0.5662
   67SAPC   O11 5568   2.795   3.957   6.389 -0.4425  0.0046 -0.1488
   67SAPC    C1 5569   2.722   3.847   6.441  0.6612 -0.7429  0.4026
   67SAPC    HA 5570   2.615   3.874   6.453  0.7212  0.6436 -1.6216
   67SAPC    HB 5571   2.712   3.757   6.376  0.3639  0.5118 -1.3803
   67SAPC    C2 5572   2.756   3.809   6.586 -0.3269  0.4686  0.1422
   67SAPC    HS 5573   2.663   3.770   6.631 -0.7613 -0.0879 -1.1748
   67SAPC   O21 5574   2.798   3.917   6.670  0.0793  0.4798 -0.2941
   67SAPC   C21 5575   2.725   4.023   6.689  0.3974  0.0935 -1.0283
   67SAPC   O22 5576   2.615   4.039   6.648  0.4194 -0.4058  0.5718
   67SAPC   C22 5577   2.804   4.126   6.770  0.4176  0.1134 -0.3660
   67SAPC   H2R 5578   2.884   4.065   6.816 -0.9178 -2.9577 -1.8327
   67SAPC   H2S 5579   2.849   4.204   6.704  3.5414 -1.7096 -0.5407
   67SAPC    C3 5580   2.866   3.701   6.606 -0.4601  0.1190  0.0988
   67SAPC    HX 5581   2.966   3.746   6.589  0.1609 -1.1309  0.2885
   67SAPC    HY 5582   2.843   3.623   6.530  1.3480 -0.2991 -0.0487
   67SAPC   O31 5583   2.857   3.636   6.732  0.7984  0.3037 -0.3456
   67SAPC   C31 5584   2.941   3.680   6.825 -0.1303 -0.1956 -0.2789
   67SAPC   O32 5585   2.998   3.790   6.820 -0.7764  0.4325 -0.2833
   67SAPC   C32 5586   2.943   3.586   6.951  0.4008  0.2666  0.4297
   67SAPC   H2X 5587   3.047   3.548   6.949 -0.0158 -1.1100 -3.4711
   67SAPC   H2Y 5588   2.877   3.499   6.928 -1.3003  1.1057  1.8659
   67SAPC   C23 5589   2.722   4.193   6.890  0.1666  0.2463 -0.4478
   67SAPC   H3R 5590   2.645   4.264   6.853 -0.0534  2.1692  3.3043
   67SAPC   H3S 5591   2.800   4.249   6.944  2.4447 -2.3566 -0.7890
   67SAPC   C24 5592   2.658   4.081   6.978  0.7235 -0.1350 -1.0674
   67SAPC   H4R 5593   2.738   4.004   6.983  1.0989  0.3333  1.0452
   67SAPC   H4S 5594   2.580   4.022   6.926 -0.7065 -1.2702  2.1060
   67SAPC   C25 5595   2.607   4.125   7.112  0.5402  0.6988  0.2178
   67SAPC   H5R 5596   2.514   4.184   7.099 -1.4486 -2.5127 -1.3748
   67SAPC   C26 5597   2.666   4.104   7.228  0.1278  0.4863 -0.5996
   67SAPC   H6R 5598   2.612   4.140   7.317  0.6846  2.1053 -0.8819
   67SAPC   C27 5599   2.787   4.015   7.256  0.6998 -0.3759 -0.1355
   67SAPC   H7R 5600   2.859   4.015   7.172  1.8088 -0.7336  0.7961
   67SAPC   H7S 5601   2.765   3.906   7.245  1.6575 -0.4855 -1.0894
   67SAPC   C28 5602   2.851   4.048   7.387 -0.0913 -0.3355 -1.0247
   67SAPC   H8R 5603   2.922   4.132   7.385  1.1370 -1.3367 -0.6457
   67SAPC   C29 5604   2.831   3.977   7.500 -0.2171 -0.3284 -0.2510
   67SAPC   H9R 5605   2.893   4.003   7.586 -0.8302 -0.4534  0.2378
   67SAPC  C210 5606   2.755   3.846   7.513 -0.2621 -0.5352  0.1991
   67SAPC  H10R 5607   2.807   3.759   7.467  0.0328  0.1581 -0.8049
   67SAPC  H10S 5608   2.660   3.847   7.456 -0.2918  0.7548  0.2546
   67SAPC  C211 5609   2.725   3.808   7.658  0.4742  0.2942 -0.5128
   67SAPC  H11R 5610   2.803   3.746   7.705  0.3011  0.4174 -0.0507
   67SAPC  C212 5611   2.624   3.862   7.740  0.3673 -0.6034  0.2030
   67SAPC  H12R 5612   2.616   3.830   7.845  1.1586 -1.5740 -0.0125
   67SAPC  C213 5613   2.521   3.970   7.705 -0.1228  0.6589 -0.6379
   67SAPC  H13R 5614   2.421   3.921   7.710  0.9950 -1.9097 -1.7189
   67SAPC  H13S 5615   2.518   4.004   7.599 -1.3854  1.4481 -0.3699
   67SAPC  C214 5616   2.541   4.095   7.791  0.1532  0.3643 -0.3672
   67SAPC  H14R 5617   2.574   4.182   7.732 -1.8571  1.6752  0.2989
   67SAPC  C215 5618   2.512   4.118   7.923  0.6531 -0.5185  0.3854
   67SAPC  H15R 5619   2.521   4.221   7.961  0.4753  0.5075 -2.1411
   67SAPC  C216 5620   2.437   4.021   8.014 -0.1693 -0.1991  0.0886
   67SAPC  H16R 5621   2.482   3.921   7.997 -0.5394 -0.0031 -2.3229
   67SAPC  H16S 5622   2.332   4.006   7.983 -0.0862 -1.2530  0.2789
   67SAPC  C217 5623   2.452   4.054   8.160  0.0374 -0.3265 -0.0004
   67SAPC  H17R 5624   2.359   4.025   8.214  0.6506  0.6666  1.6649
   67SAPC  H17S 5625   2.454   4.164   8.172 -0.5635 -0.2283 -0.7220
   67SAPC  C218 5626   2.587   4.013   8.212  0.2584  0.8061 -0.7108
   67SAPC  H18R 5627   2.659   4.090   8.175  1.4637  0.6713  1.2321
   67SAPC  H18S 5628   2.625   3.912   8.186  1.8548  1.0545  0.5656
   67SAPC  C219 5629   2.587   4.006   8.372  0.1165 -0.2958  0.5938
   67SAPC  H19R 5630   2.585   4.106   8.421  0.5584  0.1079 -0.1933
   67SAPC  H19S 5631   2.678   3.956   8.409  0.8244  0.6083  0.1134
   67SAPC  C220 5632   2.470   3.932   8.434 -0.1971  0.0792 -0.6299
   67SAPC  H20R 5633   2.471   3.838   8.375  2.8950 -0.0942 -0.4795
   67SAPC  H20S 5634   2.375   3.989   8.442 -0.0750  0.2211 -0.1700
   67SAPC  H20T 5635   2.497   3.903   8.538  0.0690  1.3517 -0.3325
   67SAPC   C33 5636   2.915   3.651   7.083  0.1546  0.8175  0.0325
   67SAPC   H3X 5637   2.921   3.762   7.071 -1.1131  1.0155  0.9890
   67SAPC   H3Y 5638   2.991   3.624   7.159 -2.1237 -0.6876  1.9374
   67SAPC   C34 5639   2.772   3.638   7.139 -0.0523 -0.0221  0.5141
   67SAPC   H4X 5640   2.754   3.687   7.237 -1.2848  2.2476 -0.7372
   67SAPC   H4Y 5641   2.750   3.530   7.153 -2.5660  0.5054  1.0789
   67SAPC   C35 5642   2.667   3.690   7.032 -0.2828 -0.2059  0.2850
   67SAPC   H5X 5643   2.645   3.612   6.957 -2.5874  0.7233 -0.0842
   67SAPC   H5Y 5644   2.716   3.773   6.977 -0.8423 -0.2357 -0.2658
   67SAPC   C36 5645   2.537   3.755   7.087  0.0108 -0.4150 -0.1836
   67SAPC   H6X 5646   2.480   3.799   7.002 -0.2050  0.7458  0.5293
   67SAPC   H6Y 5647   2.569   3.847   7.140 -0.1733 -1.1978  1.3490
   67SAPC   C37 5648   2.448   3.672   7.176 -0.5483  0.0002  0.1942
   67SAPC   H7X 5649   2.488   3.685   7.279 -0.8928 -0.4620  0.3894
   67SAPC   H7Y 5650   2.454   3.568   7.139  0.9452 -0.0123  0.3889
   67SAPC   C38 5651   2.299   3.713   7.177  0.7621  0.1314  0.1695
   67SAPC   H8X 5652   2.263   3.714   7.072  0.0520  0.5059  0.4126
   67SAPC   H8Y 5653   2.283   3.817   7.211 -0.3647  0.8967 -2.4436
   67SAPC   C39 5654   2.204   3.623   7.260 -0.0179 -0.6776 -0.0289
   67SAPC   H9X 5655   2.214   3.516   7.232  1.6746 -0.6553  0.3806
   67SAPC   H9Y 5656   2.100   3.661   7.247  0.6845  2.0516  1.4837
   67SAPC  C310 5657   2.233   3.640   7.412 -0.4773 -0.6016  0.5871
   67SAPC  H10X 5658   2.224   3.748   7.436  0.0377 -0.7289  1.3691
   67SAPC  H10Y 5659   2.340   3.620   7.436  0.0743  1.1607 -0.2498
   67SAPC  C311 5660   2.164   3.547   7.509  1.0392 -0.3214 -0.5634
   67SAPC  H11X 5661   2.156   3.448   7.459 -0.3284 -0.0636 -0.9071
   67SAPC  H11Y 5662   2.065   3.589   7.538  2.8083  2.4593  1.9639
   67SAPC  C312 5663   2.235   3.546   7.650  0.2200 -0.0651 -0.1056
   67SAPC  H12X 5664   2.337   3.502   7.638  0.8073  1.4222 -0.9191
   67SAPC  H12Y 5665   2.177   3.477   7.714 -1.1627 -0.9374 -2.1822
   67SAPC  C313 5666   2.248   3.677   7.727  0.1000  0.6874  0.8796
   67SAPC  H13X 5667   2.149   3.727   7.726  0.5606  1.6101  0.2340
   67SAPC  H13Y 5668   2.321   3.744   7.677 -1.1077 -0.3596 -2.5230
   67SAPC  C314 5669   2.288   3.657   7.876  0.0643  0.1570  0.3136
   67SAPC  H14X 5670   2.391   3.691   7.898  0.1536  0.6500 -0.8037
   67SAPC  H14Y 5671   2.269   3.550   7.902 -0.6977  0.5918  1.6019
   67SAPC  C315 5672   2.192   3.728   7.966 -0.3240  0.0930  0.3082
   67SAPC  H15X 5673   2.089   3.686   7.960 -1.2905  2.3462  0.0119
   67SAPC  H15Y 5674   2.173   3.835   7.944 -0.4163 -0.0372 -0.2585
   67SAPC  C316 5675   2.230   3.709   8.109  0.2618 -0.3702 -0.3784
   67SAPC  H16X 5676   2.331   3.752   8.125  0.6237 -0.7048 -1.6058
   67SAPC  H16Y 5677   2.238   3.602   8.139  2.0860 -0.4902 -1.1759
   67SAPC  C317 5678   2.124   3.768   8.205 -0.0227 -0.2803  1.3173
   67SAPC  H17X 5679   2.023   3.730   8.181  0.3332  0.2167 -1.3649
   67SAPC  H17Y 5680   2.122   3.879   8.201 -2.3380 -0.2566  2.1072
   67SAPC  C318 5681   2.148   3.724   8.351  0.5325 -0.1305  0.2115
   67SAPC  H18X 5682   2.253   3.758   8.368  0.8223  0.3241 -2.1735
   67SAPC  H18Y 5683   2.133   3.614   8.363 -2.8792  0.2445  0.1864
   67SAPC  H18Z 5684   2.060   3.763   8.406  1.4463  2.5512 -0.1108
   68SAPC     N 5685   1.000   2.067   5.708  0.3640  0.9972 -0.0204
   68SAPC   C12 5686   1.100   2.175   5.704 -0.6683 -0.2763  0.5118
   68SAPC  H12A 5687   1.061   2.254   5.766 -0.0162  0.3435  0.1555
   68SAPC  H12B 5688   1.107   2.218   5.605 -3.1468  1.8988  1.1725
   68SAPC   C13 5689   1.041   1.952   5.615  0.0397 -0.2898 -0.0842
   68SAPC  H13A 5690   1.049   1.997   5.518 -1.4685 -0.2409 -0.2082
   68SAPC  H13B 5691   1.127   1.901   5.656 -0.4042  0.8209  2.5022
   68SAPC  H13C 5692   0.957   1.885   5.608 -0.2901 -0.0646  1.3196
   68SAPC   C14 5693   0.990   2.004   5.846  0.1702 -0.1786  0.2167
   68SAPC  H14A 5694   1.089   1.985   5.885  0.1162  0.4475  0.6809
   68SAPC  H14B 5695   0.946   2.073   5.917  0.4936 -0.0933  0.3380
   68SAPC  H14C 5696   0.927   1.916   5.840  0.3530 -0.2890 -0.1150
   68SAPC   C15 5697   0.867   2.127   5.667 -0.1651  0.3845 -0.2914
   68SAPC  H15A 5698   0.824   2.196   5.738 -2.5085 -0.5807 -0.6957
   68SAPC  H15B 5699   0.882   2.173   5.570 -0.0050  1.9613  0.4445
   68SAPC  H15C 5700   0.802   2.041   5.667  0.8435 -0.3915  0.0921
   68SAPC   C11 5701   1.250   2.141   5.747 -0.6519 -0.4847 -0.2728
   68SAPC  H11A 5702   1.305   2.237   5.755  0.0753 -0.5328 -3.2811
   68SAPC  H11B 5703   1.298   2.092   5.660  0.1737  2.4253 -1.5818
   68SAPC     P 5704   1.395   2.072   5.954 -0.5022  0.5127  0.1928
   68SAPC   O13 5705   1.389   1.955   6.043 -0.8299  0.1221 -0.0082
   68SAPC   O14 5706   1.514   2.081   5.867 -0.0668  0.2909  0.0052
   68SAPC   O12 5707   1.256   2.074   5.878  0.4613 -0.5453 -0.0159
   68SAPC   O11 5708   1.398   2.209   6.034 -0.4285 -0.3655 -0.2688
   68SAPC    C1 5709   1.279   2.284   6.049  0.3222 -0.3034 -0.0162
   68SAPC    HA 5710   1.250   2.319   5.948 -1.7322 -2.1882 -0.1449
   68SAPC    HB 5711   1.200   2.218   6.092 -0.2285  1.4422  1.8252
   68SAPC    C2 5712   1.309   2.405   6.146  0.4469 -0.6710  0.7711
   68SAPC    HS 5713   1.373   2.476   6.090 -0.8436  0.2083  0.3635
   68SAPC   O21 5714   1.363   2.361   6.273  0.5881 -0.5718  0.1259
   68SAPC   C21 5715   1.442   2.438   6.336  0.0594 -0.1122  0.4301
   68SAPC   O22 5716   1.483   2.550   6.298 -0.0888  0.2439  0.1317
   68SAPC   C22 5717   1.467   2.382   6.477 -0.3500 -0.4480  0.1405
   68SAPC   H2R 5718   1.507   2.279   6.462  0.3276 -0.3268  1.0174
   68SAPC   H2S 5719   1.534   2.451   6.533 -0.2146  0.0034 -0.5543
   68SAPC    C3 5720   1.180   2.483   6.174  0.5983  0.6802 -0.5197
   68SAPC    HX 5721   1.140   2.519   6.077 -2.2961  2.4714  1.1976
   68SAPC    HY 5722   1.205   2.578   6.227 -1.9778  1.1863 -0.0813
   68SAPC   O31 5723   1.081   2.398   6.247 -0.1818  0.2125  0.6329
   68SAPC   C31 5724   1.031   2.445   6.358  0.3941 -0.3676 -0.3295
   68SAPC   O32 5725   1.055   2.551   6.412 -0.0436  0.7883  0.4795
   68SAPC   C32 5726   0.953   2.328   6.420 -0.0373  0.2226 -0.2322
   68SAPC   H2X 5727   1.011   2.233   6.426 -0.4649  0.0340  1.7262
   68SAPC   H2Y 5728   0.870   2.306   6.351 -0.8852  0.6771  0.6169
   68SAPC   C23 5729   1.346   2.383   6.563  0.4399 -0.4350  0.0903
   68SAPC   H3R 5730   1.265   2.333   6.506 -0.4457  0.7893  0.2291
   68SAPC   H3S 5731   1.310   2.487   6.577 -0.5208 -0.7765  0.2050
   68SAPC   C24 5732   1.361   2.318   6.701 -0.7843  0.1975 -0.2705
   68SAPC   H4R 5733   1.262   2.320   6.752 -0.2138  2.0484  0.8651
   68SAPC   H4S 5734   1.429   2.370   6.771 -1.6050 -1.2083  1.6752
   68SAPC   C25 5735   1.390   2.172   6.690 -0.0577 -0.3586  0.2040
   68SAPC   H5R 5736   1.355   2.128   6.596 -0.1229  1.2111 -0.5481
   68SAPC   C26 5737   1.463   2.099   6.775 -0.6254 -0.1043 -0.4998
   68SAPC   H6R 5738   1.467   1.992   6.750 -1.6298 -0.1622 -0.4667
   68SAPC   C27 5739   1.526   2.141   6.908 -0.3779  0.2875  0.2596
   68SAPC   H7R 5740   1.466   2.220   6.959  0.4406  1.0947  0.0116
   68SAPC   H7S 5741   1.623   2.190   6.883 -0.6987  1.7144  1.6118
   68SAPC   C28 5742   1.556   2.016   6.991 -0.0307  0.4232 -0.2320
   68SAPC   H8R 5743   1.553   1.926   6.928 -1.0188  1.6099 -1.9572
   68SAPC   C29 5744   1.575   2.006   7.123  0.0089 -0.3559 -0.2275
   68SAPC   H9R 5745   1.575   1.904   7.163 -1.1571 -0.3756 -0.2421
   68SAPC  C210 5746   1.589   2.120   7.224 -0.4614  0.6609 -0.4363
   68SAPC  H10R 5747   1.638   2.205   7.173  1.5485  0.5043  1.1217
   68SAPC  H10S 5748   1.652   2.091   7.311  0.6004  1.8812 -0.7637
   68SAPC  C211 5749   1.451   2.163   7.262 -0.5545  0.1521  0.1379
   68SAPC  H11R 5750   1.389   2.192   7.176  0.3460  1.3864 -0.1234
   68SAPC  C212 5751   1.403   2.182   7.388 -0.4290 -0.4865  0.5947
   68SAPC  H12R 5752   1.295   2.203   7.393 -0.4256 -0.1542 -0.5391
   68SAPC  C213 5753   1.459   2.144   7.520 -0.8574 -0.0961  0.2470
   68SAPC  H13R 5754   1.386   2.196   7.586 -0.7220 -1.1911  1.2947
   68SAPC  H13S 5755   1.558   2.194   7.525  0.8104 -3.0828 -0.7787
   68SAPC  C214 5756   1.478   2.000   7.556 -0.1395  0.0983  0.2427
   68SAPC  H14R 5757   1.473   1.935   7.467  3.5082  2.2618 -1.8065
   68SAPC  C215 5758   1.473   1.948   7.681 -0.2947 -0.3125 -0.5640
   68SAPC  H15R 5759   1.475   1.838   7.694  1.3571 -0.1043  1.4535
   68SAPC  C216 5760   1.452   2.035   7.806  0.2472  0.0796 -0.0974
   68SAPC  H16R 5761   1.343   2.049   7.825  0.4689 -0.0387  1.4176
   68SAPC  H16S 5762   1.492   2.138   7.791 -1.9042  0.8799 -0.7747
   68SAPC  C217 5763   1.505   1.965   7.937  0.1640 -0.2772 -0.0318
   68SAPC  H17R 5764   1.503   2.036   8.022  1.8463 -1.1263  0.7605
   68SAPC  H17S 5765   1.608   1.930   7.913 -0.6690 -2.4449 -0.7459
   68SAPC  C218 5766   1.413   1.860   8.000 -0.0465  0.1869  0.4177
   68SAPC  H18R 5767   1.374   1.790   7.923  0.3245  1.0994 -0.6174
   68SAPC  H18S 5768   1.329   1.912   8.051 -1.4613  0.4511 -2.0756
   68SAPC  C219 5769   1.488   1.771   8.102 -0.2368 -0.2957 -0.1917
   68SAPC  H19R 5770   1.568   1.721   8.044 -0.7827 -2.6970  1.0221
   68SAPC  H19S 5771   1.418   1.688   8.127 -1.3441  0.7754  0.3985
   68SAPC  C220 5772   1.537   1.847   8.224 -0.4597  0.9724  0.6522
   68SAPC  H20R 5773   1.563   1.772   8.302  1.4958  0.7025 -0.1953
   68SAPC  H20S 5774   1.450   1.904   8.264 -2.0628 -0.6521 -0.3921
   68SAPC  H20T 5775   1.620   1.917   8.202 -0.3759  1.0232  1.1191
   68SAPC   C33 5776   0.884   2.352   6.558  1.1565 -0.0557  0.3458
   68SAPC   H3X 5777   0.818   2.265   6.580  2.0247 -1.2052 -1.3539
   68SAPC   H3Y 5778   0.827   2.447   6.556  2.6385  0.9392  2.1568
   68SAPC   C34 5779   0.981   2.353   6.669  0.3288 -0.3253  0.5367
   68SAPC   H4X 5780   1.047   2.442   6.654  2.8607 -2.1622  0.0302
   68SAPC   H4Y 5781   1.034   2.256   6.661 -0.7137 -0.8383 -0.2189
   68SAPC   C35 5782   0.901   2.370   6.804  0.1963  0.7236  0.4625
   68SAPC   H5X 5783   0.854   2.273   6.827  1.2732 -0.2852 -1.3696
   68SAPC   H5Y 5784   0.816   2.439   6.786 -0.7274 -0.3211  0.7511
   68SAPC   C36 5785   0.985   2.408   6.920 -0.7296  0.5293 -0.0392
   68SAPC   H6X 5786   1.039   2.501   6.891 -1.2234  0.2472 -2.0206
   68SAPC   H6Y 5787   1.073   2.341   6.931 -0.7183  0.3732 -1.0139
   68SAPC   C37 5788   0.897   2.419   7.042  0.2157  0.1870 -0.0848
   68SAPC   H7X 5789   0.848   2.327   7.081 -0.6787  0.2030 -1.0973
   68SAPC   H7Y 5790   0.807   2.480   7.017  1.1510  1.4758 -0.4344
   68SAPC   C38 5791   0.957   2.493   7.166 -0.6519  0.7289  0.0695
   68SAPC   H8X 5792   0.989   2.596   7.136 -1.2166  0.9272  0.1371
   68SAPC   H8Y 5793   1.038   2.424   7.197 -0.3523  1.4057  0.8376
   68SAPC   C39 5794   0.864   2.500   7.284  0.7016  0.3364 -0.1154
   68SAPC   H9X 5795   0.803   2.408   7.297 -1.0571  1.1106 -2.2511
   68SAPC   H9Y 5796   0.783   2.569   7.251 -0.2767 -0.9660 -0.5372
   68SAPC  C310 5797   0.940   2.527   7.412  0.3034  0.5610  0.1061
   68SAPC  H10X 5798   0.984   2.628   7.398  1.0666  0.3424  0.8044
   68SAPC  H10Y 5799   1.017   2.450   7.438 -0.3862 -0.2398 -0.1912
   68SAPC  C311 5800   0.850   2.526   7.533  0.3063 -0.0667 -0.2073
   68SAPC  H11X 5801   0.752   2.476   7.516  0.5037 -0.7472  0.6099
   68SAPC  H11Y 5802   0.811   2.628   7.552 -0.3492 -0.5618  1.3402
   68SAPC  C312 5803   0.920   2.467   7.650  0.5627 -0.3542 -0.8445
   68SAPC  H12X 5804   1.015   2.523   7.664 -0.4242  1.0255  0.7142
   68SAPC  H12Y 5805   0.936   2.357   7.651  2.2922 -0.2694  3.9882
   68SAPC  C313 5806   0.832   2.486   7.784 -0.1037 -0.1384  0.2851
   68SAPC  H13X 5807   0.730   2.444   7.771  0.7392 -2.5615  0.8394
   68SAPC  H13Y 5808   0.832   2.591   7.819  0.9811 -0.4457  1.2564
   68SAPC  C314 5809   0.879   2.414   7.913 -0.4471  0.2188  0.5773
   68SAPC  H14X 5810   0.990   2.411   7.917 -0.3014  1.1759 -1.3009
   68SAPC  H14Y 5811   0.861   2.306   7.898  1.5959 -0.0172 -0.5444
   68SAPC  C315 5812   0.827   2.462   8.037  0.6907  0.3030  0.1578
   68SAPC  H15X 5813   0.820   2.389   8.120 -0.4131 -1.0251 -1.0425
   68SAPC  H15Y 5814   0.722   2.494   8.023  0.6003  0.5624  1.4028
   68SAPC  C316 5815   0.896   2.586   8.091  0.5752  0.2777  0.2731
   68SAPC  H16X 5816   0.941   2.653   8.015 -1.9041  1.3117 -0.3877
   68SAPC  H16Y 5817   0.972   2.559   8.168  0.9780 -3.2122 -1.1705
   68SAPC  C317 5818   0.798   2.681   8.161 -0.1890 -0.5801  0.3839
   68SAPC  H17X 5819   0.713   2.707   8.094  2.5246  1.6638 -2.5201
   68SAPC  H17Y 5820   0.856   2.775   8.167  0.3190 -0.8749  0.2374
   68SAPC  C318 5821   0.760   2.649   8.301  0.5584 -0.1532 -0.8429
   68SAPC  H18X 5822   0.852   2.629   8.359  0.5920  2.5804  0.2043
   68SAPC  H18Y 5823   0.685   2.568   8.314  1.7076 -1.0477  0.5598
   68SAPC  H18Z 5824   0.718   2.742   8.344  2.3466  0.6088 -0.6728
   69SLPC     N 5825   0.568   0.135  10.788  0.2933  0.6688 -0.0387
   69SLPC   C13 5826   0.567  -0.011  10.793  0.4598 -0.0056  0.2272
   69SLPC  H13A 5827   0.506  -0.064  10.722 -0.8702 -0.2840  1.5285
   69SLPC  H13B 5828   0.671  -0.040  10.784  0.5479  0.1726  0.6623
   69SLPC  H13C 5829   0.526  -0.048  10.886  1.1043 -0.0764  0.4890
   69SLPC   C14 5830   0.634   0.177  10.663  0.1115 -0.8419 -0.6318
   69SLPC  H14A 5831   0.731   0.130  10.658 -0.0453 -1.5190  1.5489
   69SLPC  H14B 5832   0.576   0.152  10.575  1.8265 -0.0065 -2.0487
   69SLPC  H14C 5833   0.661   0.281  10.656  1.4501 -1.2571 -2.3338
   69SLPC   C15 5834   0.637   0.192  10.915 -0.6799 -0.1380  0.4067
   69SLPC  H15A 5835   0.601   0.147  11.006  0.8767  0.5509  1.4149
   69SLPC  H15B 5836   0.743   0.170  10.911 -0.2849  1.7173 -2.2362
   69SLPC  H15C 5837   0.613   0.297  10.918 -1.2419 -0.2667  0.3968
   69SLPC   C12 5838   0.424   0.192  10.785  0.2122  0.4305 -0.4266
   69SLPC  H12A 5839   0.378   0.182  10.882  1.7630  0.2749  0.3106
   69SLPC  H12B 5840   0.356   0.133  10.725  1.1400 -0.5949 -0.5013
   69SLPC   C11 5841   0.413   0.347  10.735  0.4721  0.2964  0.6332
   69SLPC  H11A 5842   0.506   0.392  10.775  0.5102  0.8134 -0.0206
   69SLPC  H11B 5843   0.323   0.402  10.771 -1.2595 -2.0037  0.0734
   69SLPC     P 5844   0.313   0.321  10.494 -0.1869 -0.0967 -0.3951
   69SLPC   O13 5845   0.288   0.177  10.489  0.5432  0.2223  0.3846
   69SLPC   O14 5846   0.199   0.406  10.527 -0.4756 -0.4082  0.5861
   69SLPC   O12 5847   0.429   0.363  10.590  1.0848  0.3650  0.2383
   69SLPC   O11 5848   0.376   0.363  10.358 -0.3904  0.1042 -0.3249
   69SLPC    C1 5849   0.498   0.305  10.302  0.1609 -0.4951 -0.4378
   69SLPC    HA 5850   0.559   0.248  10.376 -0.0552 -1.8982 -1.3024
   69SLPC    HB 5851   0.482   0.226  10.225  0.2804 -1.8550  0.8731
   69SLPC    C2 5852   0.583   0.416  10.222  0.4400 -0.3620  0.2749
   69SLPC    HS 5853   0.602   0.491  10.302 -2.3732  1.4850 -0.6628
   69SLPC   O21 5854   0.511   0.483  10.116  0.6969 -0.4237 -0.5620
   69SLPC   C21 5855   0.565   0.598  10.070  0.2949  0.7990  0.2745
   69SLPC   O22 5856   0.659   0.653  10.125  0.2331 -0.0130  0.1059
   69SLPC   C22 5857   0.502   0.636   9.941 -0.3448 -0.4102 -0.4575
   69SLPC   H2R 5858   0.562   0.585   9.864  0.9131  0.8325 -0.3397
   69SLPC   H2S 5859   0.400   0.592   9.934 -1.0208  1.2559 -2.1389
   69SLPC    C3 5860   0.726   0.359  10.183  0.4699 -0.0172 -0.2106
   69SLPC    HX 5861   0.767   0.311  10.275  0.2372  1.5292  0.7455
   69SLPC    HY 5862   0.796   0.442  10.161  0.9435 -0.9165 -2.3075
   69SLPC   O31 5863   0.720   0.265  10.068  0.4452  0.0003 -0.4214
   69SLPC   C31 5864   0.754   0.303   9.950 -0.1335 -0.3713  0.5256
   69SLPC   O32 5865   0.809   0.406   9.921 -0.3063  0.0746 -0.5694
   69SLPC   C32 5866   0.704   0.192   9.850  0.3562  0.0473  0.8340
   69SLPC   H2X 5867   0.593   0.185   9.859  0.2311 -1.2010 -1.0832
   69SLPC   H2Y 5868   0.748   0.096   9.885  3.3361  1.1935  0.4866
   69SLPC   C23 5869   0.506   0.786   9.908  0.2610  0.1481 -0.5439
   69SLPC   H3R 5870   0.497   0.850   9.998  1.3312  1.1469 -1.1214
   69SLPC   H3S 5871   0.426   0.801   9.833  0.5399  0.0689 -0.8615
   69SLPC   C24 5872   0.636   0.819   9.829 -0.2530  0.0806 -0.3950
   69SLPC   H4R 5873   0.641   0.765   9.732  2.2481  0.2636 -0.4345
   69SLPC   H4S 5874   0.714   0.768   9.890 -2.0370 -1.4496  0.6911
   69SLPC   C25 5875   0.667   0.968   9.816 -0.1632 -0.0793  0.0021
   69SLPC   H5R 5876   0.652   1.021   9.913  2.5596 -0.0255  0.4571
   69SLPC   H5S 5877   0.604   1.007   9.733  1.5870 -0.0060 -1.3427
   69SLPC   C26 5878   0.811   1.002   9.771  0.6372  0.9899 -0.5684
   69SLPC   H6R 5879   0.838   0.952   9.676  2.9229  1.9783 -0.4998
   69SLPC   H6S 5880   0.877   0.957   9.848  0.1252  0.0184 -0.6853
   69SLPC   C27 5881   0.835   1.152   9.741 -0.1635  0.2070 -0.1491
   69SLPC   H7R 5882   0.812   1.196   9.840 -0.0476 -1.9389  0.8893
   69SLPC   H7S 5883   0.753   1.179   9.671 -1.6758 -3.1273  0.1858
   69SLPC   C28 5884   0.973   1.198   9.683 -0.7637 -0.2409 -0.5796
   69SLPC   H8R 5885   1.047   1.177   9.764  0.6088 -2.2215 -2.2567
   69SLPC   H8S 5886   0.979   1.307   9.664  0.2452 -0.2812 -0.5426
   69SLPC   C29 5887   1.012   1.130   9.553  0.3784 -0.0982 -0.5952
   69SLPC   H9R 5888   1.089   1.053   9.568  1.5506  0.9559 -1.1437
   69SLPC  C210 5889   0.952   1.138   9.431 -0.8838 -0.7423  0.0726
   69SLPC  H10R 5890   1.007   1.082   9.354 -0.6332 -0.4352  0.0266
   69SLPC  C211 5891   0.823   1.213   9.396 -0.4271 -0.4408 -0.0068
   69SLPC  H11R 5892   0.838   1.317   9.432 -0.9053 -1.3123  3.0113
   69SLPC  H11S 5893   0.736   1.175   9.454  0.1600 -2.0733 -0.1187
   69SLPC  C212 5894   0.799   1.199   9.248  0.9541 -0.5033 -0.1926
   69SLPC  H12R 5895   0.882   1.244   9.193  2.2915 -0.3111  1.8862
   69SLPC  C213 5896   0.718   1.109   9.200  0.9030  0.3808 -0.5620
   69SLPC  H13R 5897   0.701   1.095   9.092 -0.8536  0.9171 -0.3965
   69SLPC  C214 5898   0.619   1.021   9.280 -0.3941 -0.6181  0.4444
   69SLPC  H14R 5899   0.524   1.014   9.221 -1.9342 -0.5846  2.7984
   69SLPC  H14S 5900   0.590   1.058   9.380  0.5191 -2.9625  1.6391
   69SLPC  C215 5901   0.667   0.879   9.317 -0.0421 -0.3028  0.1906
   69SLPC  H15R 5902   0.750   0.886   9.391  1.8006 -1.2315 -1.6720
   69SLPC  H15S 5903   0.718   0.827   9.233 -0.1563  1.9669 -1.3834
   69SLPC  C216 5904   0.557   0.794   9.380 -0.5811 -0.4079 -0.3466
   69SLPC  H16R 5905   0.457   0.818   9.339 -1.7050 -1.2474  1.7701
   69SLPC  H16S 5906   0.541   0.811   9.488 -1.0917 -1.2780 -0.2780
   69SLPC  C217 5907   0.592   0.644   9.366 -0.0486 -0.9563  0.0017
   69SLPC  H17R 5908   0.678   0.651   9.435  0.1902  1.2413 -0.4638
   69SLPC  H17S 5909   0.632   0.610   9.268  0.4571 -1.7440  0.4722
   69SLPC  C218 5910   0.488   0.551   9.421 -0.1743 -0.0122  0.0788
   69SLPC  H18R 5911   0.395   0.568   9.362  0.3866 -0.4113 -0.9406
   69SLPC  H18S 5912   0.463   0.564   9.528 -0.2848 -0.8105  0.1512
   69SLPC  H18T 5913   0.528   0.448   9.407  0.9314  0.3989  0.0956
   69SLPC   C33 5914   0.727   0.211   9.702  0.5553  0.3459  0.4761
   69SLPC   H3X 5915   0.837   0.221   9.691  0.5996 -0.3565  0.1952
   69SLPC   H3Y 5916   0.673   0.296   9.655 -0.9329 -1.4799 -1.2884
   69SLPC   C34 5917   0.686   0.087   9.616 -0.3197  0.7860 -0.3981
   69SLPC   H4X 5918   0.590   0.052   9.661  0.5932 -0.2790  0.7919
   69SLPC   H4Y 5919   0.758   0.011   9.653  0.3410  1.5964  0.0001
   69SLPC   C35 5920   0.685   0.126   9.466  0.3055  0.1435 -1.2331
   69SLPC   H5X 5921   0.777   0.183   9.441  1.5865 -1.4917 -0.4554
   69SLPC   H5Y 5922   0.590   0.184   9.458  1.9795  3.6999  1.7318
   69SLPC   C36 5923   0.674  -0.007   9.381 -0.0985 -1.1589 -0.4021
   69SLPC   H6X 5924   0.574  -0.056   9.378 -1.0357  0.6602  0.0044
   69SLPC   H6Y 5925   0.751  -0.073   9.428 -0.2280 -0.2394  1.1625
   69SLPC   C37 5926   0.710   0.019   9.236 -0.4906  0.8203  0.6167
   69SLPC   H7X 5927   0.675  -0.065   9.173 -0.6660  1.0628  0.3873
   69SLPC   H7Y 5928   0.821   0.023   9.225 -0.4039 -0.7124  0.6543
   69SLPC   C38 5929   0.643   0.148   9.175 -0.3768 -0.6971 -1.1960
   69SLPC   H8X 5930   0.679   0.238   9.229 -1.8104 -1.0775  0.4826
   69SLPC   H8Y 5931   0.538   0.132   9.207  0.0325 -0.4934  0.3172
   69SLPC   C39 5932   0.652   0.171   9.034  0.6863  0.2613  0.1636
   69SLPC   H9X 5933   0.574   0.237   8.989  1.2477  2.0633  1.6973
   69SLPC   H9Y 5934   0.633   0.073   8.985 -0.1691  0.5933 -0.1996
   69SLPC  C310 5935   0.789   0.238   9.006 -0.6647 -0.6167 -0.2042
   69SLPC  H10X 5936   0.870   0.163   9.016 -1.2957 -1.7682 -2.8251
   69SLPC  H10Y 5937   0.804   0.325   9.073 -1.9664 -1.4161  1.1942
   69SLPC  C311 5938   0.814   0.298   8.861  0.2290  0.0194  0.5729
   69SLPC  H11X 5939   0.730   0.368   8.842 -0.6164 -1.2177 -0.4754
   69SLPC  H11Y 5940   0.806   0.215   8.788  1.0451  0.4141  0.0278
   69SLPC  C312 5941   0.959   0.363   8.848  0.0957  0.2956 -0.2678
   69SLPC  H12X 5942   1.024   0.277   8.874  0.3403  0.1102 -1.4111
   69SLPC  H12Y 5943   0.970   0.446   8.920  0.8905  1.4009 -1.6141
   69SLPC  C313 5944   0.975   0.410   8.707  0.3217  0.0244  0.7417
   69SLPC  H13X 5945   0.899   0.491   8.704 -0.0806 -0.3667 -0.3148
   69SLPC  H13Y 5946   0.934   0.330   8.642  0.0385 -0.2036  1.1978
   69SLPC  C314 5947   1.119   0.453   8.676 -0.2680  0.6873  0.5145
   69SLPC  H14X 5948   1.182   0.364   8.697  1.2772  1.6718  0.2422
   69SLPC  H14Y 5949   1.151   0.530   8.749 -0.9662  1.3532  0.1321
   69SLPC  C315 5950   1.140   0.500   8.535 -0.0275 -0.1155  0.5440
   69SLPC  H15X 5951   1.070   0.581   8.506 -1.0279 -1.1259  0.0522
   69SLPC  H15Y 5952   1.127   0.423   8.455  0.6082  1.8465 -1.5608
   69SLPC  C316 5953   1.292   0.541   8.517 -1.2272  0.5537  0.3347
   69SLPC  H16X 5954   1.359   0.453   8.526  0.2804  1.6233  0.0340
   69SLPC  H16Y 5955   1.317   0.616   8.595  1.6922  0.7100 -0.6248
   69SLPC  C317 5956   1.336   0.599   8.379  0.1120 -0.2279 -0.5939
   69SLPC  H17X 5957   1.269   0.685   8.357  0.4824  0.0716 -0.5707
   69SLPC  H17Y 5958   1.306   0.530   8.297 -0.4581 -0.0640 -0.5225
   69SLPC  C318 5959   1.479   0.627   8.377  0.1345  0.1856 -0.1981
   69SLPC  H18X 5960   1.523   0.614   8.276  2.3366 -4.4651  1.0541
   69SLPC  H18Y 5961   1.538   0.554   8.438  0.5581  0.9180  0.2908
   69SLPC  H18Z 5962   1.496   0.729   8.417 -3.7708  0.2076  1.8483
   70SLPC     N 5963   0.770   4.137  10.905 -0.0015 -1.0794  0.2029
   70SLPC   C13 5964   0.754   4.210  11.034 -0.1291 -0.4980 -0.2047
   70SLPC  H13A 5965   0.695   4.300  11.019 -1.6111 -1.2038  0.9953
   70SLPC  H13B 5966   0.693   4.146  11.097 -0.4134 -1.3485 -1.3144
   70SLPC  H13C 5967   0.841   4.231  11.094 -0.4170  1.0676 -0.2852
   70SLPC   C14 5968   0.634   4.081  10.866  0.0316  0.6914  0.3912
   70SLPC  H14A 5969   0.644   4.020  10.777 -2.1448 -1.5369  1.5596
   70SLPC  H14B 5970   0.607   4.018  10.949  1.2655 -1.4339 -0.7351
   70SLPC  H14C 5971   0.557   4.150  10.835 -0.6665  0.4475  1.5077
   70SLPC   C15 5972   0.850   4.013  10.925  0.1315  0.4263  0.3925
   70SLPC  H15A 5973   0.948   4.043  10.959  0.7849  0.0650 -1.0852
   70SLPC  H15B 5974   0.804   3.960  11.008  0.8091  1.7985  1.6887
   70SLPC  H15C 5975   0.845   3.953  10.835 -2.4130 -1.7846  1.8425
   70SLPC   C12 5976   0.839   4.210  10.790 -0.2068 -0.6227 -0.0794
   70SLPC  H12A 5977   0.837   4.147  10.702 -1.3393 -1.2922  0.3992
   70SLPC  H12B 5978   0.944   4.222  10.811 -0.2764  0.1750 -0.1373
   70SLPC   C11 5979   0.774   4.347  10.752  0.1949  0.2182  0.0292
   70SLPC  H11A 5980   0.666   4.326  10.741  0.2586  0.2287 -0.7051
   70SLPC  H11B 5981   0.803   4.377  10.649 -0.4350  0.2585 -0.1391
   70SLPC     P 5982   0.701   4.556  10.900  0.2439 -0.3466 -0.2800
   70SLPC   O13 5983   0.612   4.492  10.996  0.6212 -0.5051  0.4036
   70SLPC   O14 5984   0.779   4.671  10.955 -0.2092  0.6628  0.1862
   70SLPC   O12 5985   0.806   4.444  10.847  1.0776 -0.4648 -0.0394
   70SLPC   O11 5986   0.615   4.618  10.774 -0.7606  0.7311 -0.3368
   70SLPC    C1 5987   0.692   4.686  10.671 -0.8248  0.9092  0.5245
   70SLPC    HA 5988   0.695   4.794  10.695 -3.6262  0.8152  1.6468
   70SLPC    HB 5989   0.792   4.641  10.655 -1.5150 -0.1478 -1.0792
   70SLPC    C2 5990   0.614   4.683  10.535 -0.0436  0.1998 -0.0612
   70SLPC    HS 5991   0.591   4.576  10.517  2.5173 -0.7223  1.5313
   70SLPC   O21 5992   0.681   4.745  10.425 -0.6963 -0.1525  0.2405
   70SLPC   C21 5993   0.744   4.666  10.349 -0.8121 -0.1281  0.2666
   70SLPC   O22 5994   0.756   4.543  10.357 -0.2385 -0.1396 -0.3783
   70SLPC   C22 5995   0.805   4.749  10.232 -0.2477  0.1679 -0.2191
   70SLPC   H2R 5996   0.721   4.801  10.181 -1.9865 -2.2367 -0.0250
   70SLPC   H2S 5997   0.876   4.820  10.278  0.2260 -0.2221 -0.3424
   70SLPC    C3 5998   0.467   4.737  10.535 -0.2817 -0.1561  0.4155
   70SLPC    HX 5999   0.465   4.839  10.579  0.4552 -0.6237  1.5852
   70SLPC    HY 6000   0.410   4.680  10.612 -2.1147 -0.1470 -0.8850
   70SLPC   O31 6001   0.404   4.745  10.404 -0.5754  0.1990  0.0925
   70SLPC   C31 6002   0.322   4.644  10.370 -0.0856 -0.6219  0.1354
   70SLPC   O32 6003   0.290   4.548  10.437  0.2281  0.0007 -0.1133
   70SLPC   C32 6004   0.278   4.667  10.224 -0.5544 -0.0334 -0.3780
   70SLPC   H2X 6005   0.204   4.750  10.231 -0.5127  0.1165 -1.5298
   70SLPC   H2Y 6006   0.221   4.572  10.209 -0.3824 -0.4102  1.1088
   70SLPC   C23 6007   0.879   4.657  10.135 -0.1205  0.6835 -0.1832
   70SLPC   H3R 6008   0.949   4.584  10.180 -0.6528  0.3301  0.0752
   70SLPC   H3S 6009   0.935   4.723  10.065  2.1322 -1.5516 -0.6534
   70SLPC   C24 6010   0.788   4.582  10.042 -0.6525  1.1231 -0.1084
   70SLPC   H4R 6011   0.713   4.640   9.983 -1.8670 -0.8573 -0.6041
   70SLPC   H4S 6012   0.730   4.503  10.093  0.7533 -1.5907 -2.4246
   70SLPC   C25 6013   0.881   4.492   9.948  0.1325 -0.0611  0.3488
   70SLPC   H5R 6014   0.892   4.391   9.994  0.7707  0.0666  0.4912
   70SLPC   H5S 6015   0.978   4.546   9.941 -0.4681  0.8768 -1.0128
   70SLPC   C26 6016   0.837   4.474   9.802  0.2714  0.3526 -0.7100
   70SLPC   H6R 6017   0.816   4.572   9.754 -0.7506 -0.2891 -1.6161
   70SLPC   H6S 6018   0.750   4.408   9.821  1.9357 -1.2770  1.9994
   70SLPC   C27 6019   0.936   4.402   9.713  0.3038  0.0107 -0.1388
   70SLPC   H7R 6020   0.974   4.310   9.763  2.6035 -0.1315 -1.9413
   70SLPC   H7S 6021   1.019   4.475   9.701 -1.2123  2.0996  1.3719
   70SLPC   C28 6022   0.872   4.356   9.576  0.3225  0.2671  0.2858
   70SLPC   H8R 6023   0.828   4.456   9.558  2.8663  1.9103  2.3617
   70SLPC   H8S 6024   0.799   4.275   9.595  0.6181  0.0421  0.4838
   70SLPC   C29 6025   0.986   4.313   9.480 -0.2003 -0.4939  0.4615
   70SLPC   H9R 6026   1.078   4.371   9.493 -1.7607  2.1218  0.5458
   70SLPC  C210 6027   0.967   4.226   9.378  0.0988  0.2035  0.2288
   70SLPC  H10R 6028   1.052   4.208   9.311  1.2346 -1.9134  2.1223
   70SLPC  C211 6029   0.849   4.138   9.345  0.4642 -0.0333 -0.3892
   70SLPC  H11R 6030   0.794   4.128   9.441  3.2761  1.2167  1.4901
   70SLPC  H11S 6031   0.876   4.044   9.292 -1.0157  0.2563 -1.7313
   70SLPC  C212 6032   0.759   4.216   9.256  0.5211 -0.2591  0.7316
   70SLPC  H12R 6033   0.703   4.296   9.307 -1.4104  0.0922 -1.7288
   70SLPC  C213 6034   0.733   4.195   9.124 -0.0754 -0.2056 -0.3733
   70SLPC  H13R 6035   0.667   4.256   9.060  0.4820  0.3511 -0.4264
   70SLPC  C214 6036   0.810   4.084   9.047 -0.9934  0.4956 -0.1298
   70SLPC  H14R 6037   0.786   3.992   9.105  0.2431  1.8682  2.7868
   70SLPC  H14S 6038   0.920   4.098   9.056 -0.7187 -1.7089  0.6806
   70SLPC  C215 6039   0.750   4.074   8.905  0.0117 -0.0353 -0.4676
   70SLPC  H15R 6040   0.639   4.071   8.913  0.0324 -3.4639  0.2301
   70SLPC  H15S 6041   0.780   3.972   8.871 -0.6269 -1.6682  3.3064
   70SLPC  C216 6042   0.807   4.184   8.807 -0.4206  0.2398  0.3350
   70SLPC  H16R 6043   0.913   4.204   8.835 -0.0803  2.6162 -2.2555
   70SLPC  H16S 6044   0.752   4.279   8.792 -1.0503 -0.1243  0.2809
   70SLPC  C217 6045   0.820   4.126   8.667  0.3510 -0.8203  0.2978
   70SLPC  H17R 6046   0.718   4.098   8.632 -0.1014  0.1228  0.8163
   70SLPC  H17S 6047   0.883   4.035   8.676  0.4658 -0.7384  0.3295
   70SLPC  C218 6048   0.874   4.217   8.555  0.3669  0.1654  0.3377
   70SLPC  H18R 6049   0.847   4.166   8.460  1.6459  1.5823 -0.8420
   70SLPC  H18S 6050   0.985   4.215   8.564  0.2136  0.4870  3.2019
   70SLPC  H18T 6051   0.828   4.318   8.564 -0.5614 -0.3507  1.7238
   70SLPC   C33 6052   0.396   4.691  10.137 -0.5458  0.1401  0.2797
   70SLPC   H3X 6053   0.482   4.628  10.166 -0.7663  0.0387  0.7175
   70SLPC   H3Y 6054   0.420   4.798  10.155  0.2718 -0.1230  0.7994
   70SLPC   C34 6055   0.349   4.668   9.992 -0.3269 -0.1282  0.2456
   70SLPC   H4X 6056   0.281   4.754   9.972 -1.6641 -1.2294 -0.0754
   70SLPC   H4Y 6057   0.301   4.568   9.990 -0.5399 -0.1667  2.9224
   70SLPC   C35 6058   0.463   4.677   9.887 -0.2917  0.8570  0.5819
   70SLPC   H5X 6059   0.522   4.583   9.894 -3.3607 -1.1727  0.7537
   70SLPC   H5Y 6060   0.530   4.765   9.896  1.0655  0.0892 -1.3255
   70SLPC   C36 6061   0.413   4.695   9.749  0.0751 -0.0126  0.4170
   70SLPC   H6X 6062   0.362   4.794   9.752 -1.1103 -0.6281  2.4591
   70SLPC   H6Y 6063   0.333   4.620   9.733 -1.3727  1.3079  1.1484
   70SLPC   C37 6064   0.524   4.672   9.643 -0.1568  0.5390  0.9214
   70SLPC   H7X 6065   0.572   4.572   9.653 -0.3022  0.4694  0.9298
   70SLPC   H7Y 6066   0.599   4.752   9.663 -0.6329  1.3983 -0.5966
   70SLPC   C38 6067   0.464   4.686   9.502  0.3535 -0.2913 -0.0205
   70SLPC   H8X 6068   0.434   4.793   9.506  1.0921 -0.1078  2.5455
   70SLPC   H8Y 6069   0.378   4.620   9.477 -0.9081  1.6371 -0.9787
   70SLPC   C39 6070   0.567   4.690   9.386 -0.2493 -0.3489 -0.0108
   70SLPC   H9X 6071   0.589   4.583   9.362  1.4341 -0.1226  0.3912
   70SLPC   H9Y 6072   0.664   4.730   9.422 -0.1481 -1.4061  0.9630
   70SLPC  C310 6073   0.529   4.776   9.269 -0.1178 -0.1987 -0.0541
   70SLPC  H10X 6074   0.615   4.839   9.240  0.5183 -0.8337  0.4197
   70SLPC  H10Y 6075   0.448   4.849   9.291 -1.2220 -1.3161 -0.2954
   70SLPC  C311 6076   0.471   4.692   9.154 -1.0323  0.2325  0.5175
   70SLPC  H11X 6077   0.370   4.653   9.178 -0.7426 -1.0858 -0.3405
   70SLPC  H11Y 6078   0.543   4.611   9.130 -0.1928  1.2518 -0.5607
   70SLPC  C312 6079   0.448   4.788   9.040  0.1807 -0.7161  0.4540
   70SLPC  H12X 6080   0.534   4.856   9.022  1.2295 -1.6399  1.8426
   70SLPC  H12Y 6081   0.371   4.863   9.069  1.0278  0.1440  0.5419
   70SLPC  C313 6082   0.395   4.732   8.906 -1.0936  0.0224 -0.4283
   70SLPC  H13X 6083   0.463   4.650   8.877 -0.4420 -0.0459  1.1639
   70SLPC  H13Y 6084   0.411   4.821   8.842  2.8122  1.8166  2.6294
   70SLPC  C314 6085   0.249   4.689   8.915 -0.3433  0.4083 -0.2426
   70SLPC  H14X 6086   0.195   4.762   8.979  2.1851  1.4318  0.8690
   70SLPC  H14Y 6087   0.228   4.589   8.959 -1.5932  0.0209 -1.6485
   70SLPC  C315 6088   0.186   4.673   8.776  0.6365 -0.5137 -0.4356
   70SLPC  H15X 6089   0.228   4.586   8.722 -0.9409 -1.9007  0.4946
   70SLPC  H15Y 6090   0.205   4.765   8.716 -0.4714 -0.1985 -0.3190
   70SLPC  C316 6091   0.031   4.662   8.789  0.3566 -0.1406 -0.3203
   70SLPC  H16X 6092  -0.025   4.746   8.835 -0.4838 -0.0971 -1.3746
   70SLPC  H16Y 6093   0.010   4.585   8.866 -2.1388  0.1472 -0.6547
   70SLPC  C317 6094  -0.045   4.621   8.661 -0.3906  0.6477  0.0198
   70SLPC  H17X 6095  -0.154   4.628   8.681 -0.9526 -1.9810 -1.7816
   70SLPC  H17Y 6096  -0.019   4.515   8.642 -1.5253  0.3902 -0.2097
   70SLPC  C318 6097  -0.001   4.693   8.531  0.4800 -1.1420  0.1478
   70SLPC  H18X 6098   0.106   4.681   8.505  0.2674 -1.0675 -0.8220
   70SLPC  H18Y 6099  -0.020   4.803   8.531 -1.7533 -1.4641 -0.3037
   70SLPC  H18Z 6100  -0.065   4.664   8.445  2.2157  1.6867 -2.3027
   71SLPC     N 6101   0.415   3.266  10.553 -0.4184  0.5704 -0.1043
   71SLPC   C13 6102   0.300   3.194  10.617 -0.1469 -0.1833  0.9314
   71SLPC  H13A 6103   0.225   3.161  10.547 -0.7690  1.6801  0.6545
   71SLPC  H13B 6104   0.329   3.108  10.676 -1.1631 -0.8281  0.5077
   71SLPC  H13C 6105   0.242   3.255  10.685 -1.7996  2.1307 -2.2895
   71SLPC   C14 6106   0.482   3.169  10.462  0.2163 -0.3714 -0.0189
   71SLPC  H14A 6107   0.503   3.074  10.508  1.1406 -0.0090  0.3374
   71SLPC  H14B 6108   0.415   3.144  10.381  0.9632  1.3966 -1.2538
   71SLPC  H14C 6109   0.569   3.208  10.410 -1.1828  3.0854 -0.0362
   71SLPC   C15 6110   0.524   3.296  10.654 -0.6567  0.2714 -0.1804
   71SLPC  H15A 6111   0.604   3.346  10.602 -0.1004 -1.4625 -1.0817
   71SLPC  H15B 6112   0.498   3.368  10.730  1.2984  2.3321 -1.3506
   71SLPC  H15C 6113   0.557   3.204  10.701  0.3405  0.3774 -0.6542
   71SLPC   C12 6114   0.369   3.389  10.483 -0.2635  0.1172  0.4267
   71SLPC  H12A 6115   0.295   3.435  10.547  1.0095  2.4426  0.3292
   71SLPC  H12B 6116   0.309   3.351  10.401 -0.5114 -2.5271  1.7146
   71SLPC   C11 6117   0.476   3.494  10.436  0.5903 -0.2608  0.0803
   71SLPC  H11A 6118   0.417   3.563  10.371  1.1165 -1.6344 -1.9302
   71SLPC  H11B 6119   0.549   3.438  10.374  1.3303 -2.1214  2.4836
   71SLPC     P 6120   0.639   3.684  10.514 -0.0102  0.4453 -0.3438
   71SLPC   O13 6121   0.594   3.764  10.397 -0.1756  0.4435 -0.8813
   71SLPC   O14 6122   0.666   3.751  10.644  0.8955  0.7197  0.5442
   71SLPC   O12 6123   0.540   3.566  10.543 -0.5259  0.0703 -0.5588
   71SLPC   O11 6124   0.773   3.602  10.467 -0.6353 -0.2145  0.5001
   71SLPC    C1 6125   0.858   3.664  10.369  0.6122  0.1148  0.5187
   71SLPC    HA 6126   0.846   3.774  10.374 -3.4217 -0.1500 -0.4867
   71SLPC    HB 6127   0.966   3.639  10.382  0.5217 -0.6364 -0.0920
   71SLPC    C2 6128   0.819   3.623  10.223 -0.1927 -0.7391  0.0645
   71SLPC    HS 6129   0.710   3.619  10.207  0.1617 -2.2949 -2.4033
   71SLPC   O21 6130   0.867   3.489  10.200 -0.7240  0.0119 -0.6854
   71SLPC   C21 6131   0.796   3.415  10.120  0.5588  0.4102  0.0795
   71SLPC   O22 6132   0.699   3.443  10.052 -0.3114 -0.6237 -0.2531
   71SLPC   C22 6133   0.866   3.281  10.119  0.1517  0.2812  0.3296
   71SLPC   H2R 6134   0.972   3.284  10.151  0.7579  0.0007 -1.5318
   71SLPC   H2S 6135   0.826   3.214  10.198 -0.9297  1.7578  1.0674
   71SLPC    C3 6136   0.897   3.726  10.131 -0.1515 -0.0701  0.8681
   71SLPC    HX 6137   1.000   3.733  10.171 -0.0595 -1.7576  0.9983
   71SLPC    HY 6138   0.851   3.824  10.156  1.6158  0.4074  2.5678
   71SLPC   O31 6139   0.887   3.688   9.995  0.2377  0.5036  0.2763
   71SLPC   C31 6140   0.774   3.717   9.935  0.2090  0.1364 -0.3837
   71SLPC   O32 6141   0.685   3.772   9.994  0.0733  0.5942 -0.8353
   71SLPC   C32 6142   0.779   3.663   9.792  0.2022  0.4522  0.0657
   71SLPC   H2X 6143   0.730   3.563   9.795  0.7678  0.1303 -1.0020
   71SLPC   H2Y 6144   0.887   3.647   9.769  0.3931  1.6155  0.0957
   71SLPC   C23 6145   0.839   3.207   9.985  0.1950 -0.2554  0.6106
   71SLPC   H3R 6146   0.734   3.226   9.956  0.4099  1.0049  0.6254
   71SLPC   H3S 6147   0.842   3.100  10.018  1.8653 -0.3581  0.2519
   71SLPC   C24 6148   0.943   3.245   9.866 -0.3830  0.1810  0.5813
   71SLPC   H4R 6149   1.040   3.200   9.895  0.1813  2.1722  1.9819
   71SLPC   H4S 6150   0.944   3.356   9.863 -2.2285  0.2171 -2.5099
   71SLPC   C25 6151   0.889   3.189   9.730  0.2304 -0.7004 -0.4229
   71SLPC   H5R 6152   0.870   3.080   9.743  0.3935 -0.4210  2.8831
   71SLPC   H5S 6153   0.974   3.209   9.662  0.3252  0.7068  0.0734
   71SLPC   C26 6154   0.768   3.266   9.670 -0.9602  0.3067 -0.4445
   71SLPC   H6R 6155   0.776   3.375   9.690 -0.9691  0.4684 -1.3125
   71SLPC   H6S 6156   0.675   3.242   9.726 -0.0806  1.9618  1.8989
   71SLPC   C27 6157   0.761   3.243   9.519  0.0532 -0.0953  0.2110
   71SLPC   H7R 6158   0.774   3.134   9.506 -1.8503 -0.4440  0.9979
   71SLPC   H7S 6159   0.852   3.292   9.478  0.4903 -0.5803  0.6041
   71SLPC   C28 6160   0.619   3.278   9.461  0.2516 -0.5515 -0.5493
   71SLPC   H8R 6161   0.559   3.332   9.538  0.6401 -0.2114 -0.4763
   71SLPC   H8S 6162   0.572   3.180   9.442 -0.0826 -0.4627 -0.1984
   71SLPC   C29 6163   0.622   3.362   9.336 -0.0139 -0.2026 -0.3990
   71SLPC   H9R 6164   0.674   3.457   9.355  0.4862 -0.4698 -0.4162
   71SLPC  C210 6165   0.597   3.327   9.207  0.4289  0.5433  0.7719
   71SLPC  H10R 6166   0.613   3.400   9.126  1.4114 -0.8097 -0.3018
   71SLPC  C211 6167   0.543   3.192   9.155  0.1713 -0.4797  0.0203
   71SLPC  H11R 6168   0.473   3.164   9.236 -1.3912  0.6920 -0.8591
   71SLPC  H11S 6169   0.621   3.116   9.132  0.9802  0.1258  0.7218
   71SLPC  C212 6170   0.446   3.214   9.037 -0.3556  0.2818 -0.5721
   71SLPC  H12R 6171   0.432   3.317   9.000  1.3377  0.4882 -0.7273
   71SLPC  C213 6172   0.390   3.119   8.965  0.4205 -0.1355  0.3721
   71SLPC  H13R 6173   0.325   3.135   8.877 -0.1585 -0.6534  0.6988
   71SLPC  C214 6174   0.418   2.972   8.982 -0.2641 -0.0370 -0.2902
   71SLPC  H14R 6175   0.322   2.919   8.997  0.2159 -1.0832 -0.8318
   71SLPC  H14S 6176   0.470   2.946   9.076  0.9023  1.6169 -0.4347
   71SLPC  C215 6177   0.479   2.895   8.869  0.1515 -0.3814  0.4559
   71SLPC  H15R 6178   0.509   2.791   8.893  0.8998 -0.1086  0.7112
   71SLPC  H15S 6179   0.579   2.938   8.849 -0.5556  0.3411 -1.8845
   71SLPC  C216 6180   0.385   2.882   8.740 -0.2453 -0.4177  0.3656
   71SLPC  H16R 6181   0.450   2.856   8.653 -0.2710  1.4953 -0.2813
   71SLPC  H16S 6182   0.352   2.986   8.721  2.0537  0.2243 -0.5546
   71SLPC  C217 6183   0.263   2.792   8.753  0.3124 -0.5075  0.7143
   71SLPC  H17R 6184   0.226   2.772   8.650  0.0851  1.3026  0.4083
   71SLPC  H17S 6185   0.182   2.857   8.793 -0.1076  0.2370 -1.2420
   71SLPC  C218 6186   0.274   2.664   8.834  0.3994  0.7484  1.0440
   71SLPC  H18R 6187   0.355   2.594   8.803 -0.7148  0.4993 -1.6300
   71SLPC  H18S 6188   0.187   2.599   8.814 -0.1621  1.5007  0.9876
   71SLPC  H18T 6189   0.283   2.685   8.943 -2.5188  0.4366  1.4115
   71SLPC   C33 6190   0.699   3.755   9.700 -0.3354 -0.1127  0.2937
   71SLPC   H3X 6191   0.744   3.857   9.707 -0.0381 -0.2122 -0.0923
   71SLPC   H3Y 6192   0.591   3.764   9.726 -1.1693 -1.9617 -2.1647
   71SLPC   C34 6193   0.706   3.705   9.554 -0.1886  0.6239 -0.1347
   71SLPC   H4X 6194   0.655   3.607   9.555  1.0458 -0.0748  2.7419
   71SLPC   H4Y 6195   0.810   3.697   9.515 -0.1624  0.5440 -0.0483
   71SLPC   C35 6196   0.622   3.803   9.466  0.1223 -0.8634 -0.4542
   71SLPC   H5X 6197   0.675   3.899   9.481  1.7597 -1.6923 -0.6933
   71SLPC   H5Y 6198   0.520   3.813   9.510 -0.0340 -0.2261 -0.9522
   71SLPC   C36 6199   0.612   3.753   9.322 -0.1517  0.8120  0.1768
   71SLPC   H6X 6200   0.556   3.657   9.324 -3.5092  2.5976  2.8184
   71SLPC   H6Y 6201   0.715   3.730   9.286  0.1847  2.6885 -0.1760
   71SLPC   C37 6202   0.515   3.833   9.235  0.5134 -0.9068  0.9073
   71SLPC   H7X 6203   0.549   3.937   9.216  0.2079 -1.2157 -1.6988
   71SLPC   H7Y 6204   0.414   3.846   9.277  0.4391  0.4283  0.3514
   71SLPC   C38 6205   0.494   3.742   9.113  0.0713 -0.3011  0.4352
   71SLPC   H8X 6206   0.441   3.647   9.137 -0.8777  0.1369  0.1062
   71SLPC   H8Y 6207   0.596   3.722   9.071  1.3006  4.0869  0.8809
   71SLPC   C39 6208   0.419   3.819   8.997 -0.7064  0.1366 -0.3318
   71SLPC   H9X 6209   0.486   3.896   8.952  0.3473 -1.8716 -2.4213
   71SLPC   H9Y 6210   0.325   3.865   9.034 -0.6884 -1.2245  1.4890
   71SLPC  C310 6211   0.385   3.723   8.886  0.5033  0.5922  0.3449
   71SLPC  H10X 6212   0.312   3.648   8.923  0.5385  0.3336 -0.1007
   71SLPC  H10Y 6213   0.475   3.666   8.854 -0.0463 -0.8621  1.2524
   71SLPC  C311 6214   0.312   3.786   8.763 -0.1547 -0.3098  0.2429
   71SLPC  H11X 6215   0.251   3.867   8.808 -0.2099  0.4022 -1.0520
   71SLPC  H11Y 6216   0.250   3.712   8.707 -0.9160 -1.1337  2.0985
   71SLPC  C312 6217   0.416   3.838   8.662 -0.0559 -0.8174 -0.0067
   71SLPC  H12X 6218   0.490   3.760   8.632 -0.1035 -0.2905 -1.5472
   71SLPC  H12Y 6219   0.477   3.922   8.700 -3.6533  3.6592 -3.1288
   71SLPC  C313 6220   0.346   3.901   8.542  0.1383  0.1617  0.1449
   71SLPC  H13X 6221   0.291   3.985   8.588  1.6171  1.8721 -1.0610
   71SLPC  H13Y 6222   0.276   3.831   8.494 -2.2182  2.4029  0.1202
   71SLPC  C314 6223   0.448   3.960   8.438 -0.8022  0.2558 -1.0695
   71SLPC  H14X 6224   0.528   3.885   8.420 -0.5044  0.6306 -1.3122
   71SLPC  H14Y 6225   0.508   4.039   8.486  0.3491 -0.5355 -1.1585
   71SLPC  C315 6226   0.392   4.009   8.313  0.1258 -0.6228 -0.0025
   71SLPC  H15X 6227   0.477   4.030   8.246 -1.1559  0.1407 -1.4566
   71SLPC  H15Y 6228   0.337   4.101   8.343  0.1680 -0.9702  1.1773
   71SLPC  C316 6229   0.290   3.921   8.237  0.7064  0.9701 -0.4680
   71SLPC  H16X 6230   0.208   3.909   8.311  1.5116 -1.4591  0.1167
   71SLPC  H16Y 6231   0.332   3.818   8.229 -0.6380  0.3174  0.4940
   71SLPC  C317 6232   0.229   3.985   8.110 -0.3452  0.1310  0.3150
   71SLPC  H17X 6233   0.310   4.001   8.036 -1.9449 -0.5971 -1.6881
   71SLPC  H17Y 6234   0.200   4.090   8.131  2.5683  0.9247  0.7706
   71SLPC  C318 6235   0.112   3.909   8.053  0.0520  0.1018  0.3422
   71SLPC  H18X 6236   0.065   3.977   7.979 -1.8924 -2.5068 -0.9986
   71SLPC  H18Y 6237   0.036   3.896   8.134  0.1547  4.7922  1.4448
   71SLPC  H18Z 6238   0.135   3.811   8.006 -0.9107  0.1392 -0.2332
   72SLPC     N 6239   2.718   0.752  10.811  0.5964 -0.3358  0.1953
   72SLPC   C13 6240   2.726   0.835  10.931 -0.8290 -0.2262  0.2419
   72SLPC  H13A 6241   2.755   0.775  11.016 -2.0783  0.3927  1.1496
   72SLPC  H13B 6242   2.801   0.909  10.911 -0.5656 -0.1457  1.4421
   72SLPC  H13C 6243   2.628   0.876  10.951 -0.7003  0.3131 -0.2141
   72SLPC   C14 6244   2.613   0.648  10.832 -0.3503 -0.5592  0.3257
   72SLPC  H14A 6245   2.616   0.563  10.766  2.3229  0.0105 -0.4135
   72SLPC  H14B 6246   2.628   0.601  10.928  0.9593 -1.6519 -0.3835
   72SLPC  H14C 6247   2.512   0.685  10.839 -0.4591 -0.6191 -0.7554
   72SLPC   C15 6248   2.845   0.690  10.795 -0.9581 -0.0324  0.1966
   72SLPC  H15A 6249   2.844   0.619  10.714  0.9157  1.6800 -1.4217
   72SLPC  H15B 6250   2.914   0.765  10.762 -3.3252  1.4125 -1.8406
   72SLPC  H15C 6251   2.879   0.646  10.888 -0.0720  0.9100  0.3312
   72SLPC   C12 6252   2.683   0.841  10.689  0.0015  0.6190 -0.6584
   72SLPC  H12A 6253   2.689   0.775  10.604  0.4573 -0.3831  0.1334
   72SLPC  H12B 6254   2.759   0.917  10.681 -0.8290  1.7588  1.4228
   72SLPC   C11 6255   2.551   0.910  10.691  0.9178 -0.1165  0.4125
   72SLPC  H11A 6256   2.552   1.008  10.639 -2.1876  0.7068  1.7009
   72SLPC  H11B 6257   2.530   0.948  10.793  1.0029  0.9120  0.0520
   72SLPC     P 6258   2.412   0.781  10.510  0.2149 -0.0883  0.3403
   72SLPC   O13 6259   2.520   0.696  10.459 -0.0791  0.4988  0.8361
   72SLPC   O14 6260   2.277   0.722  10.522 -0.5495  0.1511  0.1261
   72SLPC   O12 6261   2.440   0.825  10.652 -0.4612 -0.0047 -0.1952
   72SLPC   O11 6262   2.424   0.910  10.424  0.3667 -0.6374  1.0009
   72SLPC    C1 6263   2.325   1.012  10.444 -0.0758  0.2055  0.9649
   72SLPC    HA 6264   2.224   0.967  10.439  0.3148 -0.5689 -0.5618
   72SLPC    HB 6265   2.339   1.060  10.543  2.3893  1.1720  0.2386
   72SLPC    C2 6266   2.333   1.122  10.335 -0.4103 -0.1358  0.3177
   72SLPC    HS 6267   2.252   1.198  10.344  1.1253  1.6086 -0.0083
   72SLPC   O21 6268   2.325   1.059  10.206  0.1505 -0.3534 -0.2295
   72SLPC   C21 6269   2.203   1.021  10.184  0.3175 -0.1193  0.8579
   72SLPC   O22 6270   2.106   1.056  10.252  0.0114  0.8491  0.3583
   72SLPC   C22 6271   2.197   0.932  10.064 -0.0853  0.1923  0.7087
   72SLPC   H2R 6272   2.293   0.877  10.058  1.8499  3.2609  1.2571
   72SLPC   H2S 6273   2.109   0.866  10.078  0.6704 -1.5101 -1.9327
   72SLPC    C3 6274   2.464   1.205  10.345  0.1419 -0.7944 -0.2939
   72SLPC    HX 6275   2.550   1.137  10.359 -0.5714 -1.2928  2.0639
   72SLPC    HY 6276   2.448   1.259  10.441  1.8331 -0.6260 -0.0813
   72SLPC   O31 6277   2.481   1.296  10.230  0.0676  0.2108  0.4365
   72SLPC   C31 6278   2.590   1.365  10.221  0.2786  0.1332  0.3830
   72SLPC   O32 6279   2.687   1.372  10.297 -0.6899  0.0476 -0.6374
   72SLPC   C32 6280   2.573   1.452  10.097 -0.0378 -0.3751 -0.2081
   72SLPC   H2X 6281   2.643   1.537  10.112 -0.9230  0.0904  1.5217
   72SLPC   H2Y 6282   2.476   1.502  10.081 -0.4545 -1.0819  0.0737
   72SLPC   C23 6283   2.174   1.015   9.932  0.8103 -0.2237  0.1647
   72SLPC   H3R 6284   2.093   1.091   9.938  1.0802  0.1125 -0.4251
   72SLPC   H3S 6285   2.125   0.945   9.861 -1.2168 -0.5891  1.8230
   72SLPC   C24 6286   2.301   1.065   9.874  0.0079 -0.8712  0.1154
   72SLPC   H4R 6287   2.395   1.007   9.892  0.5259  0.2922  1.3721
   72SLPC   H4S 6288   2.329   1.169   9.901 -2.1062 -0.4752  0.9695
   72SLPC   C25 6289   2.299   1.071   9.720  0.1212  0.4016 -0.0510
   72SLPC   H5R 6290   2.202   1.107   9.680 -0.6543  0.7919  2.0564
   72SLPC   H5S 6291   2.299   0.966   9.682  1.7128  0.8681 -1.4342
   72SLPC   C26 6292   2.412   1.159   9.653  0.0106 -0.4662  0.6598
   72SLPC   H6R 6293   2.514   1.117   9.663  0.1636 -0.0637  0.8248
   72SLPC   H6S 6294   2.391   1.262   9.691 -0.4411  0.2430 -1.3893
   72SLPC   C27 6295   2.382   1.184   9.502 -0.6221 -0.0266  0.4698
   72SLPC   H7R 6296   2.274   1.201   9.479 -0.7683 -1.8006 -0.3267
   72SLPC   H7S 6297   2.420   1.096   9.445 -2.6293 -0.0740 -0.9328
   72SLPC   C28 6298   2.469   1.295   9.435  0.5340  0.1376 -0.5066
   72SLPC   H8R 6299   2.474   1.257   9.331 -1.1059 -3.5950  0.6067
   72SLPC   H8S 6300   2.575   1.302   9.468  0.0579 -0.1463  1.1834
   72SLPC   C29 6301   2.409   1.430   9.442  0.2075 -0.8967  0.3696
   72SLPC   H9R 6302   2.413   1.473   9.544 -0.2557 -0.3548  0.1613
   72SLPC  C210 6303   2.365   1.500   9.340 -0.2202  0.0139 -0.3580
   72SLPC  H10R 6304   2.324   1.602   9.348  0.0549  0.2171 -1.3735
   72SLPC  C211 6305   2.336   1.457   9.196  0.4764  0.4184 -0.6810
   72SLPC  H11R 6306   2.240   1.403   9.179 -0.7755  2.5204 -0.6365
   72SLPC  H11S 6307   2.414   1.387   9.158  1.1733  0.7242  0.1506
   72SLPC  C212 6308   2.325   1.567   9.092 -0.4289  0.0624  0.1235
   72SLPC  H12R 6309   2.365   1.666   9.118  3.4993 -0.5334 -2.6577
   72SLPC  C213 6310   2.296   1.559   8.961 -0.4441  0.6508  0.6440
   72SLPC  H13R 6311   2.288   1.652   8.902  1.2834  0.5318  0.1600
   72SLPC  C214 6312   2.260   1.434   8.885  0.6878  0.1666  0.2448
   72SLPC  H14R 6313   2.153   1.405   8.879  0.5759  0.6838 -0.3291
   72SLPC  H14S 6314   2.320   1.349   8.924  0.9938 -0.2470 -1.0750
   72SLPC  C215 6315   2.319   1.455   8.750  0.3944  0.1225  0.1948
   72SLPC  H15R 6316   2.427   1.480   8.756  0.6217 -0.7587  0.0096
   72SLPC  H15S 6317   2.258   1.528   8.691  0.1476 -1.3215 -1.4392
   72SLPC  C216 6318   2.285   1.339   8.655  0.3838 -0.4387  0.4571
   72SLPC  H16R 6319   2.178   1.312   8.641  0.2450  0.7958 -1.2683
   72SLPC  H16S 6320   2.337   1.245   8.685  0.1248 -1.1010 -1.0525
   72SLPC  C217 6321   2.333   1.369   8.512 -0.3213 -0.4559 -0.5378
   72SLPC  H17R 6322   2.347   1.279   8.447  0.0200 -2.2592  1.9090
   72SLPC  H17S 6323   2.435   1.411   8.520 -0.5951 -0.1989  3.1049
   72SLPC  C218 6324   2.245   1.470   8.435 -0.4483 -0.7027 -0.1107
   72SLPC  H18R 6325   2.145   1.423   8.424 -0.4311 -0.3474 -1.9970
   72SLPC  H18S 6326   2.294   1.484   8.337 -0.4382 -1.6396 -0.2554
   72SLPC  H18T 6327   2.238   1.571   8.482  1.0811 -1.0773  1.0169
   72SLPC   C33 6328   2.621   1.385   9.967  0.1468  0.2360  0.3047
   72SLPC   H3X 6329   2.542   1.326   9.916  2.3201 -2.4681 -0.2051
   72SLPC   H3Y 6330   2.702   1.315   9.997  0.1496 -0.7506 -1.8101
   72SLPC   C34 6331   2.684   1.486   9.873  0.4070  0.0497  0.0095
   72SLPC   H4X 6332   2.755   1.552   9.928 -0.7988  1.1987  0.2353
   72SLPC   H4Y 6333   2.607   1.565   9.857 -1.2832 -1.3207  0.9851
   72SLPC   C35 6334   2.741   1.424   9.750 -0.1180  0.1739 -1.2095
   72SLPC   H5X 6335   2.667   1.379   9.681 -2.0881  1.9746 -0.3843
   72SLPC   H5Y 6336   2.819   1.351   9.781  0.9885  0.6683 -2.7067
   72SLPC   C36 6337   2.815   1.530   9.672 -0.0171  0.5843 -0.3773
   72SLPC   H6X 6338   2.897   1.479   9.617 -1.2817 -2.2087  0.1494
   72SLPC   H6Y 6339   2.863   1.605   9.739 -0.1450  1.5065 -1.2863
   72SLPC   C37 6340   2.715   1.599   9.574  0.2777 -0.4915  0.8787
   72SLPC   H7X 6341   2.619   1.640   9.612 -1.1271  1.5607 -4.0123
   72SLPC   H7Y 6342   2.691   1.514   9.506  0.1644  0.9108 -0.9154
   72SLPC   C38 6343   2.782   1.709   9.487 -0.0358 -0.3719  0.1752
   72SLPC   H8X 6344   2.872   1.670   9.436  0.0160 -1.2774  0.9210
   72SLPC   H8Y 6345   2.814   1.797   9.546 -3.8628  0.9805  0.5388
   72SLPC   C39 6346   2.688   1.760   9.373  0.2062 -0.3676 -0.4773
   72SLPC   H9X 6347   2.644   1.858   9.404  0.8215 -0.7597  1.8252
   72SLPC   H9Y 6348   2.599   1.695   9.355 -1.3011  1.8705 -1.6057
   72SLPC  C310 6349   2.759   1.763   9.239  0.5568  0.1351  0.2419
   72SLPC  H10X 6350   2.816   1.668   9.239  0.2058 -0.0997 -1.3602
   72SLPC  H10Y 6351   2.832   1.847   9.239 -0.1983  0.8257 -0.8500
   72SLPC  C311 6352   2.669   1.770   9.118  0.2480  0.5005  0.4502
   72SLPC  H11X 6353   2.595   1.849   9.143 -0.1500 -0.4357  2.4250
   72SLPC  H11Y 6354   2.616   1.673   9.122  0.8383  0.0817 -1.0606
   72SLPC  C312 6355   2.733   1.774   8.979  0.2842  0.6685 -0.0967
   72SLPC  H12X 6356   2.814   1.699   8.985 -0.1154 -0.3159 -4.2804
   72SLPC  H12Y 6357   2.784   1.872   8.979  1.6167  0.0163  1.3989
   72SLPC  C313 6358   2.625   1.745   8.877 -0.6193  0.1560  0.0916
   72SLPC  H13X 6359   2.571   1.655   8.912 -1.1640  0.4409  0.0026
   72SLPC  H13Y 6360   2.676   1.721   8.781 -0.4859 -0.1708  0.2428
   72SLPC  C314 6361   2.536   1.869   8.854  0.0410  0.5139  0.2846
   72SLPC  H14X 6362   2.589   1.966   8.845  0.9558  0.0182  0.1645
   72SLPC  H14Y 6363   2.477   1.886   8.947  0.4867  0.1614  0.6429
   72SLPC  C315 6364   2.446   1.845   8.732  1.0124  0.1724  0.0419
   72SLPC  H15X 6365   2.382   1.756   8.751  2.4194 -0.5624  1.5221
   72SLPC  H15Y 6366   2.496   1.811   8.638 -0.1191 -0.3994 -0.3874
   72SLPC  C316 6367   2.375   1.972   8.691 -0.2901  0.2619 -0.1937
   72SLPC  H16X 6368   2.446   2.055   8.668 -1.0926  1.0111 -0.0550
   72SLPC  H16Y 6369   2.308   2.012   8.770 -0.7858 -2.2174  0.7112
   72SLPC  C317 6370   2.277   1.939   8.576 -0.0527  0.0695 -0.0049
   72SLPC  H17X 6371   2.190   1.882   8.616 -0.4590  0.0978 -0.8295
   72SLPC  H17Y 6372   2.334   1.863   8.518  0.4481 -0.4824  1.1736
   72SLPC  C318 6373   2.228   2.052   8.489 -0.2212 -0.6695  0.9112
   72SLPC  H18X 6374   2.312   2.110   8.446 -0.6513 -0.7663 -0.0917
   72SLPC  H18Y 6375   2.168   2.132   8.537  0.7663  0.2641  0.6371
   72SLPC  H18Z 6376   2.168   2.018   8.402 -3.3230  2.6201  1.5170
   73SLPC     N 6377   2.551   5.316  10.873 -0.5688 -0.8659 -0.2626
   73SLPC   C13 6378   2.549   5.168  10.856  0.1363  0.3292 -0.1010
   73SLPC  H13A 6379   2.460   5.133  10.806  1.0968 -0.5004 -1.2817
   73SLPC  H13B 6380   2.637   5.134  10.805  0.2222  1.6199 -0.8457
   73SLPC  H13C 6381   2.541   5.118  10.952  0.1590  1.3319  0.4401
   73SLPC   C14 6382   2.658   5.363  10.973 -0.6188  0.2203  0.3258
   73SLPC  H14A 6383   2.673   5.470  10.966 -1.7427  0.3257 -0.9757
   73SLPC  H14B 6384   2.642   5.315  11.068 -0.9926 -4.0303 -1.6327
   73SLPC  H14C 6385   2.753   5.329  10.936  0.4722  3.5962 -0.2804
   73SLPC   C15 6386   2.419   5.354  10.928  0.0187  0.5050  0.2143
   73SLPC  H15A 6387   2.420   5.462  10.930  2.8630  0.5639  1.7928
   73SLPC  H15B 6388   2.340   5.329  10.859  1.0449  0.3704 -0.9572
   73SLPC  H15C 6389   2.392   5.307  11.021  2.9259 -0.9848  0.4134
   73SLPC   C12 6390   2.575   5.385  10.739  0.3350  0.1155  0.0353
   73SLPC  H12A 6391   2.486   5.365  10.681 -0.1134 -2.6219  1.4752
   73SLPC  H12B 6392   2.659   5.341  10.687  0.6998  0.9135 -0.0673
   73SLPC   C11 6393   2.586   5.536  10.726  0.2499  0.2077  0.4849
   73SLPC  H11A 6394   2.620   5.548  10.621  1.6183 -0.8319  0.7891
   73SLPC  H11B 6395   2.672   5.578  10.782  1.9940 -0.6688 -1.4154
   73SLPC     P 6396   2.450   5.760  10.780 -0.0906  0.1866  0.3257
   73SLPC   O13 6397   2.315   5.789  10.726 -0.4421  0.2142 -0.0204
   73SLPC   O14 6398   2.477   5.791  10.918  0.1726 -0.6031  0.4522
   73SLPC   O12 6399   2.466   5.602  10.758 -0.1070 -0.3249 -0.0704
   73SLPC   O11 6400   2.564   5.818  10.691 -0.2037  0.8421 -0.1644
   73SLPC    C1 6401   2.553   5.918  10.598  0.0401 -0.0039  0.2435
   73SLPC    HA 6402   2.449   5.956  10.601  0.6153  1.6665 -0.2136
   73SLPC    HB 6403   2.622   6.002  10.621  1.4843 -0.8636 -0.6985
   73SLPC    C2 6404   2.567   5.876  10.442 -0.1967  0.0233 -0.4386
   73SLPC    HS 6405   2.671   5.838  10.428 -0.7453 -1.1229 -1.5009
   73SLPC   O21 6406   2.544   5.996  10.363 -0.1053 -0.2122 -0.8272
   73SLPC   C21 6407   2.653   6.065  10.322 -0.1088  0.0005 -0.3713
   73SLPC   O22 6408   2.769   6.042  10.346  0.0562  0.0077  0.0788
   73SLPC   C22 6409   2.608   6.168  10.213 -0.2884  0.0541 -0.4860
   73SLPC   H2R 6410   2.506   6.142  10.178  1.2061 -1.8205 -3.9829
   73SLPC   H2S 6411   2.624   6.266  10.264  0.1032  0.0841 -0.6586
   73SLPC    C3 6412   2.466   5.765  10.405  1.2667  0.5643  0.1811
   73SLPC    HX 6413   2.363   5.799  10.429  0.5034 -1.2999 -0.2617
   73SLPC    HY 6414   2.487   5.680  10.473 -2.1840  0.8838  1.8687
   73SLPC   O31 6415   2.481   5.722  10.269 -0.8648 -0.5543  0.2537
   73SLPC   C31 6416   2.395   5.763  10.190 -0.3075 -0.0999  0.2617
   73SLPC   O32 6417   2.304   5.842  10.204 -0.7370  0.0119  0.2386
   73SLPC   C32 6418   2.422   5.698  10.056 -0.3890 -0.5597  0.1167
   73SLPC   H2X 6419   2.447   5.594  10.086 -0.2036  0.3988  3.7671
   73SLPC   H2Y 6420   2.512   5.750  10.017 -0.8106  1.2193  1.3983
   73SLPC   C23 6421   2.685   6.165  10.085 -0.1419 -0.6174  0.5552
   73SLPC   H3R 6422   2.794   6.160  10.106 -0.0296  3.6119  2.0655
   73SLPC   H3S 6423   2.665   6.260  10.030  2.5112 -1.2229 -1.6869
   73SLPC   C24 6424   2.651   6.054   9.991 -0.8427  0.0023  0.9509
   73SLPC   H4R 6425   2.545   6.049   9.956 -0.4953 -1.2507  0.0311
   73SLPC   H4S 6426   2.663   5.953  10.037  0.2706  0.8733  2.6830
   73SLPC   C25 6427   2.719   6.070   9.856  0.3125 -0.2625  0.4411
   73SLPC   H5R 6428   2.813   6.123   9.880  0.4949 -0.2328 -0.3143
   73SLPC   H5S 6429   2.659   6.141   9.795  1.3498  1.7790  1.6918
   73SLPC   C26 6430   2.753   5.940   9.781  0.6296 -0.2026  0.0891
   73SLPC   H6R 6431   2.828   5.893   9.849 -0.9394 -1.1600  1.2238
   73SLPC   H6S 6432   2.811   5.965   9.690  1.0389 -1.8815 -0.1437
   73SLPC   C27 6433   2.637   5.842   9.737  0.3661 -0.6342  0.1374
   73SLPC   H7R 6434   2.590   5.801   9.828  1.0896 -1.0076  0.3490
   73SLPC   H7S 6435   2.681   5.757   9.680  0.2217 -0.4225 -0.3011
   73SLPC   C28 6436   2.519   5.903   9.664 -0.3528 -0.3132  0.4236
   73SLPC   H8R 6437   2.462   5.964   9.737  1.7431 -0.2967  2.1202
   73SLPC   H8S 6438   2.452   5.816   9.643 -0.7764 -0.3778  1.9012
   73SLPC   C29 6439   2.566   5.987   9.545  0.6363 -0.5152 -0.1370
   73SLPC   H9R 6440   2.601   6.087   9.574  0.1693 -0.9838  2.2553
   73SLPC  C210 6441   2.561   5.943   9.417  0.6064 -0.1416 -0.6664
   73SLPC  H10R 6442   2.589   6.018   9.340 -0.1667  2.9877  1.8653
   73SLPC  C211 6443   2.487   5.822   9.373  0.0365  0.0702 -0.3130
   73SLPC  H11R 6444   2.377   5.823   9.388 -0.2355  0.2722 -2.0647
   73SLPC  H11S 6445   2.522   5.732   9.428  0.0568  1.8006  2.6870
   73SLPC  C212 6446   2.503   5.803   9.222  0.2915 -0.2472 -0.4359
   73SLPC  H12R 6447   2.430   5.857   9.159  1.0281  0.7120 -0.4935
   73SLPC  C213 6448   2.592   5.723   9.159  0.5606  0.0645 -0.0724
   73SLPC  H13R 6449   2.596   5.729   9.049  0.4372 -0.2819 -0.0967
   73SLPC  C214 6450   2.699   5.646   9.224  0.1040 -0.1369 -0.6683
   73SLPC  H14R 6451   2.667   5.549   9.268 -0.0969  0.7208  1.2145
   73SLPC  H14S 6452   2.754   5.698   9.306  0.0099  0.1029 -0.7560
   73SLPC  C215 6453   2.820   5.607   9.136 -0.3919  0.0799  1.4488
   73SLPC  H15R 6454   2.784   5.527   9.067 -1.1456  1.1332  0.5645
   73SLPC  H15S 6455   2.906   5.564   9.191 -0.3682 -0.3043  1.1207
   73SLPC  C216 6456   2.870   5.719   9.041  0.0701 -0.4135 -0.1023
   73SLPC  H16R 6457   2.900   5.794   9.118  0.0742 -0.5087 -0.0109
   73SLPC  H16S 6458   2.788   5.761   8.980 -0.8093 -1.9755 -0.0283
   73SLPC  C217 6459   2.992   5.687   8.952 -0.1435  0.0150 -0.2521
   73SLPC  H17R 6460   3.076   5.645   9.012 -0.7223  1.3588  1.5929
   73SLPC  H17S 6461   3.031   5.781   8.907 -3.3064  1.4746 -0.1973
   73SLPC  C218 6462   2.945   5.574   8.856 -0.4227 -0.1420 -0.4947
   73SLPC  H18R 6463   2.971   5.481   8.912 -0.3033  1.0846  1.6164
   73SLPC  H18S 6464   3.004   5.572   8.762 -1.9732 -3.0333 -1.5324
   73SLPC  H18T 6465   2.837   5.582   8.832 -0.3566 -0.5816 -0.9483
   73SLPC   C33 6466   2.301   5.704   9.959  0.5931 -0.1690 -0.0200
   73SLPC   H3X 6467   2.284   5.808   9.923 -0.9219 -1.1224 -2.2755
   73SLPC   H3Y 6468   2.210   5.666  10.010  0.3528 -0.5675 -0.7358
   73SLPC   C34 6469   2.316   5.610   9.842 -0.1982  1.1783 -0.1384
   73SLPC   H4X 6470   2.322   5.501   9.866  1.9071  0.6372 -2.6388
   73SLPC   H4Y 6471   2.414   5.628   9.793  1.3199 -0.5600  2.0710
   73SLPC   C35 6472   2.223   5.621   9.727 -0.2905 -0.3737 -0.8272
   73SLPC   H5X 6473   2.224   5.728   9.697 -0.5241 -0.6733 -1.9189
   73SLPC   H5Y 6474   2.119   5.592   9.756 -1.7372  3.3355 -1.7018
   73SLPC   C36 6475   2.261   5.541   9.604 -0.3120 -0.0657  0.1358
   73SLPC   H6X 6476   2.261   5.430   9.616 -0.7712 -0.4584 -2.8334
   73SLPC   H6Y 6477   2.370   5.554   9.590 -0.0677 -1.4663  0.5398
   73SLPC   C37 6478   2.195   5.579   9.474 -0.2366 -0.7302 -0.2036
   73SLPC   H7X 6479   2.203   5.688   9.458  2.5150 -0.6982  0.8964
   73SLPC   H7Y 6480   2.087   5.563   9.497 -0.3550  0.5069  0.1500
   73SLPC   C38 6481   2.244   5.513   9.351 -0.7939  0.5918 -0.0667
   73SLPC   H8X 6482   2.248   5.402   9.359  1.1553  0.7153  1.6566
   73SLPC   H8Y 6483   2.347   5.543   9.321  0.3241 -1.2413  1.6709
   73SLPC   C39 6484   2.149   5.543   9.237 -0.4622  0.6377 -0.2687
   73SLPC   H9X 6485   2.149   5.651   9.210 -3.4794  0.6740 -0.5220
   73SLPC   H9Y 6486   2.047   5.522   9.277  0.4041  1.2767  2.4729
   73SLPC  C310 6487   2.172   5.451   9.117  0.5504 -0.3516  0.8559
   73SLPC  H10X 6488   2.145   5.345   9.137 -1.9430 -0.1640 -0.9862
   73SLPC  H10Y 6489   2.275   5.443   9.076  0.6697 -0.1686  1.1144
   73SLPC  C311 6490   2.078   5.488   9.001 -0.1365 -0.0181 -0.0638
   73SLPC  H11X 6491   1.990   5.553   9.017 -0.0958  0.4630 -1.6789
   73SLPC  H11Y 6492   2.042   5.393   8.956  1.2338  0.0658 -1.4501
   73SLPC  C312 6493   2.160   5.547   8.882 -0.2097  0.0568 -0.6109
   73SLPC  H12X 6494   2.087   5.581   8.805 -1.4784  1.8096  1.2751
   73SLPC  H12Y 6495   2.236   5.477   8.843  1.0926  0.7348  0.6333
   73SLPC  C313 6496   2.246   5.667   8.922  0.3274  0.7101 -0.0588
   73SLPC  H13X 6497   2.348   5.631   8.948 -0.4469 -1.6717 -0.0560
   73SLPC  H13Y 6498   2.179   5.712   8.997 -0.9596  0.1792 -0.8499
   73SLPC  C314 6499   2.249   5.771   8.809 -0.1334 -0.7703 -0.0002
   73SLPC  H14X 6500   2.147   5.815   8.802  0.0200 -0.6712 -2.9798
   73SLPC  H14Y 6501   2.287   5.744   8.708  1.0728 -0.1263  0.2573
   73SLPC  C315 6502   2.345   5.889   8.841  0.3002  0.0711  0.0717
   73SLPC  H15X 6503   2.348   5.912   8.950 -1.0789 -2.7995  0.8075
   73SLPC  H15Y 6504   2.318   5.984   8.791  0.3420  1.0504  1.8024
   73SLPC  C316 6505   2.492   5.844   8.816  0.1289  0.4671  0.1209
   73SLPC  H16X 6506   2.498   5.828   8.706  2.7088 -1.0345  0.3994
   73SLPC  H16Y 6507   2.517   5.743   8.855  0.8689  0.3247 -0.6945
   73SLPC  C317 6508   2.600   5.950   8.846 -0.2459  0.2600 -0.3662
   73SLPC  H17X 6509   2.698   5.918   8.805 -0.5889 -0.9886 -0.2522
   73SLPC  H17Y 6510   2.606   5.940   8.957 -0.3727 -2.0409 -0.5249
   73SLPC  C318 6511   2.567   6.098   8.803  0.1101  0.1127  0.5007
   73SLPC  H18X 6512   2.655   6.165   8.801  0.1276  0.2034 -3.7542
   73SLPC  H18Y 6513   2.485   6.138   8.867 -1.0426 -1.5589  0.1531
   73SLPC  H18Z 6514   2.530   6.094   8.698 -1.7040 -0.0321  1.0987
   74SLPC     N 6515   3.954   0.935  10.867  0.3882  0.0421 -0.5085
   74SLPC   C13 6516   4.059   0.991  10.959  0.2068  0.6186 -0.0331
   74SLPC  H13A 6517   4.025   0.986  11.062 -0.5465 -2.1337 -0.3247
   74SLPC  H13B 6518   4.160   0.956  10.941 -0.0570  0.1483 -0.6445
   74SLPC  H13C 6519   4.061   1.093  10.925 -0.6039  0.9240  0.8105
   74SLPC   C14 6520   3.832   1.019  10.870 -0.1099 -0.0443  0.3695
   74SLPC  H14A 6521   3.797   1.021  10.972 -2.5134 -0.8030 -0.3835
   74SLPC  H14B 6522   3.852   1.121  10.839 -2.5337  0.5460  0.5379
   74SLPC  H14C 6523   3.756   0.985  10.802 -0.5320  0.0264  0.8065
   74SLPC   C15 6524   3.908   0.807  10.922  0.7296  0.1164  0.1510
   74SLPC  H15A 6525   3.981   0.727  10.915  0.4634 -0.1006 -0.2439
   74SLPC  H15B 6526   3.882   0.816  11.026 -1.8805 -0.8975 -0.3283
   74SLPC  H15C 6527   3.816   0.780  10.872 -0.4444  2.6362  0.8236
   74SLPC   C12 6528   3.999   0.918  10.721 -0.8211 -0.1267 -0.3233
   74SLPC  H12A 6529   3.923   0.865  10.666 -1.2857 -0.3672  0.5368
   74SLPC  H12B 6530   4.084   0.852  10.723  0.3856  1.3706  0.6785
   74SLPC   C11 6531   4.031   1.049  10.643  0.1046 -0.3782  0.0152
   74SLPC  H11A 6532   3.935   1.104  10.634  0.4205 -0.0049 -1.3037
   74SLPC  H11B 6533   4.054   1.017  10.540 -1.6240  2.2188 -1.2841
   74SLPC     P 6534   4.278   1.091  10.698  0.1599  0.3771  0.3091
   74SLPC   O13 6535   4.340   1.118  10.823 -0.3870 -0.0219 -0.4123
   74SLPC   O14 6536   4.294   0.950  10.652  0.2164 -0.5409  0.0175
   74SLPC   O12 6537   4.134   1.132  10.702  0.5014 -0.0859 -0.2548
   74SLPC   O11 6538   4.327   1.185  10.587  0.2315  0.6968 -0.5260
   74SLPC    C1 6539   4.258   1.271  10.497 -0.1975 -0.5972 -0.0097
   74SLPC    HA 6540   4.148   1.275  10.518 -0.0740 -1.3867  0.8588
   74SLPC    HB 6541   4.289   1.375  10.522 -0.7406 -0.2699 -0.6676
   74SLPC    C2 6542   4.291   1.246  10.339  0.2029 -0.0063  0.4656
   74SLPC    HS 6543   4.273   1.333  10.273  1.2299  0.6540  1.0206
   74SLPC   O21 6544   4.208   1.137  10.295  0.4697 -0.2997  0.1422
   74SLPC   C21 6545   4.088   1.166  10.247 -0.5895 -0.2787  0.0210
   74SLPC   O22 6546   4.031   1.277  10.251 -0.1420 -0.5404  0.1912
   74SLPC   C22 6547   4.031   1.045  10.193 -0.5005  0.5639  0.0108
   74SLPC   H2R 6548   4.091   0.952  10.201  0.6504  0.6727 -4.5295
   74SLPC   H2S 6549   3.940   1.024  10.254  0.1503 -0.5565  0.6296
   74SLPC    C3 6550   4.442   1.210  10.331  0.1712  0.0682 -0.2269
   74SLPC    HX 6551   4.460   1.111  10.378 -0.4716 -0.7990 -1.7242
   74SLPC    HY 6552   4.509   1.280  10.386  1.0375 -1.8199  1.2286
   74SLPC   O31 6553   4.470   1.209  10.188 -0.4155  0.1601  0.1550
   74SLPC   C31 6554   4.488   1.327  10.123 -0.3937 -0.3874  0.1979
   74SLPC   O32 6555   4.490   1.437  10.177  0.2541 -0.3133 -0.2821
   74SLPC   C32 6556   4.480   1.315   9.980 -0.2610 -0.4448  0.6655
   74SLPC   H2X 6557   4.424   1.224   9.948 -0.3849 -1.5017  3.6267
   74SLPC   H2Y 6558   4.577   1.317   9.926 -0.6053  0.7051  0.0547
   74SLPC   C23 6559   3.992   1.055  10.044  0.4076  0.7455 -0.6835
   74SLPC   H3R 6560   4.075   1.095   9.981  0.4723 -0.1119 -1.1638
   74SLPC   H3S 6561   3.908   1.128  10.047  0.1393  0.7453 -4.0174
   74SLPC   C24 6562   3.952   0.917  10.004  0.3691  0.1074 -0.3841
   74SLPC   H4R 6563   3.864   0.878  10.058  0.3912  0.7044  0.1063
   74SLPC   H4S 6564   4.034   0.847  10.030 -0.9391 -1.1595  0.4873
   74SLPC   C25 6565   3.920   0.897   9.853 -0.8829  0.3552  0.5544
   74SLPC   H5R 6566   3.896   0.789   9.844  1.4501 -0.2271  0.6349
   74SLPC   H5S 6567   4.011   0.912   9.791 -0.3192 -1.1875  0.9560
   74SLPC   C26 6568   3.806   0.987   9.791  0.1054  0.4564  0.3274
   74SLPC   H6R 6569   3.782   0.962   9.685  0.4713 -1.3606  0.6430
   74SLPC   H6S 6570   3.852   1.088   9.790  0.7307  0.1730  0.1794
   74SLPC   C27 6571   3.670   0.985   9.866  0.2583 -0.4367  1.1432
   74SLPC   H7R 6572   3.682   1.051   9.955  0.6550  1.7460 -0.4760
   74SLPC   H7S 6573   3.640   0.884   9.903  0.0519 -0.2292  1.5541
   74SLPC   C28 6574   3.552   1.035   9.781 -1.0343 -0.1571  0.3660
   74SLPC   H8R 6575   3.511   0.956   9.715 -1.3842 -2.4560  3.1344
   74SLPC   H8S 6576   3.597   1.116   9.719 -1.4564 -1.2480 -1.4567
   74SLPC   C29 6577   3.456   1.102   9.868  1.0775  0.1820 -0.4998
   74SLPC   H9R 6578   3.502   1.154   9.954 -0.2416 -1.8373  1.5612
   74SLPC  C210 6579   3.323   1.115   9.845 -0.8168 -0.3738  0.2904
   74SLPC  H10R 6580   3.253   1.158   9.918 -2.6837 -0.6776 -1.2214
   74SLPC  C211 6581   3.245   1.046   9.740  0.1427  0.3258  0.1877
   74SLPC  H11R 6582   3.223   0.943   9.773  2.3009 -1.1425 -2.5753
   74SLPC  H11S 6583   3.302   1.015   9.650 -0.7449 -1.4659  0.1966
   74SLPC  C212 6584   3.110   1.096   9.690 -0.1105  0.0010 -0.2056
   74SLPC  H12R 6585   3.028   1.026   9.709 -0.6637  0.6849 -0.0316
   74SLPC  C213 6586   3.074   1.211   9.624 -0.1695 -0.3815  0.0183
   74SLPC  H13R 6587   2.969   1.240   9.606  0.0806 -0.0723 -1.0353
   74SLPC  C214 6588   3.171   1.323   9.587  0.3493  0.1133 -0.5478
   74SLPC  H14R 6589   3.263   1.326   9.650 -1.2349  3.0723  1.9433
   74SLPC  H14S 6590   3.127   1.423   9.606  1.2154  0.8225 -2.1049
   74SLPC  C215 6591   3.208   1.317   9.440  0.1273 -0.5609  0.0211
   74SLPC  H15R 6592   3.240   1.419   9.410 -0.6542 -0.5525 -0.8170
   74SLPC  H15S 6593   3.129   1.284   9.370  1.0506  1.6506 -2.2475
   74SLPC  C216 6594   3.340   1.245   9.412 -0.2505 -0.7509  0.6061
   74SLPC  H16R 6595   3.338   1.136   9.434  1.6672 -1.3854 -1.8818
   74SLPC  H16S 6596   3.424   1.280   9.475  0.9224 -2.0470 -0.1673
   74SLPC  C217 6597   3.376   1.255   9.265 -0.7536 -0.1047  0.5000
   74SLPC  H17R 6598   3.409   1.359   9.247  0.0013 -0.2424  1.0155
   74SLPC  H17S 6599   3.288   1.236   9.200  0.6716 -1.1250 -1.2665
   74SLPC  C218 6600   3.493   1.157   9.234  0.0818 -0.2793 -0.6079
   74SLPC  H18R 6601   3.463   1.052   9.257 -0.1104 -0.2610 -0.7746
   74SLPC  H18S 6602   3.576   1.168   9.308 -0.3675 -2.6533  0.3729
   74SLPC  H18T 6603   3.529   1.179   9.132  0.4361 -2.3561 -0.9886
   74SLPC   C33 6604   4.402   1.430   9.914 -0.1671 -1.0359 -0.5291
   74SLPC   H3X 6605   4.453   1.527   9.930 -1.9892  0.0674 -1.1143
   74SLPC   H3Y 6606   4.304   1.431   9.965 -0.5290 -3.0507 -1.0852
   74SLPC   C34 6607   4.381   1.419   9.764  0.7437 -0.0148  0.1468
   74SLPC   H4X 6608   4.471   1.388   9.707  0.9754  1.2758 -0.2226
   74SLPC   H4Y 6609   4.356   1.519   9.723  0.3003  0.1316  0.7611
   74SLPC   C35 6610   4.261   1.326   9.736  0.0320  0.5668 -0.4233
   74SLPC   H5X 6611   4.168   1.358   9.788  0.6320  0.7100  0.5880
   74SLPC   H5Y 6612   4.298   1.236   9.790 -2.1751 -0.2842 -0.1855
   74SLPC   C36 6613   4.239   1.310   9.585  0.1248  0.0018  0.3451
   74SLPC   H6X 6614   4.323   1.280   9.519 -1.6646 -1.7039 -1.3085
   74SLPC   H6Y 6615   4.209   1.414   9.562  2.5036  0.3392 -1.6503
   74SLPC   C37 6616   4.138   1.203   9.561 -0.4614  1.0074 -0.1002
   74SLPC   H7X 6617   4.038   1.221   9.606 -0.0976  2.9383  0.0272
   74SLPC   H7Y 6618   4.167   1.110   9.615 -1.5545  1.3543  1.1492
   74SLPC   C38 6619   4.136   1.169   9.408 -0.0931  0.5522 -0.3081
   74SLPC   H8X 6620   4.223   1.113   9.368 -1.5719 -1.3250 -1.0470
   74SLPC   H8Y 6621   4.138   1.269   9.361 -2.2957  0.9853  0.3831
   74SLPC   C39 6622   4.002   1.100   9.364 -0.1928 -0.2303 -0.3619
   74SLPC   H9X 6623   3.917   1.169   9.386  0.4515  1.0440 -1.7324
   74SLPC   H9Y 6624   3.968   1.010   9.420 -1.5984  0.5644  0.1154
   74SLPC  C310 6625   4.018   1.076   9.215  0.8451 -0.0091 -0.5202
   74SLPC  H10X 6626   4.110   1.020   9.189 -0.4203 -1.5524 -1.8395
   74SLPC  H10Y 6627   4.043   1.171   9.164  1.2695  0.4671  0.5291
   74SLPC  C311 6628   3.894   1.007   9.151  0.3180  0.3513  0.3708
   74SLPC  H11X 6629   3.813   1.083   9.147  2.0577  2.3403  0.9537
   74SLPC  H11Y 6630   3.861   0.923   9.216  3.4604 -1.3580 -0.0584
   74SLPC  C312 6631   3.916   0.948   9.006  0.2101 -0.2602  0.7983
   74SLPC  H12X 6632   3.999   0.876   8.995  0.9113  0.9255 -3.2397
   74SLPC  H12Y 6633   3.935   1.032   8.936 -0.4409 -1.4340 -0.8556
   74SLPC  C313 6634   3.791   0.865   8.951 -0.6089 -0.6194 -0.2243
   74SLPC  H13X 6635   3.700   0.883   9.012 -0.0198 -2.3830  1.2748
   74SLPC  H13Y 6636   3.811   0.759   8.977  0.6899 -0.2504  0.4136
   74SLPC  C314 6637   3.773   0.870   8.798  0.1206 -0.5944  0.5031
   74SLPC  H14X 6638   3.761   0.976   8.766 -0.0915 -0.7663  0.0082
   74SLPC  H14Y 6639   3.673   0.828   8.773 -0.6995  1.3091  0.4161
   74SLPC  C315 6640   3.886   0.787   8.729  0.2535 -0.4783  1.1417
   74SLPC  H15X 6641   3.871   0.686   8.775  1.0192 -0.5672  1.2033
   74SLPC  H15Y 6642   3.981   0.827   8.770 -0.1430  3.2646 -1.1500
   74SLPC  C316 6643   3.896   0.783   8.575  0.5292 -0.8556 -0.1597
   74SLPC  H16X 6644   3.955   0.866   8.530 -1.2838  1.0485  0.8178
   74SLPC  H16Y 6645   3.788   0.782   8.551  0.7917 -1.7788 -1.3717
   74SLPC  C317 6646   3.949   0.648   8.518  0.5476  0.3713  0.3820
   74SLPC  H17X 6647   4.033   0.615   8.582 -0.0065  0.1575  1.0166
   74SLPC  H17Y 6648   3.971   0.653   8.409 -0.8006 -3.5980 -0.2500
   74SLPC  C318 6649   3.834   0.549   8.522  0.3726 -0.4873  0.2905
   74SLPC  H18X 6650   3.737   0.578   8.476  0.6322  1.6855  1.0160
   74SLPC  H18Y 6651   3.801   0.536   8.627 -1.1439 -1.1588 -0.2391
   74SLPC  H18Z 6652   3.881   0.457   8.480 -1.4851 -0.1956 -2.7273
   75SLPC     N 6653   5.753   3.854   5.806  0.7282 -0.5015 -0.1810
   75SLPC   C13 6654   5.762   3.723   5.730 -0.4793 -0.0823  0.1833
   75SLPC  H13A 6655   5.859   3.705   5.685  1.7800 -4.2078  5.5253
   75SLPC  H13B 6656   5.748   3.645   5.803 -0.1646  0.0290  0.3615
   75SLPC  H13C 6657   5.684   3.708   5.657 -1.6990 -0.8270  1.5868
   75SLPC   C14 6658   5.748   3.961   5.702  0.4147  0.4241  0.3256
   75SLPC  H14A 6659   5.752   4.064   5.735  2.8613  1.6783 -3.2547
   75SLPC  H14B 6660   5.832   3.955   5.634 -0.2363 -0.6874 -0.4167
   75SLPC  H14C 6661   5.665   3.944   5.634 -1.5152 -2.6612  3.1688
   75SLPC   C15 6662   5.881   3.867   5.888  0.0793 -0.2373  0.4086
   75SLPC  H15A 6663   5.961   3.879   5.817 -0.9190 -2.0138 -1.1017
   75SLPC  H15B 6664   5.873   3.948   5.959 -1.5275  1.3979 -1.5193
   75SLPC  H15C 6665   5.913   3.778   5.941  0.7821 -0.5325 -0.4837
   75SLPC   C12 6666   5.636   3.868   5.902 -0.9404 -0.3044  0.0993
   75SLPC  H12A 6667   5.659   3.794   5.977 -0.9290 -1.7500 -1.2796
   75SLPC  H12B 6668   5.536   3.846   5.869 -0.3820  1.7814 -3.5087
   75SLPC   C11 6669   5.625   4.005   5.965  0.1198 -0.1908 -0.4189
   75SLPC  H11A 6670   5.725   4.050   5.986 -0.2780  0.0554  1.1000
   75SLPC  H11B 6671   5.568   3.988   6.059  0.0293  0.6051 -0.3245
   75SLPC     P 6672   5.408   4.071   5.828  0.0112 -0.1983  0.0436
   75SLPC   O13 6673   5.405   4.165   5.714 -0.7072 -0.6026  0.0532
   75SLPC   O14 6674   5.365   3.929   5.816  0.2512 -0.3844  0.1353
   75SLPC   O12 6675   5.555   4.092   5.885  0.4259 -0.0945  0.4810
   75SLPC   O11 6676   5.319   4.148   5.930 -0.3086  0.0165 -0.1803
   75SLPC    C1 6677   5.259   4.113   6.054  0.0219  0.4648  0.6492
   75SLPC    HA 6678   5.160   4.165   6.048 -0.8673 -1.1925  0.3797
   75SLPC    HB 6679   5.236   4.005   6.068 -2.4860  0.7535 -0.6443
   75SLPC    C2 6680   5.326   4.177   6.178 -0.3640  0.0331 -0.0496
   75SLPC    HS 6681   5.434   4.151   6.167  0.4770  1.2693  3.7187
   75SLPC   O21 6682   5.277   4.125   6.298  0.1021  0.4856  0.0144
   75SLPC   C21 6683   5.359   4.139   6.404 -0.1235 -0.5698 -0.2086
   75SLPC   O22 6684   5.481   4.167   6.395  0.4590 -0.5191  0.9981
   75SLPC   C22 6685   5.284   4.107   6.531 -0.1378  0.2850 -0.4138
   75SLPC   H2R 6686   5.212   4.192   6.537  1.1243  1.3959 -0.5347
   75SLPC   H2S 6687   5.235   4.009   6.511  0.6315 -0.2269  0.1559
   75SLPC    C3 6688   5.298   4.328   6.166  0.5394  0.2699 -0.0170
   75SLPC    HX 6689   5.190   4.342   6.186 -0.1370 -1.9524 -1.8231
   75SLPC    HY 6690   5.316   4.355   6.060  1.3263 -1.2257 -0.2885
   75SLPC   O31 6691   5.385   4.392   6.264 -0.2899  0.4566  0.4571
   75SLPC   C31 6692   5.375   4.523   6.273  0.1122  0.1505  0.3460
   75SLPC   O32 6693   5.290   4.595   6.223 -0.5942  0.1043 -0.1912
   75SLPC   C32 6694   5.500   4.581   6.348 -0.3271 -0.4034 -0.1996
   75SLPC   H2X 6695   5.536   4.673   6.299  0.0798  1.4099  3.2340
   75SLPC   H2Y 6696   5.576   4.500   6.341 -1.5575 -1.6165 -0.2167
   75SLPC   C23 6697   5.367   4.097   6.657 -0.0945  0.0201  0.1600
   75SLPC   H3R 6698   5.401   4.198   6.686  1.3852 -0.4565  0.1471
   75SLPC   H3S 6699   5.459   4.035   6.650 -0.7829 -0.9963 -0.0974
   75SLPC   C24 6700   5.289   4.051   6.782 -0.2602  0.0200 -0.5538
   75SLPC   H4R 6701   5.256   3.952   6.746 -2.2193  0.9028 -1.3132
   75SLPC   H4S 6702   5.199   4.115   6.795  0.3419  1.3265 -2.3745
   75SLPC   C25 6703   5.382   4.035   6.903 -0.3334  0.6519  1.2009
   75SLPC   H5R 6704   5.427   4.134   6.927  0.2668  0.8822 -0.6830
   75SLPC   H5S 6705   5.472   3.981   6.867 -0.2984  1.3627  0.1772
   75SLPC   C26 6706   5.319   3.975   7.024 -0.6174 -0.0765  0.1633
   75SLPC   H6R 6707   5.254   3.889   6.994  1.1209 -1.5113  0.3577
   75SLPC   H6S 6708   5.259   4.042   7.089 -1.7179 -0.9609  0.0938
   75SLPC   C27 6709   5.438   3.930   7.115  0.2662  0.9581 -0.2090
   75SLPC   H7R 6710   5.501   4.013   7.155 -1.5170  1.9185  0.7570
   75SLPC   H7S 6711   5.503   3.871   7.048 -0.2611  0.0728  0.0474
   75SLPC   C28 6712   5.383   3.840   7.224 -0.5629  0.3948  0.8391
   75SLPC   H8R 6713   5.467   3.777   7.262  0.9331  0.3193 -2.1968
   75SLPC   H8S 6714   5.302   3.770   7.195 -1.3965  1.1605  1.2649
   75SLPC   C29 6715   5.325   3.926   7.327  0.0470 -0.5461 -0.0694
   75SLPC   H9R 6716   5.240   3.987   7.291  0.6565 -0.2770 -1.1147
   75SLPC  C210 6717   5.363   3.936   7.460 -0.1155 -0.0695  0.4246
   75SLPC  H10R 6718   5.301   3.980   7.539  2.2938 -0.0389  2.4241
   75SLPC  C211 6719   5.478   3.866   7.528 -0.5165 -0.6749 -0.3187
   75SLPC  H11R 6720   5.543   3.940   7.580 -0.1110 -0.4906 -1.0677
   75SLPC  H11S 6721   5.549   3.821   7.456 -1.3084 -1.3924 -0.6616
   75SLPC  C212 6722   5.426   3.761   7.625  0.7982 -0.0041 -0.1937
   75SLPC  H12R 6723   5.328   3.727   7.587 -0.7841  1.5877  2.1221
   75SLPC  C213 6724   5.470   3.727   7.750 -0.9812  0.6748  0.5575
   75SLPC  H13R 6725   5.417   3.647   7.804  1.1893 -0.9960  0.3635
   75SLPC  C214 6726   5.595   3.791   7.803  0.0731 -0.1387 -0.7901
   75SLPC  H14R 6727   5.564   3.834   7.901  1.7050 -0.4655 -0.1072
   75SLPC  H14S 6728   5.613   3.888   7.752 -0.8832  0.3412 -0.2562
   75SLPC  C215 6729   5.727   3.710   7.814  0.3185 -0.9101  0.4531
   75SLPC  H15R 6730   5.799   3.785   7.854 -0.9133  0.8047 -0.4362
   75SLPC  H15S 6731   5.748   3.677   7.710  0.4062  2.1567 -0.6213
   75SLPC  C216 6732   5.714   3.598   7.914  0.1971  0.7186 -0.1340
   75SLPC  H16R 6733   5.630   3.532   7.883  0.2460  1.3202 -1.6430
   75SLPC  H16S 6734   5.687   3.633   8.016 -1.6274 -0.3352 -0.2034
   75SLPC  C217 6735   5.835   3.499   7.917  0.0907 -0.2061  0.6232
   75SLPC  H17R 6736   5.873   3.490   7.813 -1.4962 -0.1098  0.0102
   75SLPC  H17S 6737   5.790   3.402   7.947 -3.1811  0.8125 -0.6160
   75SLPC  C218 6738   5.943   3.547   8.006 -0.3048 -1.1548 -0.7375
   75SLPC  H18R 6739   5.919   3.529   8.113  2.0333  0.8892  0.2208
   75SLPC  H18S 6740   5.980   3.649   7.984 -0.5574 -0.9133 -0.0727
   75SLPC  H18T 6741   6.031   3.484   7.982  0.8302  0.5492 -1.2409
   75SLPC   C33 6742   5.463   4.634   6.492 -0.0611  0.6486  0.1469
   75SLPC   H3X 6743   5.540   4.708   6.525  0.0164  1.0140 -0.8260
   75SLPC   H3Y 6744   5.363   4.679   6.475 -0.1690  0.1892 -0.4966
   75SLPC   C34 6745   5.458   4.508   6.576  0.0583  0.5238  0.0127
   75SLPC   H4X 6746   5.549   4.448   6.554 -2.1548 -1.8849 -3.6977
   75SLPC   H4Y 6747   5.373   4.438   6.561 -0.3932  0.4940  2.3705
   75SLPC   C35 6748   5.450   4.542   6.730  0.2558 -0.5570  0.4344
   75SLPC   H5X 6749   5.361   4.606   6.748 -1.0234 -1.8668 -0.9883
   75SLPC   H5Y 6750   5.537   4.606   6.757 -0.3147  1.3830 -2.0024
   75SLPC   C36 6751   5.428   4.422   6.826  0.1624  0.7499 -0.1319
   75SLPC   H6X 6752   5.506   4.345   6.813 -0.0523  0.4172  0.4746
   75SLPC   H6Y 6753   5.330   4.378   6.798 -0.2064  0.0020  2.1337
   75SLPC   C37 6754   5.407   4.450   6.974  0.4207  0.1388 -0.0688
   75SLPC   H7X 6755   5.373   4.361   7.030  0.6390 -0.4250 -0.8123
   75SLPC   H7Y 6756   5.328   4.527   6.991 -0.3681 -0.5270 -0.6355
   75SLPC   C38 6757   5.539   4.503   7.028 -0.0265 -0.0184 -0.2844
   75SLPC   H8X 6758   5.576   4.594   6.977  0.7995 -0.5178 -0.5975
   75SLPC   H8Y 6759   5.615   4.427   7.001  2.4540  2.7498 -1.5331
   75SLPC   C39 6760   5.538   4.544   7.178 -0.3306  0.8178  0.1769
   75SLPC   H9X 6761   5.466   4.628   7.193  2.4523  3.6110 -1.0423
   75SLPC   H9Y 6762   5.639   4.579   7.207  0.1872  1.1737 -1.9215
   75SLPC  C310 6763   5.476   4.427   7.268  0.0851  0.6073  0.4902
   75SLPC  H10X 6764   5.508   4.324   7.243 -1.4677 -0.5183  2.7603
   75SLPC  H10Y 6765   5.366   4.438   7.255 -0.0414 -1.6197 -0.9406
   75SLPC  C311 6766   5.512   4.435   7.417  0.8523  0.3645  0.0254
   75SLPC  H11X 6767   5.453   4.523   7.451 -0.1165  0.7979 -2.5432
   75SLPC  H11Y 6768   5.621   4.447   7.433  1.2058  0.4968 -2.1270
   75SLPC  C312 6769   5.450   4.315   7.484 -0.2087  0.1809  0.1225
   75SLPC  H12X 6770   5.432   4.225   7.421  0.5885 -0.2309  0.4636
   75SLPC  H12Y 6771   5.348   4.337   7.521 -0.5288 -1.7411  0.5050
   75SLPC  C313 6772   5.537   4.266   7.596  0.3081 -0.4921  0.3993
   75SLPC  H13X 6773   5.629   4.223   7.552  1.8027  0.3761  2.5061
   75SLPC  H13Y 6774   5.488   4.177   7.642 -0.1544  0.4964  1.9199
   75SLPC  C314 6775   5.547   4.361   7.719  0.1994  0.0610 -0.8637
   75SLPC  H14X 6776   5.450   4.395   7.761  0.0760 -0.0331 -1.0682
   75SLPC  H14Y 6777   5.600   4.456   7.695  2.2977 -0.0325  2.7778
   75SLPC  C315 6778   5.633   4.290   7.832  0.7683 -0.3856 -0.5069
   75SLPC  H15X 6779   5.740   4.293   7.802  1.5209 -2.5495  1.6690
   75SLPC  H15Y 6780   5.599   4.185   7.838  3.7387 -1.3643  1.4040
   75SLPC  C316 6781   5.612   4.363   7.965  0.9839  0.2354  0.3224
   75SLPC  H16X 6782   5.506   4.351   7.997  1.0395 -1.1770  0.0429
   75SLPC  H16Y 6783   5.632   4.472   7.956 -0.9114  0.7963  2.1997
   75SLPC  C317 6784   5.686   4.296   8.081  0.0856 -0.9050 -1.6774
   75SLPC  H17X 6785   5.793   4.286   8.055  0.4450  0.3892 -0.8123
   75SLPC  H17Y 6786   5.663   4.190   8.106 -3.2269 -0.0778 -0.7240
   75SLPC  C318 6787   5.668   4.372   8.209  0.0210 -0.8414 -0.6153
   75SLPC  H18X 6788   5.563   4.393   8.239  0.4819 -0.2854  0.7117
   75SLPC  H18Y 6789   5.714   4.471   8.187 -2.4227  0.3852 -0.5997
   75SLPC  H18Z 6790   5.718   4.324   8.296 -0.8900 -1.4434 -0.4154
   76SLPC     N 6791   6.051   4.535   5.660  0.3403  0.1742  0.5322
   76SLPC   C13 6792   5.912   4.551   5.722 -0.0110 -0.2526 -0.6497
   76SLPC  H13A 6793   5.908   4.651   5.763 -1.7617 -1.4074  2.3595
   76SLPC  H13B 6794   5.834   4.546   5.648 -1.0567 -0.3667  0.4269
   76SLPC  H13C 6795   5.891   4.479   5.801  0.5193 -0.0785 -0.3403
   76SLPC   C14 6796   6.068   4.615   5.529 -0.3855 -0.8537 -0.8081
   76SLPC  H14A 6797   6.169   4.605   5.493 -0.0801 -0.2207 -0.1520
   76SLPC  H14B 6798   5.998   4.580   5.454 -0.0848  2.7445 -2.9633
   76SLPC  H14C 6799   6.044   4.720   5.536 -0.3718 -0.9561  1.9192
   76SLPC   C15 6800   6.063   4.386   5.616  0.1464  0.4794  0.3673
   76SLPC  H15A 6801   5.982   4.363   5.549 -1.6187  1.6257  1.9568
   76SLPC  H15B 6802   6.154   4.373   5.560 -1.6263 -1.2378 -2.3330
   76SLPC  H15C 6803   6.078   4.325   5.704  0.5648  0.2749  0.1559
   76SLPC   C12 6804   6.161   4.567   5.757 -0.0701 -0.7806 -0.0807
   76SLPC  H12A 6805   6.167   4.674   5.769 -0.8265 -0.7157 -0.2227
   76SLPC  H12B 6806   6.256   4.545   5.711  0.0576 -0.4390  0.0178
   76SLPC   C11 6807   6.162   4.502   5.901  0.2833 -0.2085  0.0714
   76SLPC  H11A 6808   6.074   4.518   5.968  0.8147  0.0040  0.7249
   76SLPC  H11B 6809   6.240   4.558   5.956  1.0742  1.2163 -2.3263
   76SLPC     P 6810   6.335   4.303   5.885  0.3826  0.2313  0.0944
   76SLPC   O13 6811   6.326   4.159   5.852  0.2187  0.2388  0.6618
   76SLPC   O14 6812   6.427   4.387   5.806  0.3100  0.7270  0.6501
   76SLPC   O12 6813   6.182   4.364   5.890  0.3440  0.2112 -0.7124
   76SLPC   O11 6814   6.374   4.324   6.035  0.7171 -0.4067  0.1478
   76SLPC    C1 6815   6.289   4.280   6.141  0.4789 -0.5052  0.5404
   76SLPC    HA 6816   6.270   4.369   6.204  0.4669 -1.7547  2.3999
   76SLPC    HB 6817   6.187   4.250   6.109  0.7064  0.4685 -1.2160
   76SLPC    C2 6818   6.353   4.175   6.236  0.1150 -0.3227  0.3912
   76SLPC    HS 6819   6.331   4.074   6.196  1.1433 -0.9715  1.3942
   76SLPC   O21 6820   6.302   4.196   6.369  0.6010  0.4363  0.0559
   76SLPC   C21 6821   6.205   4.117   6.406 -0.3434 -0.6088  0.0288
   76SLPC   O22 6822   6.127   4.065   6.327  0.4060 -0.3334  1.1131
   76SLPC   C22 6823   6.205   4.102   6.556 -0.6097 -0.4590  0.5471
   76SLPC   H2R 6824   6.100   4.084   6.587 -1.6720  2.7750 -0.7484
   76SLPC   H2S 6825   6.265   4.011   6.577  3.3359  1.2988 -1.8375
   76SLPC    C3 6826   6.513   4.193   6.239  0.2783  0.2683 -0.1206
   76SLPC    HX 6827   6.538   4.301   6.249 -0.5787  0.4354  0.3233
   76SLPC    HY 6828   6.551   4.167   6.138  2.3497 -0.5100  0.8070
   76SLPC   O31 6829   6.581   4.114   6.343  0.9205 -0.1392 -0.5494
   76SLPC   C31 6830   6.658   4.179   6.434 -0.0834  0.0585  0.1735
   76SLPC   O32 6831   6.688   4.296   6.441  0.0387  0.4871 -0.1745
   76SLPC   C32 6832   6.702   4.078   6.543  0.7657  0.3137  0.3204
   76SLPC   H2X 6833   6.683   3.979   6.496  2.4355  0.5469 -0.9757
   76SLPC   H2Y 6834   6.622   4.099   6.617  1.0470  0.1832  0.6605
   76SLPC   C23 6835   6.271   4.222   6.629 -0.2366  0.3690 -0.2202
   76SLPC   H3R 6836   6.233   4.315   6.581  1.7874  1.3665 -0.0074
   76SLPC   H3S 6837   6.381   4.220   6.613 -0.3396 -2.4936 -1.0449
   76SLPC   C24 6838   6.228   4.196   6.778 -0.2545 -0.3459  0.5029
   76SLPC   H4R 6839   6.272   4.094   6.786  1.3833  0.3086  0.1888
   76SLPC   H4S 6840   6.118   4.201   6.790 -0.4174  2.6144 -1.2622
   76SLPC   C25 6841   6.296   4.294   6.869 -0.6243  1.1121  0.1225
   76SLPC   H5R 6842   6.244   4.392   6.879 -0.8163  0.8193  2.9684
   76SLPC   H5S 6843   6.398   4.312   6.830 -0.8028 -1.2957 -1.6777
   76SLPC   C26 6844   6.289   4.255   7.020 -0.5231  0.4427  0.1233
   76SLPC   H6R 6845   6.345   4.159   7.022 -1.5894 -0.1872  1.4636
   76SLPC   H6S 6846   6.190   4.222   7.058  0.5686 -1.2708  1.6637
   76SLPC   C27 6847   6.343   4.372   7.104  0.2118 -0.0777 -0.5658
   76SLPC   H7R 6848   6.266   4.452   7.095  0.5163  0.7346  2.7522
   76SLPC   H7S 6849   6.448   4.388   7.074  0.9194 -1.1524  1.1370
   76SLPC   C28 6850   6.357   4.355   7.254  0.2187  0.1669  0.0725
   76SLPC   H8R 6851   6.428   4.273   7.279 -0.3935 -0.3995 -0.0157
   76SLPC   H8S 6852   6.407   4.444   7.298  2.6064 -0.8853 -0.3813
   76SLPC   C29 6853   6.237   4.335   7.344  0.2033 -0.4905  0.2850
   76SLPC   H9R 6854   6.156   4.275   7.299 -0.7476  0.1970  1.0432
   76SLPC  C210 6855   6.207   4.401   7.457  0.1383 -0.9334  0.0801
   76SLPC  H10R 6856   6.111   4.378   7.506  0.0753 -0.7110  0.0626
   76SLPC  C211 6857   6.295   4.504   7.520 -0.0072 -0.3714  0.4242
   76SLPC  H11R 6858   6.248   4.603   7.500  2.2979  0.1630 -3.4140
   76SLPC  H11S 6859   6.401   4.502   7.488 -0.2823 -1.3633 -0.4951
   76SLPC  C212 6860   6.310   4.470   7.669 -0.3919 -0.5023  0.2084
   76SLPC  H12R 6861   6.274   4.372   7.703 -0.5095 -0.8161 -0.7821
   76SLPC  C213 6862   6.362   4.557   7.761 -0.2636  0.4628 -0.0380
   76SLPC  H13R 6863   6.357   4.522   7.865 -0.4472 -3.7095 -1.3002
   76SLPC  C214 6864   6.422   4.691   7.733  0.7121  0.8373 -0.0595
   76SLPC  H14R 6865   6.470   4.694   7.633 -0.0634  0.1155 -0.4688
   76SLPC  H14S 6866   6.494   4.716   7.814 -0.4525  0.7781  1.0203
   76SLPC  C215 6867   6.311   4.799   7.740  0.2104  0.9360  0.2691
   76SLPC  H15R 6868   6.270   4.804   7.842 -1.9051 -1.8643 -0.3311
   76SLPC  H15S 6869   6.227   4.772   7.673  0.5114  0.8107 -0.0659
   76SLPC  C216 6870   6.369   4.939   7.694  0.4114  0.4123  0.3341
   76SLPC  H16R 6871   6.480   4.932   7.704  0.2444 -1.2902  1.5148
   76SLPC  H16S 6872   6.349   5.017   7.771  1.9532 -0.6925  1.9503
   76SLPC  C217 6873   6.328   4.973   7.552  0.2748 -0.1202 -0.0126
   76SLPC  H17R 6874   6.223   5.011   7.549  0.0862 -0.6682 -0.6896
   76SLPC  H17S 6875   6.312   4.884   7.487 -0.4434  1.5867 -2.3145
   76SLPC  C218 6876   6.409   5.079   7.484  0.4761 -0.4203 -0.1181
   76SLPC  H18R 6877   6.349   5.126   7.403  0.2487 -0.8738 -0.2172
   76SLPC  H18S 6878   6.501   5.040   7.434  1.3853 -0.3498  1.4499
   76SLPC  H18T 6879   6.440   5.154   7.559  1.8284  0.6317 -1.6639
   76SLPC   C33 6880   6.850   4.082   6.572 -0.1978 -0.5357  0.3155
   76SLPC   H3X 6881   6.885   4.188   6.574 -0.4430 -0.4012 -1.4435
   76SLPC   H3Y 6882   6.901   4.021   6.495 -0.4448 -1.2984  0.7409
   76SLPC   C34 6883   6.878   4.016   6.703 -0.2801  0.6595 -0.5836
   76SLPC   H4X 6884   6.988   4.012   6.717  0.1706  2.5732 -2.9171
   76SLPC   H4Y 6885   6.838   3.913   6.703  0.7775  0.2294  0.6661
   76SLPC   C35 6886   6.826   4.102   6.823  0.4512  0.3639 -0.5365
   76SLPC   H5X 6887   6.715   4.096   6.834  0.3642 -1.4628 -2.0113
   76SLPC   H5Y 6888   6.858   4.207   6.807 -1.3064  0.9685 -0.2975
   76SLPC   C36 6889   6.886   4.051   6.951 -0.2563  0.0965  0.4682
   76SLPC   H6X 6890   6.880   4.136   7.023 -2.4706  0.2327  0.1829
   76SLPC   H6Y 6891   6.995   4.031   6.939  0.2197  2.1318  1.0360
   76SLPC   C37 6892   6.813   3.927   7.008 -0.7234 -0.3521  0.1440
   76SLPC   H7X 6893   6.802   3.845   6.933 -0.6413 -2.4692  2.3411
   76SLPC   H7Y 6894   6.710   3.958   7.036 -1.3558 -1.5429 -0.7047
   76SLPC   C38 6895   6.885   3.875   7.129 -0.0557  0.0735 -0.9792
   76SLPC   H8X 6896   6.990   3.848   7.105 -0.8375 -4.5422 -0.2354
   76SLPC   H8Y 6897   6.834   3.783   7.165  3.6301 -2.4163 -1.5754
   76SLPC   C39 6898   6.891   3.966   7.256 -0.4348  0.6662  0.3391
   76SLPC   H9X 6899   6.920   4.066   7.215  1.5523 -0.0677 -0.1259
   76SLPC   H9Y 6900   6.971   3.940   7.329  0.8107  2.2755 -0.3834
   76SLPC  C310 6901   6.765   3.990   7.325  0.0041  0.1646  0.4516
   76SLPC  H10X 6902   6.714   3.894   7.347 -1.7447  0.8528 -0.4131
   76SLPC  H10Y 6903   6.682   4.027   7.261 -0.5410 -0.7346  0.6170
   76SLPC  C311 6904   6.780   4.068   7.452 -0.1520 -0.8888  0.7543
   76SLPC  H11X 6905   6.686   4.078   7.510 -0.6925 -2.6823  0.2813
   76SLPC  H11Y 6906   6.800   4.171   7.416  0.8623 -0.4351  2.5334
   76SLPC  C312 6907   6.888   4.025   7.556 -0.0796  0.8150  0.0973
   76SLPC  H12X 6908   6.885   4.094   7.642 -1.0277  1.3829 -0.3666
   76SLPC  H12Y 6909   6.988   4.046   7.513  2.0865 -0.6624  4.0122
   76SLPC  C313 6910   6.891   3.874   7.611  0.2209  0.3315  0.1585
   76SLPC  H13X 6911   6.866   3.813   7.522 -0.8077  4.0376 -2.3590
   76SLPC  H13Y 6912   6.809   3.859   7.684  1.3736 -2.3246  1.0051
   76SLPC  C314 6913   7.019   3.830   7.679  0.1859  0.1942 -0.0331
   76SLPC  H14X 6914   7.048   3.905   7.755 -0.5245 -0.6515  1.0973
   76SLPC  H14Y 6915   7.102   3.833   7.605  0.2690  0.9229  0.0839
   76SLPC  C315 6916   6.993   3.690   7.742  0.0044 -1.2731  0.4264
   76SLPC  H15X 6917   6.965   3.620   7.660  2.6350 -2.0429  0.1190
   76SLPC  H15Y 6918   6.917   3.695   7.823 -0.8831  0.4309 -0.4485
   76SLPC  C316 6919   7.120   3.632   7.822 -0.0289 -0.6995  0.3983
   76SLPC  H16X 6920   7.147   3.703   7.903 -0.0094 -0.9400  0.6027
   76SLPC  H16Y 6921   7.205   3.604   7.757  0.0126  1.1932 -0.4120
   76SLPC  C317 6922   7.077   3.498   7.887 -1.0206 -0.4077 -0.3459
   76SLPC  H17X 6923   7.027   3.427   7.817 -0.6866 -0.3672 -0.6327
   76SLPC  H17Y 6924   7.004   3.529   7.964  1.7216  0.1391  2.2015
   76SLPC  C318 6925   7.194   3.416   7.946  0.2463  0.6293  0.6316
   76SLPC  H18X 6926   7.227   3.475   8.034 -2.0009 -0.0698  2.0288
   76SLPC  H18Y 6927   7.274   3.408   7.869  0.1274  0.0934  0.5538
   76SLPC  H18Z 6928   7.161   3.316   7.981 -2.2420  1.5414  1.1196
   77SLPC     N 6929   3.497   1.596   5.944 -0.1473  0.0550 -0.0355
   77SLPC   C13 6930   3.554   1.651   5.816  0.8243  0.0678 -0.0907
   77SLPC  H13A 6931   3.593   1.751   5.826  1.1944 -0.2283  1.6864
   77SLPC  H13B 6932   3.620   1.580   5.767  1.9670  0.1757  1.2459
   77SLPC  H13C 6933   3.467   1.662   5.753  0.9229 -0.6132 -0.3639
   77SLPC   C14 6934   3.453   1.460   5.913  0.2455  1.1540  0.4121
   77SLPC  H14A 6935   3.393   1.461   5.823  1.5588  1.1547 -0.4854
   77SLPC  H14B 6936   3.534   1.390   5.901 -1.3577 -1.0430  1.4129
   77SLPC  H14C 6937   3.398   1.410   5.992  1.3830  0.0106  0.5182
   77SLPC   C15 6938   3.378   1.677   5.979  0.0735  0.9038 -0.1323
   77SLPC  H15A 6939   3.326   1.651   6.070  0.9497  1.3897  0.5197
   77SLPC  H15B 6940   3.415   1.776   6.003  1.2629  0.3075  0.5867
   77SLPC  H15C 6941   3.312   1.675   5.893  1.3309  0.5278 -1.1182
   77SLPC   C12 6942   3.600   1.593   6.054  0.3197  0.4048  0.2032
   77SLPC  H12A 6943   3.674   1.519   6.028  0.9350  1.0348  0.1331
   77SLPC  H12B 6944   3.558   1.557   6.147 -1.9180  0.6734 -0.6324
   77SLPC   C11 6945   3.676   1.721   6.073 -0.4334 -0.2814 -0.3289
   77SLPC  H11A 6946   3.724   1.758   5.980 -0.9972  0.2594 -0.4136
   77SLPC  H11B 6947   3.763   1.716   6.142 -0.3327 -0.4396 -0.4682
   77SLPC     P 6948   3.556   1.814   6.273 -0.1435  0.2245  0.1429
   77SLPC   O13 6949   3.613   1.926   6.346  0.2607 -0.2253 -0.2081
   77SLPC   O14 6950   3.408   1.813   6.281 -0.4389  0.1824 -0.0133
   77SLPC   O12 6951   3.585   1.817   6.120  0.4251 -0.5823 -0.4438
   77SLPC   O11 6952   3.614   1.683   6.332 -0.7698 -0.1847  0.1714
   77SLPC    C1 6953   3.548   1.590   6.418  0.4203 -0.2595  0.1513
   77SLPC    HA 6954   3.453   1.566   6.367  1.5904 -1.3758 -1.6322
   77SLPC    HB 6955   3.612   1.499   6.427  1.2497  0.0932 -1.7949
   77SLPC    C2 6956   3.536   1.645   6.558  0.0222 -0.6141  0.3013
   77SLPC    HS 6957   3.507   1.752   6.554  2.3490  0.0403 -0.7135
   77SLPC   O21 6958   3.666   1.639   6.613  0.0238  0.4200  0.3887
   77SLPC   C21 6959   3.715   1.743   6.683 -0.0305 -0.0304  0.1300
   77SLPC   O22 6960   3.659   1.850   6.700  0.2182  0.9764 -0.2445
   77SLPC   C22 6961   3.846   1.705   6.748 -0.3819 -0.5126 -0.0354
   77SLPC   H2R 6962   3.908   1.658   6.668  1.0135  0.6802  0.2848
   77SLPC   H2S 6963   3.894   1.801   6.777 -0.3810 -0.4588 -0.2116
   77SLPC    C3 6964   3.444   1.562   6.652 -0.0170  0.2722  0.3751
   77SLPC    HX 6965   3.503   1.469   6.669  1.8016  0.9738 -1.6605
   77SLPC    HY 6966   3.346   1.546   6.603 -0.0131 -0.0015  0.4539
   77SLPC   O31 6967   3.420   1.633   6.776  0.7351 -1.0361  0.8868
   77SLPC   C31 6968   3.323   1.723   6.779  0.4468  0.7276  0.0274
   77SLPC   O32 6969   3.258   1.764   6.679  0.2046 -0.3533  0.9371
   77SLPC   C32 6970   3.303   1.765   6.927 -0.3798  0.4079  0.8775
   77SLPC   H2X 6971   3.394   1.823   6.956  0.6624  0.0567 -1.4726
   77SLPC   H2Y 6972   3.295   1.674   6.991 -0.1234  0.2033  0.6186
   77SLPC   C23 6973   3.809   1.605   6.856  0.1978  0.3140 -0.1423
   77SLPC   H3R 6974   3.892   1.532   6.866 -2.0761 -2.2051  2.1231
   77SLPC   H3S 6975   3.719   1.540   6.843 -2.0930  3.0408  1.0153
   77SLPC   C24 6976   3.791   1.671   6.992  0.1034  0.1057  0.0760
   77SLPC   H4R 6977   3.857   1.759   7.005  0.7618 -0.5170  0.9922
   77SLPC   H4S 6978   3.829   1.595   7.063 -3.3794 -1.3651  0.5487
   77SLPC   C25 6979   3.654   1.722   7.035  0.1129 -0.2033  0.0075
   77SLPC   H5R 6980   3.586   1.634   7.040  1.1502 -1.0246  0.0152
   77SLPC   H5S 6981   3.612   1.794   6.962  1.0573 -0.5509 -0.9140
   77SLPC   C26 6982   3.665   1.790   7.166  0.1336  0.4680 -0.7673
   77SLPC   H6R 6983   3.752   1.859   7.159  0.5427  0.0026 -0.3426
   77SLPC   H6S 6984   3.701   1.712   7.237 -0.0119 -0.2764 -1.4992
   77SLPC   C27 6985   3.543   1.865   7.216  0.1732 -0.4653 -0.4870
   77SLPC   H7R 6986   3.454   1.799   7.208  0.0726 -0.4697  0.4781
   77SLPC   H7S 6987   3.530   1.958   7.157  0.0672  0.5138  1.0208
   77SLPC   C28 6988   3.538   1.895   7.366 -0.1287  0.3301 -0.6077
   77SLPC   H8R 6989   3.625   1.961   7.382  0.7170 -0.9082  0.1412
   77SLPC   H8S 6990   3.565   1.803   7.422 -0.7952 -0.8151 -2.0957
   77SLPC   C29 6991   3.413   1.953   7.421  0.3160 -0.3315  0.0174
   77SLPC   H9R 6992   3.337   1.971   7.344 -0.0210 -0.4706  0.3083
   77SLPC  C210 6993   3.377   1.981   7.546  0.7459  0.0845 -0.0063
   77SLPC  H10R 6994   3.276   2.022   7.562  0.8996  0.4988 -0.0820
   77SLPC  C211 6995   3.459   1.958   7.671 -0.3375  0.4132 -0.0380
   77SLPC  H11R 6996   3.534   1.876   7.673  1.1994  1.7635  1.1273
   77SLPC  H11S 6997   3.394   1.937   7.758  0.7232  1.2104  0.9905
   77SLPC  C212 6998   3.541   2.075   7.695  0.1309 -0.9294  0.0786
   77SLPC  H12R 6999   3.624   2.091   7.623 -1.4792  0.9411 -1.4821
   77SLPC  C213 7000   3.509   2.176   7.781  0.5152 -0.1427  0.4701
   77SLPC  H13R 7001   3.582   2.258   7.788  1.3836 -0.9231  0.8178
   77SLPC  C214 7002   3.393   2.191   7.876  0.1191  0.7927 -0.2859
   77SLPC  H14R 7003   3.322   2.105   7.871 -0.2225  0.7672  2.8658
   77SLPC  H14S 7004   3.326   2.270   7.837 -1.5847 -0.0375  0.8402
   77SLPC  C215 7005   3.433   2.215   8.016 -0.1337  0.5250 -0.3607
   77SLPC  H15R 7006   3.345   2.250   8.073  0.5517 -0.6189  1.4913
   77SLPC  H15S 7007   3.505   2.299   8.006 -0.4339  0.8447  0.1270
   77SLPC  C216 7008   3.505   2.099   8.091 -1.0204  0.5474  0.2861
   77SLPC  H16R 7009   3.597   2.077   8.033 -1.7264 -3.1735  0.3272
   77SLPC  H16S 7010   3.442   2.007   8.098 -1.4600  0.7286 -0.9553
   77SLPC  C217 7011   3.550   2.161   8.225 -0.0872  0.4711  0.4744
   77SLPC  H17R 7012   3.456   2.201   8.268  0.5508  2.7476 -0.1156
   77SLPC  H17S 7013   3.611   2.254   8.222 -0.8041  1.0229  2.1217
   77SLPC  C218 7014   3.631   2.063   8.312 -0.7684 -0.1270  0.3403
   77SLPC  H18R 7015   3.597   1.957   8.304 -2.1242  0.1686  1.7717
   77SLPC  H18S 7016   3.616   2.098   8.417  2.1525  1.0841  0.4558
   77SLPC  H18T 7017   3.736   2.090   8.289 -1.2805  1.9345  0.2474
   77SLPC   C33 7018   3.186   1.858   6.939 -0.8621 -0.1454 -0.4794
   77SLPC   H3X 7019   3.174   1.929   6.854 -1.5508  0.3604  0.0261
   77SLPC   H3Y 7020   3.216   1.927   7.021  0.1101 -0.3044 -0.6970
   77SLPC   C34 7021   3.063   1.780   6.975  0.0546  0.4293 -0.6851
   77SLPC   H4X 7022   3.050   1.691   6.911 -2.0161 -1.6410  2.3699
   77SLPC   H4Y 7023   2.969   1.837   6.960 -0.4411 -0.1624  0.1151
   77SLPC   C35 7024   3.069   1.727   7.120 -0.7210  0.6088 -0.1563
   77SLPC   H5X 7025   3.118   1.805   7.182  1.6909 -0.6509 -0.3279
   77SLPC   H5Y 7026   3.121   1.629   7.125  0.4210  1.0413 -2.3109
   77SLPC   C36 7027   2.929   1.711   7.179  0.2156  0.8852  0.1424
   77SLPC   H6X 7028   2.865   1.654   7.108 -0.6516  1.2248  0.6336
   77SLPC   H6Y 7029   2.880   1.810   7.182 -1.0996  0.3676 -2.2508
   77SLPC   C37 7030   2.931   1.639   7.317 -0.6352  0.5053  0.5034
   77SLPC   H7X 7031   3.010   1.697   7.371 -0.4779  1.4079 -0.6433
   77SLPC   H7Y 7032   2.963   1.533   7.310 -3.5300 -0.5475  1.5487
   77SLPC   C38 7033   2.819   1.653   7.410  0.5748 -0.2226 -0.0124
   77SLPC   H8X 7034   2.729   1.616   7.356  0.7517 -0.9450  0.1785
   77SLPC   H8Y 7035   2.785   1.759   7.415 -0.5978 -0.4790 -1.7092
   77SLPC   C39 7036   2.839   1.586   7.547  0.3591  0.3060 -1.0524
   77SLPC   H9X 7037   2.927   1.633   7.596  0.5790  1.0292 -2.1074
   77SLPC   H9Y 7038   2.849   1.477   7.526 -0.8522 -0.0656  0.1771
   77SLPC  C310 7039   2.722   1.599   7.647  0.4506  0.2568 -0.0445
   77SLPC  H10X 7040   2.629   1.574   7.591 -0.0720 -2.3371  1.7968
   77SLPC  H10Y 7041   2.706   1.706   7.673  1.5867  0.8450 -1.6158
   77SLPC  C311 7042   2.721   1.530   7.783 -0.9134 -0.1413 -0.3062
   77SLPC  H11X 7043   2.793   1.576   7.853 -0.2551 -1.6023  0.0227
   77SLPC  H11Y 7044   2.744   1.422   7.768 -1.3736 -0.3759  0.6045
   77SLPC  C312 7045   2.585   1.544   7.858  0.0244  0.5962  0.0267
   77SLPC  H12X 7046   2.501   1.508   7.795  0.3943  1.8338 -1.2473
   77SLPC  H12Y 7047   2.570   1.654   7.855 -0.4696  0.5852  1.5543
   77SLPC  C313 7048   2.574   1.485   8.001  0.7509 -0.3770  0.4341
   77SLPC  H13X 7049   2.588   1.375   7.994  1.7234 -0.2002 -0.6714
   77SLPC  H13Y 7050   2.474   1.508   8.043  0.1700 -0.7279 -0.7228
   77SLPC  C314 7051   2.678   1.544   8.098  0.2271  1.0816  0.0039
   77SLPC  H14X 7052   2.694   1.654   8.097  2.3170  0.8432  1.4052
   77SLPC  H14Y 7053   2.779   1.501   8.079 -0.0073  0.5037  0.0192
   77SLPC  C315 7054   2.632   1.513   8.244 -0.0495 -0.3809  0.2512
   77SLPC  H15X 7055   2.626   1.403   8.254  0.9030 -0.3003  2.0665
   77SLPC  H15Y 7056   2.539   1.569   8.266  0.6386  1.5416 -1.4012
   77SLPC  C316 7057   2.742   1.566   8.344  0.0622  0.6295 -0.1201
   77SLPC  H16X 7058   2.724   1.676   8.346 -0.8985  0.5351 -2.1105
   77SLPC  H16Y 7059   2.845   1.530   8.321 -0.4290 -1.2078  0.4221
   77SLPC  C317 7060   2.716   1.527   8.493  1.0052  0.1140 -0.2313
   77SLPC  H17X 7061   2.610   1.553   8.514  1.0465  0.9522 -0.9800
   77SLPC  H17Y 7062   2.776   1.600   8.550 -0.1132  2.0079 -1.3898
   77SLPC  C318 7063   2.738   1.376   8.537 -0.8140  0.1074 -0.3923
   77SLPC  H18X 7064   2.721   1.304   8.455  1.6275 -0.1058 -0.7968
   77SLPC  H18Y 7065   2.691   1.344   8.632  0.2037 -0.3854 -0.0395
   77SLPC  H18Z 7066   2.847   1.372   8.558 -0.2513  3.5765 -1.8514
   78SLPC     N 7067   6.285   5.274   6.034  0.2378  0.5487  0.0925
   78SLPC   C13 7068   6.334   5.296   6.175 -0.1016 -0.2889 -0.0289
   78SLPC  H13A 7069   6.273   5.355   6.242 -0.8560 -2.7056  1.5771
   78SLPC  H13B 7070   6.374   5.207   6.222  0.9414  0.8578  1.3167
   78SLPC  H13C 7071   6.424   5.355   6.170  1.8126 -2.9682  0.3840
   78SLPC   C14 7072   6.388   5.220   5.939 -0.1235  0.5475 -0.0399
   78SLPC  H14A 7073   6.464   5.292   5.912 -1.6545  1.9524 -0.7439
   78SLPC  H14B 7074   6.426   5.128   5.981 -2.0999 -0.2050  0.2348
   78SLPC  H14C 7075   6.333   5.197   5.848  1.4487  0.5995 -1.0444
   78SLPC   C15 7076   6.238   5.409   5.991 -0.6544 -0.1489  0.0037
   78SLPC  H15A 7077   6.204   5.417   5.889  1.2233  2.9767 -0.5119
   78SLPC  H15B 7078   6.158   5.443   6.055  0.7642  1.5665  0.9576
   78SLPC  H15C 7079   6.316   5.483   5.994 -0.3377 -0.4912  0.4011
   78SLPC   C12 7080   6.166   5.181   6.041 -0.4295  0.0842 -0.5185
   78SLPC  H12A 7081   6.118   5.186   6.138  0.7635 -0.1556  0.1110
   78SLPC  H12B 7082   6.198   5.078   6.038 -0.9620 -0.0558 -2.9533
   78SLPC   C11 7083   6.072   5.179   5.921  0.1639 -0.0311 -1.0660
   78SLPC  H11A 7084   6.113   5.208   5.822  1.2790  0.5782 -0.4487
   78SLPC  H11B 7085   5.995   5.254   5.948  1.0895  0.4967  0.1799
   78SLPC     P 7086   6.054   4.953   5.816  0.3071  0.5107  0.2246
   78SLPC   O13 7087   6.014   5.003   5.684  0.6667 -0.0059 -0.6871
   78SLPC   O14 7088   6.192   4.908   5.836 -0.0430  0.0641  0.1177
   78SLPC   O12 7089   6.007   5.060   5.924  0.5458  0.1130  0.6489
   78SLPC   O11 7090   5.963   4.826   5.849 -0.2740 -0.0079  0.2884
   78SLPC    C1 7091   5.836   4.841   5.916 -0.6600 -0.9621 -1.3250
   78SLPC    HA 7092   5.790   4.942   5.908 -0.6850 -0.6528  1.7836
   78SLPC    HB 7093   5.764   4.770   5.869 -0.5659 -1.1362 -1.2056
   78SLPC    C2 7094   5.840   4.833   6.069  0.3265  0.0777 -0.7019
   78SLPC    HS 7095   5.929   4.890   6.104  1.0711 -0.7858 -1.1435
   78SLPC   O21 7096   5.840   4.698   6.106 -1.4339  0.6017 -0.1263
   78SLPC   C21 7097   5.943   4.668   6.193  0.5338 -0.3165  0.2522
   78SLPC   O22 7098   6.030   4.744   6.230 -0.1597 -0.0921 -0.4606
   78SLPC   C22 7099   5.947   4.521   6.230 -0.2558  0.0812 -0.1142
   78SLPC   H2R 7100   5.845   4.485   6.209 -0.0204 -0.7358  0.1285
   78SLPC   H2S 7101   6.019   4.464   6.168  0.9836 -0.2583  1.5412
   78SLPC    C3 7102   5.709   4.888   6.127 -0.3427  0.1408 -0.5953
   78SLPC    HX 7103   5.622   4.833   6.085 -1.6143  2.0236 -0.5319
   78SLPC    HY 7104   5.692   4.995   6.104 -0.9880 -0.4446 -3.1859
   78SLPC   O31 7105   5.710   4.867   6.272  0.0847  0.1972 -0.0892
   78SLPC   C31 7106   5.785   4.961   6.342 -0.8199  0.7901 -0.4331
   78SLPC   O32 7107   5.847   5.055   6.294  0.5212 -0.0649  0.8150
   78SLPC   C32 7108   5.787   4.926   6.492 -0.1046  0.7760 -0.1831
   78SLPC   H2X 7109   5.868   4.851   6.502 -1.1020 -0.4942 -1.2050
   78SLPC   H2Y 7110   5.684   4.892   6.517  0.3080  0.2924  0.9720
   78SLPC   C23 7111   5.987   4.498   6.388  0.7554 -0.6280 -0.3542
   78SLPC   H3R 7112   6.087   4.542   6.408  0.0743  1.4211 -1.1852
   78SLPC   H3S 7113   6.012   4.390   6.395  2.1889 -0.3352 -0.6174
   78SLPC   C24 7114   5.874   4.540   6.489 -0.1953  0.7016  0.4691
   78SLPC   H4R 7115   5.790   4.468   6.491 -0.1360  0.5572 -0.8126
   78SLPC   H4S 7116   5.843   4.642   6.456  1.6875  0.8297 -1.0860
   78SLPC   C25 7117   5.917   4.554   6.635 -0.7647  0.0035  0.5207
   78SLPC   H5R 7118   6.003   4.624   6.628 -0.4696 -0.1843  2.0118
   78SLPC   H5S 7119   5.962   4.461   6.677  1.7202  0.1596 -1.5395
   78SLPC   C26 7120   5.817   4.609   6.732  0.3053  0.0932  0.3518
   78SLPC   H6R 7121   5.752   4.525   6.763 -0.7255  0.6676 -0.1851
   78SLPC   H6S 7122   5.756   4.688   6.682 -2.0014 -0.9975  1.2848
   78SLPC   C27 7123   5.879   4.656   6.866  0.3693 -0.1191 -0.5033
   78SLPC   H7R 7124   5.791   4.670   6.932  0.6236  0.6892 -0.3288
   78SLPC   H7S 7125   5.924   4.756   6.848 -0.0757  0.2205  0.2409
   78SLPC   C28 7126   5.993   4.567   6.925  0.9262  0.1879  0.1611
   78SLPC   H8R 7127   6.074   4.552   6.850 -1.5774 -0.4879 -2.6198
   78SLPC   H8S 7128   5.949   4.465   6.936 -0.9482  0.7267 -1.6291
   78SLPC   C29 7129   6.041   4.619   7.067 -0.5596  0.4792 -0.1923
   78SLPC   H9R 7130   5.983   4.583   7.152 -1.5457  1.3074 -0.4924
   78SLPC  C210 7131   6.135   4.710   7.096  0.3154 -1.0238  0.1205
   78SLPC  H10R 7132   6.167   4.740   7.197 -0.2182  1.9288 -0.4859
   78SLPC  C211 7133   6.227   4.772   6.993 -0.3189  0.2141 -0.2709
   78SLPC  H11R 7134   6.181   4.869   6.965  0.3089  0.4103 -0.6419
   78SLPC  H11S 7135   6.239   4.706   6.905  0.3865 -0.6821  0.4633
   78SLPC  C212 7136   6.371   4.785   7.038 -0.1109  0.3709 -0.5465
   78SLPC  H12R 7137   6.397   4.748   7.139  0.7260 -0.1726 -0.9555
   78SLPC  C213 7138   6.465   4.854   6.967 -0.3838 -0.1569 -0.3133
   78SLPC  H13R 7139   6.568   4.868   7.002 -1.1402  1.1900  1.5736
   78SLPC  C214 7140   6.443   4.911   6.827 -0.0142  0.4317 -0.3843
   78SLPC  H14R 7141   6.341   4.880   6.796 -0.9114  1.6889  1.1800
   78SLPC  H14S 7142   6.513   4.861   6.756  0.9575 -0.7536  1.3152
   78SLPC  C215 7143   6.455   5.062   6.800 -0.3953  0.4089 -0.5840
   78SLPC  H15R 7144   6.558   5.095   6.823  0.1104 -1.6679  0.3146
   78SLPC  H15S 7145   6.377   5.114   6.860 -1.9565 -1.5076 -0.8637
   78SLPC  C216 7146   6.422   5.103   6.657  0.3301  0.1519  0.2520
   78SLPC  H16R 7147   6.320   5.068   6.630 -0.0013  1.2406  0.0310
   78SLPC  H16S 7148   6.486   5.049   6.585 -1.1002  0.7411 -1.5417
   78SLPC  C217 7149   6.418   5.252   6.607  0.5403 -0.5615 -0.3434
   78SLPC  H17R 7150   6.394   5.248   6.498 -1.8866  0.9193  0.0715
   78SLPC  H17S 7151   6.523   5.287   6.617  0.3539  0.7571 -2.3986
   78SLPC  C218 7152   6.330   5.349   6.682  0.3983 -0.1510 -0.5974
   78SLPC  H18R 7153   6.365   5.452   6.661  0.3297 -0.2253 -1.0827
   78SLPC  H18S 7154   6.336   5.328   6.791  1.1447 -1.3351 -0.8500
   78SLPC  H18T 7155   6.226   5.339   6.643  0.0152 -1.9892  0.7590
   78SLPC   C33 7156   5.813   5.048   6.578  0.3165 -0.5780 -0.0332
   78SLPC   H3X 7157   5.728   5.054   6.649 -0.0241 -2.0149 -0.2796
   78SLPC   H3Y 7158   5.845   5.134   6.516  2.6299 -1.3295  0.0159
   78SLPC   C34 7159   5.927   5.033   6.680 -1.0119  0.3577 -0.3511
   78SLPC   H4X 7160   6.019   4.989   6.636  0.2942  2.3899  0.1906
   78SLPC   H4Y 7161   5.892   4.960   6.755 -1.0250  0.1144 -0.5930
   78SLPC   C35 7162   5.965   5.166   6.751 -0.6193  0.2242 -0.2178
   78SLPC   H5X 7163   5.873   5.209   6.796 -1.6273 -2.7340  0.8219
   78SLPC   H5Y 7164   6.007   5.247   6.688  0.9958  0.6233  1.3049
   78SLPC   C36 7165   6.082   5.154   6.847  0.4856 -0.3416 -0.6780
   78SLPC   H6X 7166   6.177   5.122   6.798  0.3278 -2.5890  0.3451
   78SLPC   H6Y 7167   6.078   5.067   6.916 -0.5911 -1.4304 -2.0383
   78SLPC   C37 7168   6.099   5.291   6.930  0.3120 -0.7097  0.0218
   78SLPC   H7X 7169   6.119   5.370   6.855 -2.1710 -3.3707 -3.7949
   78SLPC   H7Y 7170   6.177   5.284   7.008 -1.6831  2.4693  2.5811
   78SLPC   C38 7171   5.979   5.329   7.018  0.0492  0.2461 -0.3685
   78SLPC   H8X 7172   5.941   5.236   7.066  0.8807  0.6134  1.0481
   78SLPC   H8Y 7173   5.903   5.382   6.956 -1.3997  1.2142  2.1052
   78SLPC   C39 7174   6.004   5.423   7.137  0.1947 -0.4774 -0.3860
   78SLPC   H9X 7175   5.918   5.491   7.156  2.8837  3.0769 -0.1476
   78SLPC   H9Y 7176   6.098   5.480   7.127 -0.9992  1.9268  1.2096
   78SLPC  C310 7177   6.029   5.344   7.271  0.7132 -0.0668 -0.7220
   78SLPC  H10X 7178   6.120   5.280   7.266 -0.5173 -2.2001  1.8635
   78SLPC  H10Y 7179   5.938   5.284   7.289  1.1495 -0.0217  2.0393
   78SLPC  C311 7180   6.036   5.448   7.388 -0.4413  0.2093  0.4012
   78SLPC  H11X 7181   5.947   5.516   7.387  1.7285  3.2407  0.4755
   78SLPC  H11Y 7182   6.124   5.514   7.379 -0.8363  0.5395 -1.4891
   78SLPC  C312 7183   6.038   5.384   7.533  0.3596 -0.0243 -0.5002
   78SLPC  H12X 7184   6.134   5.328   7.540  0.3563  0.1598  1.3180
   78SLPC  H12Y 7185   5.964   5.302   7.532  0.7900 -0.4239 -0.0123
   78SLPC  C313 7186   6.035   5.477   7.647  0.1310 -0.6445  0.5902
   78SLPC  H13X 7187   5.960   5.553   7.618  0.1184 -0.3994  1.2353
   78SLPC  H13Y 7188   6.136   5.518   7.666  0.0698 -0.5959  0.8156
   78SLPC  C314 7189   5.964   5.417   7.773 -0.8453 -0.0638  0.2380
   78SLPC  H14X 7190   5.857   5.413   7.742 -0.4771  1.0972 -1.3093
   78SLPC  H14Y 7191   5.978   5.478   7.864 -1.9890 -2.0962  1.8558
   78SLPC  C315 7192   6.002   5.268   7.805  0.3343 -0.2079 -0.5674
   78SLPC  H15X 7193   6.075   5.275   7.888  0.2213  2.9970 -0.6301
   78SLPC  H15Y 7194   6.039   5.212   7.716  3.1278 -0.6029  0.7510
   78SLPC  C316 7195   5.874   5.184   7.850 -0.4631  0.7954 -0.2672
   78SLPC  H16X 7196   5.797   5.186   7.769  0.4801  3.9714 -1.2218
   78SLPC  H16Y 7197   5.839   5.260   7.923  2.0758  1.2013  0.6139
   78SLPC  C317 7198   5.897   5.051   7.916 -0.1335  0.3406  0.6048
   78SLPC  H17X 7199   5.982   5.047   7.988  0.0346 -4.0642  0.4241
   78SLPC  H17Y 7200   5.938   4.980   7.841  0.0001 -0.8266  1.7500
   78SLPC  C318 7201   5.763   4.999   7.973 -0.0476  0.1958 -0.4012
   78SLPC  H18X 7202   5.784   4.912   8.038  0.8335  1.2069  0.7157
   78SLPC  H18Y 7203   5.691   4.975   7.892  1.7765 -0.6464 -1.8811
   78SLPC  H18Z 7204   5.718   5.083   8.029  0.6646  1.0856 -1.1239
   79SLPC     N 7205   2.154   4.579   6.078 -0.1542  0.4712  0.1049
   79SLPC   C13 7206   2.181   4.429   6.074  0.5038  0.2660  0.3013
   79SLPC  H13A 7207   2.086   4.379   6.084  1.1549 -0.8317  1.2884
   79SLPC  H13B 7208   2.219   4.407   5.975 -0.0409 -0.6041  0.2755
   79SLPC  H13C 7209   2.246   4.390   6.151  1.3849 -0.0086 -0.5621
   79SLPC   C14 7210   2.050   4.612   5.972 -0.6348  0.3128  0.4498
   79SLPC  H14A 7211   2.089   4.607   5.871  2.9287  1.9480  1.5796
   79SLPC  H14B 7212   1.967   4.544   5.984 -0.7698  0.1558 -1.1689
   79SLPC  H14C 7213   2.019   4.712   5.996  0.3477  0.3649  1.5675
   79SLPC   C15 7214   2.285   4.652   6.062  0.4735  0.4828  0.1731
   79SLPC  H15A 7215   2.339   4.632   6.153  0.0762  2.1959  0.8194
   79SLPC  H15B 7216   2.331   4.614   5.972  0.3317 -0.6905  0.5778
   79SLPC  H15C 7217   2.284   4.760   6.062 -0.4226  0.5011 -1.3675
   79SLPC   C12 7218   2.090   4.610   6.210  0.3226 -0.0422  0.1213
   79SLPC  H12A 7219   1.996   4.558   6.212 -0.3611  1.1778  0.7319
   79SLPC  H12B 7220   2.065   4.714   6.223  2.7698  0.7468 -0.9487
   79SLPC   C11 7221   2.167   4.559   6.335  0.8636 -0.4390  0.3504
   79SLPC  H11A 7222   2.186   4.450   6.342  0.5386 -0.6277 -1.3033
   79SLPC  H11B 7223   2.106   4.590   6.423 -0.2733 -2.3313  0.3021
   79SLPC     P 7224   2.401   4.597   6.446  0.4249 -0.0436  0.4777
   79SLPC   O13 7225   2.444   4.455   6.410 -0.6427  0.2414  0.1768
   79SLPC   O14 7226   2.501   4.702   6.445  0.5460  0.4468 -0.1910
   79SLPC   O12 7227   2.286   4.636   6.347  0.1825 -0.3598  0.1809
   79SLPC   O11 7228   2.319   4.594   6.583 -0.1303 -0.4662  0.5279
   79SLPC    C1 7229   2.287   4.712   6.653 -0.0235 -0.2398 -0.1387
   79SLPC    HA 7230   2.293   4.808   6.596  1.2233 -0.3023 -0.1282
   79SLPC    HB 7231   2.179   4.700   6.676  0.1361  0.3388  0.9706
   79SLPC    C2 7232   2.368   4.715   6.783 -0.0066 -0.4561 -0.6197
   79SLPC    HS 7233   2.473   4.710   6.747  0.7538  2.5936  0.8372
   79SLPC   O21 7234   2.324   4.611   6.869  0.4033  0.8203  0.1249
   79SLPC   C21 7235   2.416   4.550   6.936  0.7154 -0.1823  0.0285
   79SLPC   O22 7236   2.537   4.553   6.918 -0.1665  0.9631 -1.0489
   79SLPC   C22 7237   2.350   4.472   7.052 -0.3717 -0.9507 -0.0969
   79SLPC   H2R 7238   2.240   4.491   7.044 -0.2493  0.1298  0.6380
   79SLPC   H2S 7239   2.366   4.364   7.033 -0.6410 -0.6997 -1.9120
   79SLPC    C3 7240   2.382   4.850   6.864  0.7266  0.3755  0.5727
   79SLPC    HX 7241   2.418   4.906   6.775 -2.5583  0.0468 -1.1285
   79SLPC    HY 7242   2.455   4.836   6.946 -0.2412 -0.8955  1.2631
   79SLPC   O31 7243   2.258   4.905   6.908 -0.1626 -0.1502 -0.2039
   79SLPC   C31 7244   2.213   4.866   7.033 -0.6533 -0.5190  0.5665
   79SLPC   O32 7245   2.276   4.798   7.108 -0.2572 -0.2491  0.4433
   79SLPC   C32 7246   2.085   4.940   7.061 -0.3310  0.0364 -0.2543
   79SLPC   H2X 7247   2.014   4.858   7.085 -0.8048 -0.2894 -2.5585
   79SLPC   H2Y 7248   2.056   4.989   6.966  2.4006  1.4165 -0.4689
   79SLPC   C23 7249   2.393   4.519   7.197  0.2881  0.4622  0.7270
   79SLPC   H3R 7250   2.307   4.522   7.267  0.4577 -1.5301  1.0864
   79SLPC   H3S 7251   2.420   4.627   7.194 -0.2558  0.6055  0.9395
   79SLPC   C24 7252   2.498   4.438   7.269  0.2527  0.3259 -0.5375
   79SLPC   H4R 7253   2.589   4.433   7.206  1.1842  1.5797  0.6612
   79SLPC   H4S 7254   2.461   4.336   7.296  2.6529 -0.0528  1.7988
   79SLPC   C25 7255   2.525   4.506   7.405  0.1550 -0.2684  1.0461
   79SLPC   H5R 7256   2.428   4.535   7.451  0.7013 -0.0170  2.0862
   79SLPC   H5S 7257   2.587   4.595   7.381 -1.4167  0.1834 -1.6866
   79SLPC   C26 7258   2.598   4.422   7.510 -0.0909 -0.0160  0.6228
   79SLPC   H6R 7259   2.670   4.349   7.467 -1.4462 -1.5323  0.8120
   79SLPC   H6S 7260   2.524   4.362   7.567 -2.0490  0.1632 -1.5821
   79SLPC   C27 7261   2.681   4.506   7.607 -0.3220  0.6124 -0.1587
   79SLPC   H7R 7262   2.761   4.566   7.558 -0.4486  1.1961  0.3299
   79SLPC   H7S 7263   2.721   4.432   7.678  0.4760  1.9195  0.7941
   79SLPC   C28 7264   2.599   4.613   7.689 -0.1190  0.3712 -0.1643
   79SLPC   H8R 7265   2.563   4.698   7.628  1.8626  2.9317  1.9877
   79SLPC   H8S 7266   2.663   4.660   7.766  1.3427 -0.8765 -0.5629
   79SLPC   C29 7267   2.476   4.554   7.761  0.3338 -0.3215  0.9688
   79SLPC   H9R 7268   2.385   4.540   7.701 -0.5412  1.6630  1.7407
   79SLPC  C210 7269   2.467   4.527   7.893  0.8163 -0.4712  0.1480
   79SLPC  H10R 7270   2.369   4.490   7.926 -0.4028  2.2081 -0.1829
   79SLPC  C211 7271   2.560   4.564   7.998 -0.2815 -0.3487 -0.3352
   79SLPC  H11R 7272   2.502   4.607   8.082 -0.5396  1.0581 -1.1942
   79SLPC  H11S 7273   2.626   4.647   7.964 -0.9543  0.2483 -0.2135
   79SLPC  C212 7274   2.635   4.436   8.031  0.1792  0.6617  0.3398
   79SLPC  H12R 7275   2.666   4.367   7.952 -2.0073 -0.4248  0.3487
   79SLPC  C213 7276   2.651   4.389   8.155 -0.2148 -0.2443 -0.2285
   79SLPC  H13R 7277   2.698   4.290   8.161 -0.3480 -0.2406  0.9911
   79SLPC  C214 7278   2.608   4.443   8.287 -0.9049 -0.4466  0.1553
   79SLPC  H14R 7279   2.557   4.367   8.349 -0.9699 -1.5811 -1.2370
   79SLPC  H14S 7280   2.541   4.532   8.277  0.6980  0.9646  1.4334
   79SLPC  C215 7281   2.717   4.511   8.369  0.0182  0.0829 -0.5367
   79SLPC  H15R 7282   2.669   4.559   8.457  0.9951  2.1107 -1.0513
   79SLPC  H15S 7283   2.758   4.600   8.317 -0.0109  0.0598 -0.5986
   79SLPC  C216 7284   2.843   4.430   8.394 -0.1320  0.0294  0.1749
   79SLPC  H16R 7285   2.913   4.492   8.454  2.1511 -2.1404 -0.1288
   79SLPC  H16S 7286   2.887   4.401   8.296 -0.7699 -1.2414  0.2503
   79SLPC  C217 7287   2.819   4.304   8.473 -0.3899 -0.5806 -0.1171
   79SLPC  H17R 7288   2.920   4.263   8.496 -0.9515 -1.2270  1.3289
   79SLPC  H17S 7289   2.770   4.227   8.409  1.8756 -0.0246 -2.7234
   79SLPC  C218 7290   2.740   4.312   8.609  0.8268  0.4506 -0.7304
   79SLPC  H18R 7291   2.781   4.390   8.677  1.0656 -1.6557  1.7039
   79SLPC  H18S 7292   2.752   4.224   8.676 -1.5496  1.4833  1.2422
   79SLPC  H18T 7293   2.630   4.326   8.604  1.0467  2.2869 -1.3067
   79SLPC   C33 7294   2.100   5.039   7.177  0.1518 -0.4925 -0.0046
   79SLPC   H3X 7295   2.001   5.090   7.185 -0.7921 -2.3401  0.6291
   79SLPC   H3Y 7296   2.186   5.109   7.164  0.6988 -1.3843 -1.4319
   79SLPC   C34 7297   2.102   4.973   7.321 -0.2505 -0.5395  0.2818
   79SLPC   H4X 7298   2.179   4.894   7.333  0.1655 -0.0305  1.0893
   79SLPC   H4Y 7299   1.998   4.936   7.331 -0.1627 -0.5034  1.4497
   79SLPC   C35 7300   2.123   5.067   7.437 -0.3408  0.1030  0.4889
   79SLPC   H5X 7301   2.056   5.151   7.407 -0.4093 -0.5355 -1.2752
   79SLPC   H5Y 7302   2.231   5.094   7.436 -0.4517  0.5486 -0.0992
   79SLPC   C36 7303   2.076   5.008   7.572 -0.3152 -0.7958  0.0805
   79SLPC   H6X 7304   2.128   4.920   7.617 -0.1079  0.4825  2.5386
   79SLPC   H6Y 7305   1.970   4.987   7.548 -0.3857 -0.8467  0.4255
   79SLPC   C37 7306   2.101   5.116   7.680  0.2441  0.1490 -0.9862
   79SLPC   H7X 7307   2.041   5.203   7.646 -1.8764 -1.3138 -1.1836
   79SLPC   H7Y 7308   2.206   5.147   7.702 -0.5362  1.0481  2.0149
   79SLPC   C38 7309   2.044   5.072   7.815  0.4559  0.6863  0.0561
   79SLPC   H8X 7310   2.116   4.994   7.852  1.3918  1.7105  0.4563
   79SLPC   H8Y 7311   1.948   5.021   7.791  0.3612  0.8742  0.0398
   79SLPC   C39 7312   2.035   5.176   7.924 -0.1629  0.1568  0.0601
   79SLPC   H9X 7313   1.953   5.248   7.906 -1.0237 -1.2235 -1.9216
   79SLPC   H9Y 7314   2.131   5.232   7.921  0.7190 -1.2405  0.7759
   79SLPC  C310 7315   2.009   5.118   8.069  0.4019 -0.5555 -0.0143
   79SLPC  H10X 7316   2.098   5.052   8.081 -0.2177 -1.1707  1.4393
   79SLPC  H10Y 7317   1.922   5.050   8.084  1.3458 -1.5181  1.4805
   79SLPC  C311 7318   2.026   5.229   8.179 -0.7017  0.2162 -0.1050
   79SLPC  H11X 7319   1.945   5.300   8.151 -3.1751 -1.5428  2.0383
   79SLPC  H11Y 7320   2.115   5.292   8.164 -0.7362  0.1119 -0.7496
   79SLPC  C312 7321   1.999   5.179   8.320  0.2107 -0.7421  0.2372
   79SLPC  H12X 7322   2.091   5.124   8.349  1.7201  2.0032  1.0165
   79SLPC  H12Y 7323   1.916   5.106   8.317 -1.3361  0.9520  0.5195
   79SLPC  C313 7324   1.980   5.296   8.419 -0.9226  0.2006 -0.2555
   79SLPC  H13X 7325   1.928   5.384   8.374  0.2159 -0.0548 -2.2043
   79SLPC  H13Y 7326   2.082   5.335   8.443 -1.0897  0.0137  0.7870
   79SLPC  C314 7327   1.928   5.244   8.550 -0.4343 -0.2776  0.0909
   79SLPC  H14X 7328   1.958   5.307   8.636 -2.9185  0.9132  0.1773
   79SLPC  H14Y 7329   1.968   5.140   8.558 -1.3884 -0.7377 -0.8755
   79SLPC  C315 7330   1.773   5.241   8.570  0.0904  0.3928  0.2006
   79SLPC  H15X 7331   1.730   5.191   8.481 -0.5105  1.1965  0.0273
   79SLPC  H15Y 7332   1.732   5.344   8.581 -0.2170  0.2670  0.2394
   79SLPC  C316 7333   1.716   5.162   8.694 -1.2069  0.1637  0.0878
   79SLPC  H16X 7334   1.733   5.214   8.791  0.2125  0.7808 -0.4721
   79SLPC  H16Y 7335   1.774   5.068   8.703 -2.1760 -0.4527  0.0956
   79SLPC  C317 7336   1.568   5.119   8.691  0.2567 -0.2004  0.2098
   79SLPC  H17X 7337   1.570   5.052   8.603  1.4413 -1.4174  1.1234
   79SLPC  H17Y 7338   1.497   5.201   8.665 -1.2773 -1.1320  1.2714
   79SLPC  C318 7339   1.507   5.031   8.807 -0.3126 -0.2358  0.0300
   79SLPC  H18X 7340   1.405   5.006   8.772 -0.3485 -0.8555  0.5482
   79SLPC  H18Y 7341   1.502   5.087   8.903 -1.0882  3.2429 -1.8581
   79SLPC  H18Z 7342   1.569   4.939   8.815  0.3374  0.2784  1.1990
   80SLPC     N 7343   3.735   5.202   6.229 -0.6429  0.3306 -0.5479
   80SLPC   C13 7344   3.858   5.203   6.141  0.0269 -0.5016  0.2492
   80SLPC  H13A 7345   3.923   5.117   6.140  1.8274  0.8039 -0.7027
   80SLPC  H13B 7346   3.839   5.234   6.039 -1.4672  1.8609  1.1708
   80SLPC  H13C 7347   3.930   5.270   6.185  0.8874 -1.5974  0.5747
   80SLPC   C14 7348   3.653   5.086   6.184  0.6558  0.3074  0.3822
   80SLPC  H14A 7349   3.606   5.115   6.091 -0.1183 -0.7232  0.4251
   80SLPC  H14B 7350   3.702   4.992   6.164  1.7508  0.2520  2.9533
   80SLPC  H14C 7351   3.564   5.063   6.241 -1.6693  0.0906 -3.0331
   80SLPC   C15 7352   3.654   5.328   6.211  0.2302 -0.3847 -0.5592
   80SLPC  H15A 7353   3.640   5.356   6.107  2.0162  0.1635 -0.6778
   80SLPC  H15B 7354   3.564   5.327   6.271  1.9990 -1.9735  2.2287
   80SLPC  H15C 7355   3.712   5.406   6.258  1.2106 -1.5289  0.1920
   80SLPC   C12 7356   3.775   5.183   6.379  0.1596  0.6941  0.3996
   80SLPC  H12A 7357   3.835   5.268   6.406 -0.6296  1.1221  0.8481
   80SLPC  H12B 7358   3.842   5.099   6.382 -1.0208 -0.2724  0.5776
   80SLPC   C11 7359   3.678   5.162   6.499 -0.4040  0.4793  0.9080
   80SLPC  H11A 7360   3.606   5.246   6.501 -1.1653  0.0388 -2.2320
   80SLPC  H11B 7361   3.728   5.145   6.596  1.0879  0.5344  0.1705
   80SLPC     P 7362   3.648   4.902   6.509  0.0130  0.5090 -0.0408
   80SLPC   O13 7363   3.563   4.812   6.430 -0.3896 -0.2180 -0.4897
   80SLPC   O14 7364   3.791   4.886   6.484 -0.1136 -0.1149  0.0279
   80SLPC   O12 7365   3.601   5.049   6.474  0.0738 -0.4619 -0.0946
   80SLPC   O11 7366   3.619   4.900   6.665 -0.1147 -0.0356 -0.3703
   80SLPC    C1 7367   3.603   4.779   6.741 -0.3011  0.3537 -0.6632
   80SLPC    HA 7368   3.497   4.761   6.769 -0.6259 -0.6576 -2.3727
   80SLPC    HB 7369   3.621   4.692   6.674  0.4814  0.9325 -1.2201
   80SLPC    C2 7370   3.697   4.775   6.861 -0.2957 -0.3131  0.1806
   80SLPC    HS 7371   3.695   4.675   6.909 -1.1836  0.2370  1.3374
   80SLPC   O21 7372   3.641   4.867   6.962 -0.2140  0.0001 -0.6063
   80SLPC   C21 7373   3.667   4.828   7.090  0.2245 -0.0902  0.4524
   80SLPC   O22 7374   3.749   4.749   7.128 -0.7709  0.4266 -0.2242
   80SLPC   C22 7375   3.567   4.902   7.182 -1.0386  0.2608 -0.3717
   80SLPC   H2R 7376   3.567   5.001   7.133 -1.1501 -1.3029 -3.8594
   80SLPC   H2S 7377   3.466   4.856   7.174 -0.4469 -0.8444 -2.5641
   80SLPC    C3 7378   3.849   4.803   6.823  0.0359 -0.5388  0.0251
   80SLPC    HX 7379   3.845   4.872   6.736 -0.1618  0.1568  0.5805
   80SLPC    HY 7380   3.902   4.718   6.775  1.3646  0.2369  0.0556
   80SLPC   O31 7381   3.940   4.864   6.918 -0.0848  0.0609 -0.4323
   80SLPC   C31 7382   4.022   4.788   6.992  0.0646 -0.2092  0.1049
   80SLPC   O32 7383   4.020   4.665   6.989  0.2443  0.1169 -0.1815
   80SLPC   C32 7384   4.117   4.883   7.071 -0.0322  0.3010 -0.0919
   80SLPC   H2X 7385   4.148   4.971   7.011 -0.0790 -1.1736 -2.4130
   80SLPC   H2Y 7386   4.207   4.823   7.093  0.4867  1.1366  0.0787
   80SLPC   C23 7387   3.621   4.920   7.330 -0.1826 -0.3067 -0.3015
   80SLPC   H3R 7388   3.701   4.997   7.335 -0.6042  0.2056 -1.1666
   80SLPC   H3S 7389   3.664   4.821   7.357 -1.2147 -0.5429  0.5485
   80SLPC   C24 7390   3.504   4.942   7.425 -0.1360 -0.4768  0.4460
   80SLPC   H4R 7391   3.444   4.849   7.431 -2.1962  0.7593  0.2282
   80SLPC   H4S 7392   3.435   5.022   7.390 -0.4549  1.2074  4.3244
   80SLPC   C25 7393   3.554   4.980   7.562  0.2445 -0.1966 -0.0115
   80SLPC   H5R 7394   3.630   5.061   7.554  0.2014 -0.0232  1.1735
   80SLPC   H5S 7395   3.611   4.900   7.614  1.9875  0.8552 -0.1975
   80SLPC   C26 7396   3.438   5.017   7.659  0.4052  0.2237 -0.4585
   80SLPC   H6R 7397   3.386   4.924   7.690 -0.3292  0.8532  0.2251
   80SLPC   H6S 7398   3.366   5.079   7.602 -0.0040  0.6129  0.4649
   80SLPC   C27 7399   3.484   5.101   7.780 -0.0782 -0.0704 -0.0537
   80SLPC   H7R 7400   3.398   5.125   7.846  0.3296  2.2024 -0.2795
   80SLPC   H7S 7401   3.517   5.206   7.764 -3.0904  1.6293  3.3166
   80SLPC   C28 7402   3.581   5.029   7.866 -0.3539  0.1975  0.0898
   80SLPC   H8R 7403   3.673   5.015   7.806 -0.4977  1.4107 -0.4334
   80SLPC   H8S 7404   3.545   4.926   7.889  1.0537 -0.2376  0.3990
   80SLPC   C29 7405   3.630   5.096   7.999  0.3049  0.3087  0.0620
   80SLPC   H9R 7406   3.728   5.146   8.005  0.4474  0.0660 -0.2162
   80SLPC  C210 7407   3.569   5.071   8.117 -0.4961  0.1761  0.8091
   80SLPC  H10R 7408   3.598   5.135   8.202 -3.1175  1.0789  1.1389
   80SLPC  C211 7409   3.440   4.992   8.139  0.3669 -0.0598 -0.1966
   80SLPC  H11R 7410   3.445   4.901   8.075  1.2158  1.6867 -2.7980
   80SLPC  H11S 7411   3.365   5.054   8.086  0.2634 -1.8443 -2.2970
   80SLPC  C212 7412   3.392   4.980   8.278 -0.6357  0.6331 -0.1910
   80SLPC  H12R 7413   3.463   4.966   8.361 -1.4321  0.4520  0.4742
   80SLPC  C213 7414   3.263   4.970   8.325 -0.0384  0.0246 -0.0068
   80SLPC  H13R 7415   3.248   4.953   8.433 -1.9758 -0.7269 -0.3524
   80SLPC  C214 7416   3.143   4.984   8.241  0.8175 -0.4407  0.2970
   80SLPC  H14R 7417   3.153   4.928   8.145  0.7194 -1.4301  0.8420
   80SLPC  H14S 7418   3.130   5.092   8.219  1.3579 -0.1519  1.3457
   80SLPC  C215 7419   3.013   4.935   8.300 -0.1808 -0.0097 -0.1721
   80SLPC  H15R 7420   3.025   4.831   8.336  0.6632  0.2192  0.2463
   80SLPC  H15S 7421   2.934   4.934   8.222 -0.4829  4.3820 -0.1833
   80SLPC  C216 7422   2.967   5.035   8.415 -0.5375 -0.2388  0.8156
   80SLPC  H16R 7423   3.039   5.120   8.415  0.1090 -0.7658 -0.0395
   80SLPC  H16S 7424   2.986   4.977   8.508 -0.4428 -1.2709  0.1709
   80SLPC  C217 7425   2.826   5.093   8.397 -0.5662  0.3850 -0.6027
   80SLPC  H17R 7426   2.753   5.012   8.374  0.1826 -0.6628  0.5857
   80SLPC  H17S 7427   2.818   5.163   8.311  1.1914 -0.7268 -1.7437
   80SLPC  C218 7428   2.800   5.179   8.521  0.3210  0.1670 -0.1779
   80SLPC  H18R 7429   2.696   5.216   8.511  0.8674  1.4503 -1.4653
   80SLPC  H18S 7430   2.875   5.256   8.547  0.1808  0.5665 -0.9334
   80SLPC  H18T 7431   2.805   5.106   8.605  2.4336 -0.3710 -0.6969
   80SLPC   C33 7432   4.056   4.935   7.201 -0.1179  0.3232 -0.4039
   80SLPC   H3X 7433   3.951   4.968   7.187 -0.9730 -2.6286 -1.7893
   80SLPC   H3Y 7434   4.122   5.017   7.236 -2.2547  2.4236 -1.0262
   80SLPC   C34 7435   4.071   4.836   7.322 -0.0288 -0.6984 -0.7413
   80SLPC   H4X 7436   4.167   4.781   7.327 -0.7399 -1.8977  2.8963
   80SLPC   H4Y 7437   3.992   4.758   7.324 -0.2593 -0.4607 -0.2497
   80SLPC   C35 7438   4.054   4.914   7.454 -0.1979  0.3649  0.0775
   80SLPC   H5X 7439   3.963   4.978   7.460 -1.5178 -1.4084 -0.1373
   80SLPC   H5Y 7440   4.148   4.970   7.474  0.4521 -1.2293  1.8068
   80SLPC   C36 7441   4.047   4.817   7.574 -0.4712  0.7914  0.2188
   80SLPC   H6X 7442   3.982   4.733   7.540  2.1517 -1.3410  0.0036
   80SLPC   H6Y 7443   3.998   4.872   7.656  1.2437  1.9819  0.4999
   80SLPC   C37 7444   4.179   4.757   7.614 -1.5591  0.3091 -0.1750
   80SLPC   H7X 7445   4.240   4.843   7.650  0.5835 -0.4013 -1.8617
   80SLPC   H7Y 7446   4.236   4.700   7.537  0.1378 -2.0115  2.5550
   80SLPC   C38 7447   4.176   4.659   7.729  0.4021  0.1839 -0.2872
   80SLPC   H8X 7448   4.119   4.571   7.694  2.0873 -1.1897  0.2731
   80SLPC   H8Y 7449   4.127   4.697   7.821  1.3908 -2.4087  1.4411
   80SLPC   C39 7450   4.314   4.611   7.778  0.1366  0.3380  0.7810
   80SLPC   H9X 7451   4.371   4.698   7.817  1.1861 -1.0602  2.4870
   80SLPC   H9Y 7452   4.372   4.560   7.698 -2.3718  0.5932 -1.3719
   80SLPC  C310 7453   4.297   4.505   7.886  0.3168  0.2288 -0.3447
   80SLPC  H10X 7454   4.230   4.424   7.850  0.0227  0.1694  0.3290
   80SLPC  H10Y 7455   4.267   4.546   7.985  1.0931 -2.1030  0.9449
   80SLPC  C311 7456   4.427   4.418   7.896  0.2714 -1.0882 -0.4059
   80SLPC  H11X 7457   4.446   4.369   7.798  2.3850  0.7565 -1.0094
   80SLPC  H11Y 7458   4.403   4.341   7.972  0.5385 -2.7015 -1.8908
   80SLPC  C312 7459   4.558   4.496   7.927  0.2062 -0.1417  0.1012
   80SLPC  H12X 7460   4.542   4.548   8.024  1.4366 -1.2508  0.9335
   80SLPC  H12Y 7461   4.577   4.575   7.851  0.0132  2.1862  2.3394
   80SLPC  C313 7462   4.676   4.406   7.948  0.5299  0.1503  0.4351
   80SLPC  H13X 7463   4.696   4.372   7.844 -2.9817  0.0921 -0.3156
   80SLPC  H13Y 7464   4.639   4.318   8.004  1.5543 -1.9434 -1.9855
   80SLPC  C314 7465   4.793   4.456   8.030 -0.5994  0.1559  0.4533
   80SLPC  H14X 7466   4.741   4.486   8.124 -4.5962  0.3194 -1.5597
   80SLPC  H14Y 7467   4.830   4.549   7.982  0.6623 -1.6803 -2.3811
   80SLPC  C315 7468   4.901   4.357   8.056  0.3075  0.1335  0.0412
   80SLPC  H15X 7469   4.922   4.315   7.955  1.5970 -1.0581  0.7628
   80SLPC  H15Y 7470   4.870   4.265   8.111  0.2661 -0.5837 -1.1383
   80SLPC  C316 7471   5.027   4.412   8.117 -0.3948 -1.0815 -0.3327
   80SLPC  H16X 7472   5.053   4.510   8.072 -1.2254 -0.4806  0.4613
   80SLPC  H16Y 7473   5.111   4.339   8.114  2.4666  1.9730 -0.7576
   80SLPC  C317 7474   5.010   4.443   8.263  0.0255 -1.1106  0.7338
   80SLPC  H17X 7475   4.946   4.366   8.311  1.2400 -0.4533  3.6130
   80SLPC  H17Y 7476   4.951   4.535   8.283  0.8730 -0.0229 -1.4374
   80SLPC  C318 7477   5.145   4.459   8.323  0.2118  0.2077 -0.6679
   80SLPC  H18X 7478   5.209   4.369   8.312 -1.4422 -1.3775  1.6960
   80SLPC  H18Y 7479   5.134   4.472   8.432 -2.1585  1.0155 -0.9418
   80SLPC  H18Z 7480   5.211   4.537   8.279  1.0986  1.1003  2.0698
   81SAPS     N 7481   6.223   4.708  10.648 -0.2356  0.1443  0.6505
   81SAPS   HN1 7482   6.203   4.638  10.573 -0.6794  1.2468 -0.2883
   81SAPS   HN2 7483   6.132   4.735  10.690 -1.7402 -0.7736 -1.7807
   81SAPS   HN3 7484   6.266   4.784  10.592  1.0302 -1.4971 -0.7112
   81SAPS   C12 7485   6.317   4.648  10.754 -0.3463 -0.4464 -0.2439
   81SAPS  H12A 7486   6.354   4.741  10.792 -1.0156 -1.3798  2.9593
   81SAPS   C13 7487   6.238   4.568  10.848  0.2140  0.0703 -0.9745
   81SAPS  O13A 7488   6.114   4.537  10.823  0.3102 -0.1048  0.1697
   81SAPS  O13B 7489   6.280   4.542  10.966  0.0649 -0.2006  0.1299
   81SAPS   C11 7490   6.430   4.559  10.685 -0.8896 -0.7463 -0.8226
   81SAPS  H11A 7491   6.381   4.476  10.630 -0.5233 -0.0004 -2.3400
   81SAPS  H11B 7492   6.499   4.514  10.760  0.2490 -0.6903 -1.8148
   81SAPS     P 7493   6.662   4.648  10.586 -0.1415 -0.0933 -0.2356
   81SAPS   O13 7494   6.693   4.760  10.672  0.0905 -0.2229 -0.4480
   81SAPS   O14 7495   6.716   4.512  10.617 -0.6692 -0.1140  0.6636
   81SAPS   O12 7496   6.505   4.635  10.585 -0.4139 -0.2049 -0.4622
   81SAPS   O11 7497   6.703   4.690  10.441  0.1361  0.0253 -0.1986
   81SAPS    C1 7498   6.667   4.611  10.326  0.1186  0.8043 -0.0973
   81SAPS    HA 7499   6.768   4.584  10.288 -0.5065 -2.6609  0.3997
   81SAPS    HB 7500   6.603   4.521  10.340  2.9463 -1.1493  1.1055
   81SAPS    C2 7501   6.614   4.701  10.207  0.5012  0.3194 -1.3003
   81SAPS    HS 7502   6.605   4.632  10.121  1.0225 -0.5299 -0.6913
   81SAPS   O21 7503   6.712   4.806  10.185 -0.1075  0.6674  0.5453
   81SAPS   C21 7504   6.702   4.882  10.081  0.0873  0.6756  0.2611
   81SAPS   O22 7505   6.610   4.888  10.002  0.7133 -0.0630  0.3841
   81SAPS   C22 7506   6.827   4.974  10.064  0.0721 -0.6546 -0.0164
   81SAPS   H2R 7507   6.832   5.037  10.155 -0.5503 -2.2732  1.1893
   81SAPS   H2S 7508   6.913   4.904  10.066  0.7542  0.1908  0.6283
   81SAPS    C3 7509   6.471   4.755  10.239 -0.0147 -0.0767 -0.7724
   81SAPS    HX 7510   6.488   4.843  10.305  0.2485 -1.8407  1.6550
   81SAPS    HY 7511   6.417   4.679  10.299 -0.1094 -0.8372 -1.7856
   81SAPS   O31 7512   6.388   4.783  10.127  0.2085 -0.3256 -0.6145
   81SAPS   C31 7513   6.346   4.683  10.057 -0.3409  1.0012  0.3155
   81SAPS   O32 7514   6.362   4.566  10.084  0.1585 -0.0198  0.3547
   81SAPS   C32 7515   6.264   4.737   9.930 -0.1606 -0.1119  0.5581
   81SAPS   H2X 7516   6.336   4.780   9.857 -0.0836  0.1345  0.7776
   81SAPS   H2Y 7517   6.213   4.823   9.978  1.1592 -0.0888  1.9885
   81SAPS   C23 7518   6.822   5.051   9.929 -0.3212 -0.8535 -0.0277
   81SAPS   H3R 7519   6.763   5.138   9.963 -0.2231 -1.2636  1.2337
   81SAPS   H3S 7520   6.773   5.002   9.841  0.2034 -0.3687 -0.5946
   81SAPS   C24 7521   6.959   5.093   9.884  0.5192 -0.5168  0.2555
   81SAPS   H4R 7522   7.016   4.999   9.869  1.4062 -0.2346  1.7268
   81SAPS   H4S 7523   7.018   5.150   9.958  0.6624 -1.5849  0.9986
   81SAPS   C25 7524   6.939   5.182   9.767 -0.8160  0.1751 -0.3340
   81SAPS   H5R 7525   6.913   5.282   9.804 -1.3418 -0.4622  1.0858
   81SAPS   C26 7526   6.954   5.149   9.639 -0.2119 -0.3093 -0.0955
   81SAPS   H6R 7527   6.933   5.226   9.563  1.1412  0.2789  0.1014
   81SAPS   C27 7528   6.987   5.019   9.576 -0.2134  0.3341 -0.3496
   81SAPS   H7R 7529   6.965   4.933   9.643  0.4257 -1.4023 -2.2711
   81SAPS   H7S 7530   7.096   5.014   9.557  0.6779 -0.3412  3.7835
   81SAPS   C28 7531   6.903   4.994   9.456 -0.7383  0.0322 -0.2978
   81SAPS   H8R 7532   6.818   4.928   9.482  0.6397 -1.2174  1.3051
   81SAPS   C29 7533   6.933   5.021   9.329  0.6387  0.3931 -0.0093
   81SAPS   H9R 7534   6.861   4.992   9.250  0.8151 -0.6495  0.1921
   81SAPS  C210 7535   7.043   5.112   9.277  0.1861  0.0965  0.5109
   81SAPS  H10R 7536   7.104   5.058   9.201 -2.4046 -1.0751 -0.8783
   81SAPS  H10S 7537   7.114   5.159   9.348  1.1792 -0.2215 -0.2443
   81SAPS  C211 7538   6.970   5.217   9.192  0.2461 -0.1316 -0.1910
   81SAPS  H11R 7539   6.914   5.293   9.248 -1.7338  0.7883 -3.1722
   81SAPS  C212 7540   6.955   5.226   9.059 -0.4148 -0.0285 -0.1054
   81SAPS  H12R 7541   6.908   5.313   9.010 -2.0639 -1.7554 -1.7923
   81SAPS  C213 7542   7.007   5.123   8.958  0.5610 -1.1527 -0.5067
   81SAPS  H13R 7543   7.049   5.038   9.015  1.8892  0.5279  1.1623
   81SAPS  H13S 7544   7.094   5.169   8.906 -0.8748  0.4864 -1.5697
   81SAPS  C214 7545   6.903   5.051   8.869  0.4122 -0.5895  0.1549
   81SAPS  H14R 7546   6.824   4.994   8.920 -0.0470 -1.2978 -1.3068
   81SAPS  C215 7547   6.909   5.051   8.734  0.2075 -0.2985  0.4621
   81SAPS  H15R 7548   6.827   5.011   8.672 -0.2505  1.7699 -0.3534
   81SAPS  C216 7549   7.004   5.125   8.645  0.0082 -0.0910  0.3060
   81SAPS  H16R 7550   7.110   5.101   8.669  0.1279 -1.6474 -1.5202
   81SAPS  H16S 7551   6.981   5.234   8.650 -1.5015 -0.4163  1.1911
   81SAPS  C217 7552   6.995   5.088   8.497  0.3810  0.5268 -0.7640
   81SAPS  H17R 7553   6.895   5.116   8.457 -0.0521  0.4016  0.2123
   81SAPS  H17S 7554   6.993   4.977   8.491 -1.7705  0.5980 -3.3461
   81SAPS  C218 7555   7.106   5.155   8.418 -0.4875  0.0108 -0.1320
   81SAPS  H18R 7556   7.097   5.118   8.313  0.0406  1.0247 -0.5477
   81SAPS  H18S 7557   7.209   5.124   8.447 -1.5794 -1.9255  1.9921
   81SAPS  C219 7558   7.088   5.311   8.418 -0.2735  0.3393  0.0084
   81SAPS  H19R 7559   7.090   5.356   8.519 -0.8855  0.5333 -0.0624
   81SAPS  H19S 7560   6.985   5.328   8.380 -0.1784 -2.8065 -2.0368
   81SAPS  C220 7561   7.182   5.381   8.319 -0.2002  0.2275 -0.9516
   81SAPS  H20R 7562   7.163   5.336   8.219  0.6283 -4.1520  0.6381
   81SAPS  H20S 7563   7.287   5.359   8.347 -0.7183 -1.6847 -0.3896
   81SAPS  H20T 7564   7.179   5.491   8.306  1.0656  0.3133 -0.6640
   81SAPS   C33 7565   6.163   4.637   9.886  0.6952  0.0577  0.6678
   81SAPS   H3X 7566   6.100   4.595   9.967  1.1299 -1.2718  0.3545
   81SAPS   H3Y 7567   6.215   4.546   9.847  1.0268 -0.4692  2.2714
   81SAPS   C34 7568   6.071   4.693   9.778  0.4708 -0.1839  0.2428
   81SAPS   H4X 7569   6.046   4.801   9.787  1.0667 -0.1401  1.4209
   81SAPS   H4Y 7570   5.973   4.641   9.770 -0.9584  2.5593 -1.8419
   81SAPS   C35 7571   6.141   4.683   9.645 -0.8596 -0.9426 -0.4654
   81SAPS   H5X 7572   6.147   4.573   9.630  0.9931 -1.3647  2.5256
   81SAPS   H5Y 7573   6.242   4.729   9.645 -0.5101 -1.7029 -0.4230
   81SAPS   C36 7574   6.061   4.759   9.537 -0.1237  0.6109  0.1567
   81SAPS   H6X 7575   6.073   4.868   9.551 -1.6420  0.8082  0.1147
   81SAPS   H6Y 7576   5.953   4.733   9.545 -0.2136  1.0095  0.2219
   81SAPS   C37 7577   6.102   4.714   9.397 -1.2421  0.3873 -0.0553
   81SAPS   H7X 7578   6.111   4.604   9.390  2.7870  0.6217 -1.6775
   81SAPS   H7Y 7579   6.207   4.739   9.369 -1.7219  2.5521 -0.1511
   81SAPS   C38 7580   6.010   4.774   9.294  0.1795  0.1900  0.7229
   81SAPS   H8X 7581   5.978   4.877   9.322 -0.1777  0.5927 -1.0608
   81SAPS   H8Y 7582   5.921   4.709   9.278 -0.0181  0.2718  1.4693
   81SAPS   C39 7583   6.080   4.799   9.162  0.0263  0.8815 -0.2751
   81SAPS   H9X 7584   6.166   4.869   9.169  1.4290 -0.5522 -2.1457
   81SAPS   H9Y 7585   6.001   4.852   9.105  0.0322  1.1721 -0.0198
   81SAPS  C310 7586   6.126   4.662   9.100  0.1188 -0.1612 -0.3372
   81SAPS  H10X 7587   6.037   4.597   9.084 -0.6395  0.8069 -0.1698
   81SAPS  H10Y 7588   6.208   4.616   9.159  0.5528 -1.5099 -1.8948
   81SAPS  C311 7589   6.176   4.692   8.958 -0.3199  0.8822 -0.4233
   81SAPS  H11X 7590   6.261   4.763   8.966 -0.5679  1.1647 -0.2587
   81SAPS  H11Y 7591   6.096   4.752   8.909  0.0128  0.9859 -0.8464
   81SAPS  C312 7592   6.222   4.560   8.899 -0.6791 -0.6490 -0.0404
   81SAPS  H12X 7593   6.140   4.489   8.878 -1.1372 -0.4725  1.1095
   81SAPS  H12Y 7594   6.301   4.517   8.964 -0.9371 -0.3966  0.4499
   81SAPS  C313 7595   6.310   4.592   8.772  0.3900 -0.0604  0.1529
   81SAPS  H13X 7596   6.329   4.489   8.733 -0.4200 -0.6884  1.3492
   81SAPS  H13Y 7597   6.402   4.648   8.799 -1.1408  2.2207  0.9274
   81SAPS  C314 7598   6.241   4.685   8.679 -0.5028 -0.3591  0.0165
   81SAPS  H14X 7599   6.208   4.782   8.721  0.3889  0.2714 -0.7167
   81SAPS  H14Y 7600   6.146   4.635   8.651 -0.4769  0.0142 -0.7672
   81SAPS  C315 7601   6.316   4.710   8.551 -0.6176 -0.4826 -0.3134
   81SAPS  H15X 7602   6.426   4.710   8.565 -0.2216 -0.4595 -3.0524
   81SAPS  H15Y 7603   6.285   4.812   8.521 -0.0237 -0.9514 -2.6511
   81SAPS  C316 7604   6.278   4.634   8.422 -0.2573 -0.1078  0.5935
   81SAPS  H16X 7605   6.173   4.646   8.387 -0.4097  2.1378  1.6235
   81SAPS  H16Y 7606   6.297   4.526   8.441  1.5141 -0.3338 -1.9306
   81SAPS  C317 7607   6.372   4.670   8.306  0.2457  0.4816 -0.0299
   81SAPS  H17X 7608   6.477   4.671   8.342  0.5967 -1.0606 -0.8940
   81SAPS  H17Y 7609   6.359   4.773   8.268 -1.3034 -0.2137 -1.5306
   81SAPS  C318 7610   6.369   4.579   8.178 -0.2607 -0.7452  0.2223
   81SAPS  H18X 7611   6.268   4.576   8.130 -0.7227 -0.0228  1.1261
   81SAPS  H18Y 7612   6.402   4.475   8.200  0.1267 -1.1714 -2.0785
   81SAPS  H18Z 7613   6.442   4.626   8.109 -1.3126  0.9019  0.1755
   82SAPS     N 7614   5.840   3.485  10.686 -0.3489  0.3944 -0.2418
   82SAPS   HN1 7615   5.851   3.584  10.717  3.4491  0.1229 -0.2598
   82SAPS   HN2 7616   5.930   3.451  10.647  0.9347 -0.1094  2.8205
   82SAPS   HN3 7617   5.772   3.481  10.608  0.0571  1.1488 -0.6410
   82SAPS   C12 7618   5.790   3.398  10.804  0.8238 -0.8424 -0.1369
   82SAPS  H12A 7619   5.768   3.299  10.765  0.8507 -1.3151  1.0084
   82SAPS   C13 7620   5.885   3.378  10.927 -0.2823  0.4564  0.9880
   82SAPS  O13A 7621   5.970   3.468  10.955 -0.1674 -0.8521 -0.5478
   82SAPS  O13B 7622   5.869   3.281  10.997  0.4480  0.4209 -0.0089
   82SAPS   C11 7623   5.656   3.459  10.854  0.5861  0.6032 -0.4780
   82SAPS  H11A 7624   5.674   3.553  10.910 -0.7661  0.6807 -0.1250
   82SAPS  H11B 7625   5.611   3.382  10.919  0.1078  1.3303  0.0667
   82SAPS     P 7626   5.434   3.485  10.733  0.2025  0.1725 -0.0615
   82SAPS   O13 7627   5.384   3.353  10.700  0.4090  0.1163  0.2712
   82SAPS   O14 7628   5.389   3.547  10.859 -0.3337 -0.1450 -0.3039
   82SAPS   O12 7629   5.583   3.482  10.728  0.0148 -0.1526  0.0690
   82SAPS   O11 7630   5.390   3.595  10.622 -0.3066  0.4931 -0.4842
   82SAPS    C1 7631   5.442   3.611  10.490  0.1432  0.1105  0.0705
   82SAPS    HA 7632   5.408   3.711  10.455 -0.7820  0.7358  2.5323
   82SAPS    HB 7633   5.552   3.609  10.481  0.2342  0.7938  0.9113
   82SAPS    C2 7634   5.368   3.498  10.413 -0.3650  0.0158 -0.0090
   82SAPS    HS 7635   5.399   3.411  10.473 -0.5741  1.1000  1.7430
   82SAPS   O21 7636   5.425   3.497  10.279  0.2222  0.5634 -0.0808
   82SAPS   C21 7637   5.427   3.374  10.217 -0.1831 -0.1495 -0.5660
   82SAPS   O22 7638   5.407   3.269  10.273  0.0406 -0.2306 -0.5418
   82SAPS   C22 7639   5.444   3.394  10.069  0.1700 -0.0065  0.3219
   82SAPS   H2R 7640   5.551   3.388  10.041 -0.3126  0.2700 -1.7703
   82SAPS   H2S 7641   5.396   3.310  10.016  2.9112 -1.3504 -0.1954
   82SAPS    C3 7642   5.214   3.507  10.405 -0.5838  0.0914  0.5452
   82SAPS    HX 7643   5.187   3.613  10.382 -0.1635 -0.3863 -2.4501
   82SAPS    HY 7644   5.173   3.501  10.508  0.8263  0.6686  1.1729
   82SAPS   O31 7645   5.157   3.404  10.311  0.4127 -0.0770  0.0777
   82SAPS   C31 7646   5.123   3.285  10.366  0.5269 -0.7787  0.5261
   82SAPS   O32 7647   5.120   3.264  10.486 -0.4600 -0.1760  0.1677
   82SAPS   C32 7648   5.083   3.185  10.264 -0.2672 -0.4732  0.1716
   82SAPS   H2X 7649   5.182   3.161  10.220  0.8021  1.5520  1.3689
   82SAPS   H2Y 7650   5.030   3.239  10.182 -0.8431 -1.6688 -0.2852
   82SAPS   C23 7651   5.378   3.523  10.015 -0.4205  0.2944  0.5294
   82SAPS   H3R 7652   5.424   3.607  10.070 -0.8197  0.0747  1.2043
   82SAPS   H3S 7653   5.272   3.520  10.047 -0.0719  1.2416  1.8429
   82SAPS   C24 7654   5.397   3.535   9.863  0.5764 -0.0245 -0.1955
   82SAPS   H4R 7655   5.373   3.438   9.814  0.4355 -0.7886  1.3091
   82SAPS   H4S 7656   5.494   3.563   9.816 -0.1137  0.7594 -1.1827
   82SAPS   C25 7657   5.315   3.651   9.810 -0.3903  0.5000 -0.0227
   82SAPS   H5R 7658   5.297   3.729   9.885 -1.0865  2.3266 -1.9887
   82SAPS   C26 7659   5.251   3.660   9.696 -0.3474 -1.0799  0.8108
   82SAPS   H6R 7660   5.195   3.754   9.686  3.0505  1.3430  2.4097
   82SAPS   C27 7661   5.247   3.559   9.588  0.2814  0.1936  0.5421
   82SAPS   H7R 7662   5.151   3.559   9.532 -0.2669 -2.5607  1.3047
   82SAPS   H7S 7663   5.242   3.456   9.631 -0.3977 -1.6770 -3.4793
   82SAPS   C28 7664   5.373   3.571   9.494  0.2659 -0.6675 -0.1815
   82SAPS   H8R 7665   5.466   3.606   9.541 -0.5040  0.4248  0.6090
   82SAPS   C29 7666   5.370   3.528   9.365 -0.3346 -0.3101  0.0990
   82SAPS   H9R 7667   5.462   3.534   9.306  0.2029  0.9538  1.0095
   82SAPS  C210 7668   5.255   3.456   9.303  0.2246 -0.1101  0.2419
   82SAPS  H10R 7669   5.218   3.524   9.224  0.8394 -2.0950 -1.8645
   82SAPS  H10S 7670   5.163   3.431   9.361 -0.3334  2.7864  0.7325
   82SAPS  C211 7671   5.315   3.335   9.240  0.5964  0.0568  0.2744
   82SAPS  H11R 7672   5.317   3.239   9.293 -0.0391  0.5846  1.2790
   82SAPS  C212 7673   5.361   3.332   9.116  0.0195  0.5777 -0.4304
   82SAPS  H12R 7674   5.396   3.237   9.073  0.2356  0.6694 -0.4551
   82SAPS  C213 7675   5.371   3.443   9.020 -0.7176 -0.0607  0.0454
   82SAPS  H13R 7676   5.392   3.543   9.064 -0.9717 -0.2054  0.5044
   82SAPS  H13S 7677   5.265   3.454   8.987 -1.7345 -0.9815  2.7089
   82SAPS  C214 7678   5.467   3.422   8.908 -0.3680  0.4661 -0.4453
   82SAPS  H14R 7679   5.561   3.478   8.926  0.6346 -1.8851  2.4989
   82SAPS  C215 7680   5.445   3.346   8.798 -0.1113 -0.7743 -0.0453
   82SAPS  H15R 7681   5.518   3.343   8.716  0.0108  0.4781 -0.0031
   82SAPS  C216 7682   5.316   3.273   8.782 -0.2532 -0.7658 -0.2257
   82SAPS  H16R 7683   5.273   3.331   8.697 -1.2485  1.8467  1.9198
   82SAPS  H16S 7684   5.243   3.284   8.865 -0.5456  1.5279 -0.7283
   82SAPS  C217 7685   5.338   3.122   8.746  0.1765 -0.2771 -0.2759
   82SAPS  H17R 7686   5.237   3.078   8.728  0.5257 -1.0502 -0.3901
   82SAPS  H17S 7687   5.386   3.069   8.831  3.2219  2.7164  0.0411
   82SAPS  C218 7688   5.411   3.106   8.616  0.4593  0.0089 -0.7450
   82SAPS  H18R 7689   5.518   3.125   8.640  0.0059  4.4525 -1.4478
   82SAPS  H18S 7690   5.379   3.185   8.545  0.0271  0.3235 -0.2023
   82SAPS  C219 7691   5.377   2.971   8.552 -0.0209  0.1566 -0.0379
   82SAPS  H19R 7692   5.267   2.975   8.533  0.0225 -1.9158 -0.9251
   82SAPS  H19S 7693   5.411   2.888   8.617  2.9071  2.0529  1.0770
   82SAPS  C220 7694   5.446   2.952   8.415 -0.5023 -0.7430  0.0663
   82SAPS  H20R 7695   5.551   2.915   8.425  0.9028  2.4326 -1.3426
   82SAPS  H20S 7696   5.430   3.048   8.362 -2.6640  0.0789  2.0387
   82SAPS  H20T 7697   5.384   2.879   8.359 -0.5822 -1.7506  1.4169
   82SAPS   C33 7698   5.008   3.068  10.314 -0.9137 -0.2909 -0.2894
   82SAPS   H3X 7699   4.899   3.085  10.329 -1.0026  0.3507 -1.5433
   82SAPS   H3Y 7700   5.045   3.028  10.411 -1.6421 -1.5526 -0.5076
   82SAPS   C34 7701   5.021   2.945  10.230 -0.7726 -0.2716  0.3954
   82SAPS   H4X 7702   4.965   2.864  10.283  0.2837 -1.1802  0.1738
   82SAPS   H4Y 7703   5.128   2.920  10.215 -0.8209 -0.7770  0.8427
   82SAPS   C35 7704   4.952   2.971  10.097  0.5720  1.2210 -0.2602
   82SAPS   H5X 7705   5.007   3.051  10.042  3.4326 -0.2305  0.2839
   82SAPS   H5Y 7706   4.844   2.990  10.115  0.1369 -1.7960  0.8368
   82SAPS   C36 7707   4.961   2.836  10.024 -1.1112  0.1108 -0.1511
   82SAPS   H6X 7708   4.911   2.757  10.085  1.6775 -2.0155 -0.3969
   82SAPS   H6Y 7709   5.064   2.795  10.019 -1.6925 -1.3535 -0.9062
   82SAPS   C37 7710   4.896   2.826   9.888  0.1536 -0.3011  0.0624
   82SAPS   H7X 7711   4.792   2.863   9.883  0.2231  0.1588  1.4400
   82SAPS   H7Y 7712   4.893   2.719   9.858 -0.2602 -0.2157 -0.2057
   82SAPS   C38 7713   4.984   2.914   9.788 -0.1022 -0.7987  0.1339
   82SAPS   H8X 7714   5.085   2.869   9.787  1.1968  1.8645 -2.4030
   82SAPS   H8Y 7715   5.009   3.014   9.830 -0.3923  0.5575 -2.6975
   82SAPS   C39 7716   4.934   2.926   9.643 -0.3123  0.8023 -1.2931
   82SAPS   H9X 7717   5.003   2.991   9.585 -0.0111 -0.2992 -2.2084
   82SAPS   H9Y 7718   4.832   2.967   9.634 -1.4482 -0.2689  3.7615
   82SAPS  C310 7719   4.930   2.785   9.570  0.4490  0.7096  0.3131
   82SAPS  H10X 7720   4.865   2.710   9.621  3.0232  0.2372  3.2022
   82SAPS  H10Y 7721   5.028   2.737   9.552 -0.0966  0.7787 -3.8142
   82SAPS  C311 7722   4.889   2.778   9.420 -0.0475  0.1671 -0.2975
   82SAPS  H11X 7723   4.959   2.846   9.366  1.5649 -1.3653 -0.2148
   82SAPS  H11Y 7724   4.786   2.818   9.412 -0.3263 -0.0007  1.9838
   82SAPS  C312 7725   4.891   2.634   9.365 -0.0386  0.1565 -0.2253
   82SAPS  H12X 7726   4.799   2.583   9.399 -0.6206  0.3238 -1.4865
   82SAPS  H12Y 7727   4.984   2.579   9.392  0.9559  1.2961 -1.2306
   82SAPS  C313 7728   4.900   2.631   9.215 -0.1302  0.6428  0.8594
   82SAPS  H13X 7729   4.997   2.679   9.191  0.9779  0.3855  4.2536
   82SAPS  H13Y 7730   4.811   2.685   9.175 -0.1759 -1.3478 -2.0091
   82SAPS  C314 7731   4.879   2.491   9.160  0.6532 -0.9772 -0.2420
   82SAPS  H14X 7732   4.799   2.447   9.223  0.4161  1.0268  0.9440
   82SAPS  H14Y 7733   4.974   2.436   9.177  0.1393 -1.1167  2.7738
   82SAPS  C315 7734   4.828   2.480   9.013 -0.6190 -0.6694  0.0677
   82SAPS  H15X 7735   4.768   2.569   8.986  0.5474 -0.0577 -0.5932
   82SAPS  H15Y 7736   4.757   2.395   9.014 -0.7683 -0.5563 -0.4298
   82SAPS  C316 7737   4.938   2.461   8.910  0.7277 -0.0930 -0.0511
   82SAPS  H16X 7738   5.010   2.379   8.930  0.5098 -0.8956 -2.2624
   82SAPS  H16Y 7739   5.003   2.551   8.910 -0.0341  0.4993 -1.9096
   82SAPS  C317 7740   4.884   2.452   8.767 -0.6603  0.1600 -0.8912
   82SAPS  H17X 7741   4.971   2.426   8.704 -0.6160 -1.2460 -0.2706
   82SAPS  H17Y 7742   4.846   2.553   8.738  3.3136  1.1937 -3.3576
   82SAPS  C318 7743   4.769   2.350   8.762  0.5840  0.3932  0.1160
   82SAPS  H18X 7744   4.665   2.384   8.781 -0.4282 -1.3862 -1.8521
   82SAPS  H18Y 7745   4.791   2.262   8.827 -2.2478 -0.0997  0.5346
   82SAPS  H18Z 7746   4.777   2.312   8.658  1.1585 -0.7360  0.5513
   83SAPS     N 7747   6.492   6.170  10.793 -0.1137  0.5625  0.0928
   83SAPS   HN1 7748   6.555   6.161  10.876  1.3864 -2.4772 -1.2187
   83SAPS   HN2 7749   6.461   6.073  10.772 -1.1065  1.0953 -0.9723
   83SAPS   HN3 7750   6.537   6.194  10.702 -1.4337 -0.6851 -0.9327
   83SAPS   C12 7751   6.379   6.264  10.805 -0.1293  0.4350  0.0312
   83SAPS  H12A 7752   6.305   6.214  10.865 -1.1867  0.6672 -1.0420
   83SAPS   C13 7753   6.420   6.395  10.871  0.2102 -0.2332 -0.4665
   83SAPS  O13A 7754   6.542   6.426  10.870 -0.9886  0.3536 -0.0387
   83SAPS  O13B 7755   6.332   6.484  10.888 -0.6895  0.7358  0.0651
   83SAPS   C11 7756   6.304   6.278  10.668 -0.0612 -0.2069 -0.3595
   83SAPS  H11A 7757   6.225   6.353  10.688 -0.1419 -0.5578  0.6986
   83SAPS  H11B 7758   6.258   6.181  10.642 -0.2038 -0.7579  1.7584
   83SAPS     P 7759   6.367   6.418  10.450  0.0883 -0.3827 -0.1193
   83SAPS   O13 7760   6.358   6.552  10.514 -0.2044  0.1576  0.3458
   83SAPS   O14 7761   6.465   6.398  10.339  0.2838  0.0439 -0.1340
   83SAPS   O12 7762   6.397   6.319  10.571 -0.1482  0.1327  0.2475
   83SAPS   O11 7763   6.217   6.378  10.412  0.4392  0.1850 -0.1335
   83SAPS    C1 7764   6.186   6.254  10.344 -0.0851  0.6422 -0.5078
   83SAPS    HA 7765   6.239   6.174  10.400  0.6355  0.9860 -0.6913
   83SAPS    HB 7766   6.076   6.238  10.346 -0.2225  1.5647  0.0006
   83SAPS    C2 7767   6.237   6.250  10.195  0.2989 -0.3595 -0.2755
   83SAPS    HS 7768   6.348   6.242  10.192  0.1764 -2.7262  0.2841
   83SAPS   O21 7769   6.186   6.371  10.126 -0.8875 -0.1660  0.4201
   83SAPS   C21 7770   6.263   6.405  10.021 -0.4917  0.1962 -1.2474
   83SAPS   O22 7771   6.368   6.357   9.989 -0.0377  0.7063 -0.1362
   83SAPS   C22 7772   6.187   6.499   9.944  0.2333 -0.1227 -0.9934
   83SAPS   H2R 7773   6.090   6.446   9.932  0.3830 -1.9302  3.6905
   83SAPS   H2S 7774   6.166   6.591  10.004 -0.1240 -0.2580 -0.9078
   83SAPS    C3 7775   6.184   6.122  10.133  0.1070 -0.4010 -0.5944
   83SAPS    HX 7776   6.073   6.127  10.142  0.1645 -0.6796  0.4359
   83SAPS    HY 7777   6.213   6.034  10.194  0.2402  0.0071 -0.0569
   83SAPS   O31 7778   6.210   6.115   9.993 -0.0421 -0.3692 -0.4944
   83SAPS   C31 7779   6.328   6.049   9.962 -0.1742  0.8773  0.6990
   83SAPS   O32 7780   6.395   5.995  10.045  0.1111  0.0840  0.4317
   83SAPS   C32 7781   6.376   6.054   9.822 -0.2308 -0.2247 -0.1192
   83SAPS   H2X 7782   6.387   6.162   9.797 -2.1647 -0.1111 -0.6534
   83SAPS   H2Y 7783   6.297   6.015   9.754 -1.1279  1.2187  0.0434
   83SAPS   C23 7784   6.248   6.546   9.812 -0.4790  0.1374 -0.3760
   83SAPS   H3R 7785   6.271   6.459   9.748 -1.1792  0.2314 -0.7662
   83SAPS   H3S 7786   6.342   6.597   9.844  0.3578 -1.0132 -0.9400
   83SAPS   C24 7787   6.157   6.640   9.735  1.4102 -0.6733 -0.1655
   83SAPS   H4R 7788   6.158   6.741   9.781 -0.0533 -0.2359 -1.0251
   83SAPS   H4S 7789   6.049   6.615   9.723  0.9422  0.9474  0.4456
   83SAPS   C25 7790   6.219   6.652   9.595  0.3120 -0.0044  0.0820
   83SAPS   H5R 7791   6.188   6.566   9.533 -2.2404  0.3664  0.7263
   83SAPS   C26 7792   6.290   6.755   9.538  0.5593  0.3330 -0.3735
   83SAPS   H6R 7793   6.328   6.737   9.436  3.7607  0.2329  0.7493
   83SAPS   C27 7794   6.326   6.890   9.608 -0.2143  0.3730 -0.1206
   83SAPS   H7R 7795   6.396   6.873   9.693 -2.2779 -0.5433  1.4674
   83SAPS   H7S 7796   6.236   6.929   9.659 -0.0660  2.9225 -1.6404
   83SAPS   C28 7797   6.381   6.998   9.518 -0.3219  0.3445 -1.0316
   83SAPS   H8R 7798   6.317   7.082   9.488 -2.1849 -0.3261  0.7894
   83SAPS   C29 7799   6.503   6.996   9.461  0.4193 -0.5609  0.5385
   83SAPS   H9R 7800   6.542   7.089   9.418 -1.4245  0.0831  0.1691
   83SAPS  C210 7801   6.616   6.905   9.469  0.1032  0.9114  0.5502
   83SAPS  H10R 7802   6.678   6.900   9.377 -2.2224 -2.4113 -1.0685
   83SAPS  H10S 7803   6.574   6.802   9.464  1.6414  0.3232 -1.9315
   83SAPS  C211 7804   6.693   6.907   9.597  0.2054 -0.8148 -0.0958
   83SAPS  H11R 7805   6.628   6.901   9.685  1.5646  0.8643  1.0754
   83SAPS  C212 7806   6.825   6.939   9.606  0.4967 -0.3796 -0.0806
   83SAPS  H12R 7807   6.865   6.946   9.708  0.6142  2.9393 -0.2607
   83SAPS  C213 7808   6.924   6.960   9.496  0.7267 -0.8801  0.2172
   83SAPS  H13R 7809   6.898   6.890   9.414 -0.1573 -0.2506 -0.0556
   83SAPS  H13S 7810   7.024   6.925   9.530 -0.5877 -1.9634  3.3993
   83SAPS  C214 7811   6.916   7.094   9.432  0.2366  0.6750  1.0667
   83SAPS  H14R 7812   6.860   7.168   9.491 -0.6554 -0.1318  1.2728
   83SAPS  C215 7813   6.966   7.133   9.314  0.0217  0.0852  0.0857
   83SAPS  H15R 7814   6.959   7.237   9.280  2.9869 -0.1874 -1.7411
   83SAPS  C216 7815   7.053   7.048   9.221 -0.2412 -0.0631 -0.1067
   83SAPS  H16R 7816   7.074   6.950   9.268  1.2463 -0.8898 -2.3295
   83SAPS  H16S 7817   7.153   7.095   9.208  0.4313 -0.8969  1.6852
   83SAPS  C217 7818   6.980   7.026   9.085 -0.1109 -0.0140 -0.4499
   83SAPS  H17R 7819   7.020   7.106   9.019 -0.2152 -1.2167 -2.0326
   83SAPS  H17S 7820   6.870   7.027   9.079 -0.1546 -0.7616  0.0806
   83SAPS  C218 7821   7.027   6.891   9.042  0.3808 -0.0328  0.2048
   83SAPS  H18R 7822   6.997   6.823   9.124 -0.5905  0.3469  0.1812
   83SAPS  H18S 7823   7.138   6.883   9.032  0.4543  1.1273 -0.1129
   83SAPS  C219 7824   6.955   6.859   8.906  0.1133  0.1843 -0.0627
   83SAPS  H19R 7825   6.844   6.871   8.905  0.1454  0.4689 -0.8988
   83SAPS  H19S 7826   6.981   6.753   8.888 -1.3499 -0.5578  1.8138
   83SAPS  C220 7827   7.017   6.946   8.796  0.2964 -0.9100 -0.8730
   83SAPS  H20R 7828   7.021   7.053   8.826 -0.4038 -1.3533  0.9555
   83SAPS  H20S 7829   6.957   6.949   8.703 -0.6216  1.0415 -0.2642
   83SAPS  H20T 7830   7.120   6.912   8.773  0.4840 -0.1742 -1.1600
   83SAPS   C33 7831   6.511   5.994   9.784  0.3518  1.0660  0.0306
   83SAPS   H3X 7832   6.529   5.889   9.817 -1.4652  0.5851 -0.3872
   83SAPS   H3Y 7833   6.595   6.046   9.834 -0.4274  1.0411  1.4004
   83SAPS   C34 7834   6.517   6.008   9.629  0.4774 -0.3480 -0.5563
   83SAPS   H4X 7835   6.524   6.118   9.617 -0.4595 -0.2390 -0.1813
   83SAPS   H4Y 7836   6.429   5.967   9.574 -0.2333  0.1016  0.2286
   83SAPS   C35 7837   6.643   5.942   9.574  0.1417 -0.3456 -0.1629
   83SAPS   H5X 7838   6.658   5.834   9.594  1.8705 -0.7164 -2.8106
   83SAPS   H5Y 7839   6.722   6.011   9.611 -1.6861  1.9334 -0.3333
   83SAPS   C36 7840   6.650   5.951   9.418  0.0842  0.3363 -0.8400
   83SAPS   H6X 7841   6.546   5.964   9.382  0.1884  2.0186 -0.6092
   83SAPS   H6Y 7842   6.691   5.856   9.378  0.7679 -1.1161  2.8672
   83SAPS   C37 7843   6.740   6.068   9.375  0.4913 -0.0521 -0.6806
   83SAPS   H7X 7844   6.847   6.051   9.401  0.7120 -1.1210 -2.1277
   83SAPS   H7Y 7845   6.709   6.167   9.416  0.7016 -0.8711  1.6261
   83SAPS   C38 7846   6.740   6.089   9.222 -0.3216 -0.3710 -0.0935
   83SAPS   H8X 7847   6.792   6.184   9.199  0.8053 -0.1752  2.8798
   83SAPS   H8Y 7848   6.634   6.089   9.189 -0.7445 -0.5300  1.1916
   83SAPS   C39 7849   6.800   5.969   9.143 -0.3729  0.0351  0.0083
   83SAPS   H9X 7850   6.719   5.893   9.134 -0.5012 -0.0484  1.5319
   83SAPS   H9Y 7851   6.883   5.935   9.208 -0.6472 -0.9598 -0.1435
   83SAPS  C310 7852   6.860   6.005   8.998 -0.0849 -0.1249  0.0463
   83SAPS  H10X 7853   6.877   5.908   8.947 -0.9798 -0.1369 -0.2477
   83SAPS  H10Y 7854   6.959   6.052   9.016 -0.3140 -0.0605  1.1695
   83SAPS  C311 7855   6.774   6.089   8.903  0.0789 -0.3169 -0.7664
   83SAPS  H11X 7856   6.763   6.194   8.938  1.6862  0.7794 -3.2770
   83SAPS  H11Y 7857   6.674   6.047   8.876 -0.5645  0.4010  0.4131
   83SAPS  C312 7858   6.842   6.115   8.770  0.2917  0.7787  0.2667
   83SAPS  H12X 7859   6.946   6.153   8.772  1.2619 -1.5968 -0.9591
   83SAPS  H12Y 7860   6.772   6.184   8.717 -1.6607 -0.5835  0.9526
   83SAPS  C313 7861   6.820   5.997   8.675  0.4077 -1.0296  0.9528
   83SAPS  H13X 7862   6.713   5.965   8.677 -0.1432  0.6909  0.4101
   83SAPS  H13Y 7863   6.889   5.913   8.700  1.4823  0.2057  2.3173
   83SAPS  C314 7864   6.834   6.015   8.521 -0.3678 -0.4250 -0.0648
   83SAPS  H14X 7865   6.939   6.044   8.498 -0.8395  0.4303 -1.2313
   83SAPS  H14Y 7866   6.768   6.090   8.473  0.6014  0.2313 -0.4011
   83SAPS  C315 7867   6.812   5.886   8.450  0.2454  0.3421 -0.0855
   83SAPS  H15X 7868   6.711   5.841   8.447  0.9302 -1.2524 -3.4175
   83SAPS  H15Y 7869   6.875   5.806   8.495 -1.1187  0.3847  2.0221
   83SAPS  C316 7870   6.875   5.916   8.312 -0.1943  0.2832  0.1492
   83SAPS  H16X 7871   6.985   5.935   8.309 -0.1047 -0.3133 -0.4190
   83SAPS  H16Y 7872   6.835   6.015   8.280 -0.6375  0.6527  1.7156
   83SAPS  C317 7873   6.861   5.804   8.215  0.3031  1.0978  0.2106
   83SAPS  H17X 7874   6.889   5.710   8.268 -2.2241 -0.6462 -1.3382
   83SAPS  H17Y 7875   6.922   5.819   8.123 -1.0007 -1.1497 -1.1181
   83SAPS  C318 7876   6.719   5.794   8.153 -0.4957 -0.4735 -0.5642
   83SAPS  H18X 7877   6.713   5.753   8.051  0.8506  1.3106 -1.4144
   83SAPS  H18Y 7878   6.677   5.897   8.151  0.7855  0.0892 -0.0112
   83SAPS  H18Z 7879   6.655   5.743   8.229  0.8603 -0.4036  0.6793
   84SAPS     N 7880   1.687   5.130  11.144  0.7767  0.5136  0.5052
   84SAPS   HN1 7881   1.694   5.231  11.119  3.6395  0.1549 -0.5376
   84SAPS   HN2 7882   1.653   5.135  11.242 -0.9384  0.2316 -0.0418
   84SAPS   HN3 7883   1.781   5.087  11.136  0.5127 -0.0685  0.5102
   84SAPS   C12 7884   1.576   5.082  11.059  0.6375  0.0718 -0.3849
   84SAPS  H12A 7885   1.557   4.981  11.094 -0.2112  0.7268  1.1835
   84SAPS   C13 7886   1.445   5.165  11.074 -0.2917  0.0926 -0.3646
   84SAPS  O13A 7887   1.445   5.273  11.147  0.2596 -0.4667  0.3292
   84SAPS  O13B 7888   1.341   5.128  11.018  0.0814  0.5009  0.0369
   84SAPS   C11 7889   1.625   5.065  10.912  0.0267 -0.8355  0.4866
   84SAPS  H11A 7890   1.637   5.169  10.874 -2.0795 -0.8360 -0.2715
   84SAPS  H11B 7891   1.542   5.025  10.851 -1.1360  1.7431  0.2540
   84SAPS     P 7892   1.755   4.856  10.828 -0.6923 -0.4739  0.1181
   84SAPS   O13 7893   1.898   4.812  10.817  0.1827 -0.7942 -0.7228
   84SAPS   O14 7894   1.672   4.764  10.902  0.5160  0.1247 -0.2364
   84SAPS   O12 7895   1.748   5.002  10.896  0.8920  0.0993 -0.4093
   84SAPS   O11 7896   1.704   4.884  10.679  0.2723  0.1288  0.3253
   84SAPS    C1 7897   1.664   4.770  10.599  0.3840 -0.3658  0.7568
   84SAPS    HA 7898   1.646   4.679  10.659 -0.7264  0.7912  2.2469
   84SAPS    HB 7899   1.566   4.797  10.553 -0.1374 -3.9127 -0.4777
   84SAPS    C2 7900   1.764   4.742  10.482  0.2947 -0.0648 -0.9625
   84SAPS    HS 7901   1.799   4.837  10.436 -0.5266  0.7888  0.1037
   84SAPS   O21 7902   1.691   4.672  10.373  0.3986  0.3036  0.1534
   84SAPS   C21 7903   1.645   4.550  10.398  1.0827 -0.2958 -0.1770
   84SAPS   O22 7904   1.650   4.493  10.507 -0.0988 -0.2187  0.4283
   84SAPS   C22 7905   1.579   4.496  10.275  0.2093 -0.1796 -0.3195
   84SAPS   H2R 7906   1.656   4.472  10.199  1.0779  2.2489 -0.2770
   84SAPS   H2S 7907   1.522   4.403  10.300 -1.1452  0.0280 -2.3582
   84SAPS    C3 7908   1.894   4.670  10.515  0.4033  0.9811 -0.1879
   84SAPS    HX 7909   1.863   4.589  10.586  1.9563 -0.6710 -1.2878
   84SAPS    HY 7910   1.965   4.727  10.579  0.3699 -0.3691  1.1349
   84SAPS   O31 7911   1.964   4.616  10.401  0.1336  0.0851 -0.6776
   84SAPS   C31 7912   1.998   4.708  10.309  0.0824  0.1987 -0.0648
   84SAPS   O32 7913   2.024   4.822  10.335  0.5048  0.0537 -0.2185
   84SAPS   C32 7914   2.005   4.641  10.174 -0.2634  0.5846  0.1637
   84SAPS   H2X 7915   1.923   4.567  10.160 -1.1910  1.5908  0.0803
   84SAPS   H2Y 7916   2.105   4.594  10.168 -0.5406  0.0385 -0.2750
   84SAPS   C23 7917   1.490   4.593  10.194 -0.2328  0.2591 -0.0947
   84SAPS   H3R 7918   1.545   4.689  10.181  0.5092 -0.1970 -0.3524
   84SAPS   H3S 7919   1.393   4.612  10.246 -1.2053  0.4674 -1.9125
   84SAPS   C24 7920   1.473   4.535  10.053 -0.0919  0.0105  0.3882
   84SAPS   H4R 7921   1.560   4.479  10.013  0.3390 -0.9182  2.5084
   84SAPS   H4S 7922   1.450   4.624   9.989 -0.3307 -1.8381 -2.2468
   84SAPS   C25 7923   1.347   4.447  10.051 -0.1224 -0.3436  0.1184
   84SAPS   H5R 7924   1.278   4.465  10.135 -1.3692  1.9642 -1.2901
   84SAPS   C26 7925   1.316   4.365   9.951 -0.4333  0.3470 -0.3198
   84SAPS   H6R 7926   1.221   4.311   9.961 -0.4550  0.5861  0.8817
   84SAPS   C27 7927   1.385   4.341   9.818  0.1882 -0.0174 -0.4419
   84SAPS   H7R 7928   1.491   4.311   9.834 -0.6582 -2.4318  1.4210
   84SAPS   H7S 7929   1.365   4.438   9.770 -0.3130  0.3138  0.4088
   84SAPS   C28 7930   1.332   4.236   9.727  0.3587  0.3422  0.1300
   84SAPS   H8R 7931   1.288   4.153   9.784 -3.2601  2.1202  0.1633
   84SAPS   C29 7932   1.335   4.225   9.589  0.4339 -0.3974 -0.6150
   84SAPS   H9R 7933   1.273   4.141   9.552  0.0628 -1.1014  1.4777
   84SAPS  C210 7934   1.395   4.324   9.490 -0.9194  0.3391 -0.2888
   84SAPS  H10R 7935   1.498   4.351   9.523 -0.4550 -0.9024 -0.6753
   84SAPS  H10S 7936   1.339   4.420   9.501  1.0770  1.2985  2.9006
   84SAPS  C211 7937   1.409   4.256   9.352  0.2806 -0.3369 -0.2670
   84SAPS  H11R 7938   1.468   4.164   9.353  0.1891 -0.3936 -0.0115
   84SAPS  C212 7939   1.359   4.294   9.235 -0.0036  0.0363 -0.3595
   84SAPS  H12R 7940   1.374   4.224   9.152 -0.2755 -0.2377 -0.1795
   84SAPS  C213 7941   1.272   4.415   9.200 -0.8937  0.5153 -0.5890
   84SAPS  H13R 7942   1.340   4.497   9.170 -0.1148  0.1752  0.1816
   84SAPS  H13S 7943   1.221   4.453   9.291 -1.7011 -1.8052 -0.0091
   84SAPS  C214 7944   1.170   4.389   9.089 -0.2810 -0.4605 -0.4374
   84SAPS  H14R 7945   1.067   4.397   9.128  0.4551 -2.6392  2.2961
   84SAPS  C215 7946   1.194   4.351   8.962 -0.1514  0.2921  0.4023
   84SAPS  H15R 7947   1.111   4.330   8.893  0.6624  0.4342 -0.6592
   84SAPS  C216 7948   1.340   4.324   8.913  0.2071 -0.4453 -0.1348
   84SAPS  H16R 7949   1.358   4.218   8.941 -1.0890 -0.4228  0.8826
   84SAPS  H16S 7950   1.413   4.383   8.972  0.3594  1.1436 -1.8267
   84SAPS  C217 7951   1.368   4.365   8.765  0.4701  0.2660  0.0173
   84SAPS  H17R 7952   1.298   4.314   8.695 -1.1388  1.3079  0.8124
   84SAPS  H17S 7953   1.470   4.332   8.736  0.3949  0.3472 -0.3434
   84SAPS  C218 7954   1.352   4.515   8.738 -0.4162  0.8067  0.5733
   84SAPS  H18R 7955   1.451   4.562   8.758 -0.7628  1.4364  0.8032
   84SAPS  H18S 7956   1.277   4.557   8.808 -0.3123 -0.9574  1.8223
   84SAPS  C219 7957   1.322   4.559   8.594  0.4453 -0.2396 -0.9042
   84SAPS  H19R 7958   1.393   4.513   8.522  0.5765 -0.5236 -0.5940
   84SAPS  H19S 7959   1.337   4.668   8.584  0.5946 -0.2764 -1.0804
   84SAPS  C220 7960   1.173   4.533   8.565  0.2880 -0.4555 -0.5122
   84SAPS  H20R 7961   1.132   4.577   8.472 -1.0452  0.9586  0.7118
   84SAPS  H20S 7962   1.114   4.575   8.648  1.9334  0.0373  0.4580
   84SAPS  H20T 7963   1.163   4.422   8.566  2.4278 -0.6953 -0.1324
   84SAPS   C33 7964   1.995   4.733  10.058  0.3083  0.2928 -0.5529
   84SAPS   H3X 7965   2.024   4.670   9.971  1.3914 -2.1837  1.4723
   84SAPS   H3Y 7966   2.071   4.813  10.072  0.6958 -0.0122 -0.8795
   84SAPS   C34 7967   1.857   4.785  10.033  1.3903 -0.2611 -0.3403
   84SAPS   H4X 7968   1.843   4.870  10.102 -0.2657 -0.7319 -0.0419
   84SAPS   H4Y 7969   1.776   4.711  10.051  0.7470  0.8457  1.5438
   84SAPS   C35 7970   1.836   4.819   9.882 -0.1362 -0.2136 -0.0773
   84SAPS   H5X 7971   1.887   4.739   9.824  2.0783  0.4077  0.9143
   84SAPS   H5Y 7972   1.894   4.910   9.853 -1.4028  0.1762 -1.5737
   84SAPS   C36 7973   1.687   4.825   9.839 -0.6014  0.3883 -0.4762
   84SAPS   H6X 7974   1.617   4.894   9.892  0.4153  0.8382  0.3097
   84SAPS   H6Y 7975   1.645   4.724   9.859  2.0936 -0.6278  0.4796
   84SAPS   C37 7976   1.689   4.866   9.689  0.7837  0.2914  0.1181
   84SAPS   H7X 7977   1.777   4.818   9.641 -0.3963 -0.2962 -1.5158
   84SAPS   H7Y 7978   1.688   4.977   9.681  0.4858  0.3269  0.6445
   84SAPS   C38 7979   1.558   4.814   9.625  0.4693  0.3885  0.3059
   84SAPS   H8X 7980   1.469   4.862   9.672  0.3872 -1.7162  2.5437
   84SAPS   H8Y 7981   1.531   4.709   9.653 -3.3515  0.8693 -0.9528
   84SAPS   C39 7982   1.570   4.817   9.466  0.2137  0.4752  0.1906
   84SAPS   H9X 7983   1.671   4.783   9.435  0.2341  1.8678 -1.3590
   84SAPS   H9Y 7984   1.573   4.923   9.434 -3.2753  0.6623  0.0382
   84SAPS  C310 7985   1.460   4.735   9.392  0.2363  0.0351 -0.1921
   84SAPS  H10X 7986   1.363   4.772   9.432  0.0444 -0.5036 -0.1477
   84SAPS  H10Y 7987   1.469   4.632   9.433 -2.9919  0.0404  0.7794
   84SAPS  C311 7988   1.467   4.738   9.240  0.2551 -0.5402  0.1207
   84SAPS  H11X 7989   1.462   4.846   9.214 -2.1674 -0.5335  0.3331
   84SAPS  H11Y 7990   1.370   4.712   9.193 -1.3492  2.7757  1.2786
   84SAPS  C312 7991   1.575   4.663   9.176 -0.5302  0.6351 -0.1602
   84SAPS  H12X 7992   1.564   4.554   9.195  1.9365  0.1014 -1.4202
   84SAPS  H12Y 7993   1.672   4.704   9.211  0.4909 -0.7140 -1.2521
   84SAPS  C313 7994   1.589   4.687   9.026  0.3020  0.0802 -0.3428
   84SAPS  H13X 7995   1.590   4.793   8.993 -1.7140  0.9657  2.0980
   84SAPS  H13Y 7996   1.512   4.632   8.968 -0.0046 -2.3673  2.1704
   84SAPS  C314 7997   1.720   4.624   8.972  0.1447 -0.3224 -0.3330
   84SAPS  H14X 7998   1.721   4.515   8.992  2.4349  0.0041  1.9055
   84SAPS  H14Y 7999   1.812   4.639   9.034  0.9536 -1.4743 -1.2032
   84SAPS  C315 8000   1.744   4.668   8.829 -0.2376  0.7616  0.4853
   84SAPS  H15X 8001   1.766   4.776   8.840  0.0158  0.8262 -0.6066
   84SAPS  H15Y 8002   1.646   4.655   8.779  1.4246 -2.1990 -2.4203
   84SAPS  C316 8003   1.863   4.591   8.762  0.2279  0.2362  0.5165
   84SAPS  H16X 8004   1.833   4.487   8.739 -1.2468  0.5589  0.9071
   84SAPS  H16Y 8005   1.955   4.592   8.825  1.7270  2.8316 -1.4898
   84SAPS  C317 8006   1.894   4.672   8.635  0.3101  0.1063  0.6733
   84SAPS  H17X 8007   1.981   4.624   8.584 -0.8012  0.7007 -1.9215
   84SAPS  H17Y 8008   1.924   4.776   8.658  0.9052 -0.0301  0.5396
   84SAPS  C318 8009   1.793   4.684   8.520 -0.1514 -0.8375 -0.0033
   84SAPS  H18X 8010   1.702   4.738   8.554  0.5571  1.4082 -1.4154
   84SAPS  H18Y 8011   1.759   4.586   8.481  0.7313 -0.3901 -2.0207
   84SAPS  H18Z 8012   1.847   4.717   8.428  1.2981  0.8836  1.3776
   85SAPS     N 8013   6.472   6.663  10.737 -0.1563 -0.1778  0.4394
   85SAPS   HN1 8014   6.391   6.718  10.772 -0.3873 -0.3714  0.2071
   85SAPS   HN2 8015   6.451   6.593  10.663 -0.3901 -1.0625  1.3149
   85SAPS   HN3 8016   6.511   6.605  10.814  0.5372 -0.3130 -0.0039
   85SAPS   C12 8017   6.571   6.767  10.703 -0.3488 -0.2449  0.1355
   85SAPS  H12A 8018   6.522   6.847  10.649 -1.2810 -1.1621 -0.4259
   85SAPS   C13 8019   6.644   6.826  10.825  0.4759  1.0099 -0.7295
   85SAPS  O13A 8020   6.611   6.786  10.940  0.3803  0.4884  0.3391
   85SAPS  O13B 8021   6.696   6.937  10.815  0.2740  0.8379  0.0440
   85SAPS   C11 8022   6.674   6.710  10.616  0.3761  0.1376 -0.1233
   85SAPS  H11A 8023   6.748   6.790  10.594 -0.0647  0.4965 -0.3360
   85SAPS  H11B 8024   6.622   6.689  10.520  0.1302  0.0669  0.0250
   85SAPS     P 8025   6.863   6.524  10.603 -0.0926  0.4430 -0.2130
   85SAPS   O13 8026   6.990   6.584  10.653 -0.3285  0.2318 -0.5337
   85SAPS   O14 8027   6.845   6.376  10.606  0.2404  0.2556 -0.4247
   85SAPS   O12 8028   6.733   6.595  10.672 -0.4633  0.8305 -0.5006
   85SAPS   O11 8029   6.848   6.572  10.460 -0.2101  0.4108  0.7021
   85SAPS    C1 8030   6.853   6.488  10.338 -0.0614  0.5632 -0.7178
   85SAPS    HA 8031   6.797   6.393  10.354 -2.3262  2.0211  0.6381
   85SAPS    HB 8032   6.791   6.521  10.252 -1.2753  1.9459  0.6277
   85SAPS    C2 8033   6.992   6.468  10.289 -0.0325  0.2265 -0.3007
   85SAPS    HS 8034   7.049   6.448  10.382 -0.9947  0.3180  0.3229
   85SAPS   O21 8035   7.032   6.590  10.236 -0.4515 -0.4769  0.1883
   85SAPS   C21 8036   7.155   6.611  10.203  0.4845  0.3724  0.8291
   85SAPS   O22 8037   7.251   6.542  10.229  0.1912  0.6979  0.2064
   85SAPS   C22 8038   7.153   6.754  10.136  0.2706  0.0307 -0.1753
   85SAPS   H2R 8039   7.101   6.819  10.209 -1.5394 -2.0717  0.5428
   85SAPS   H2S 8040   7.257   6.790  10.122  1.0178 -1.7056  0.5727
   85SAPS    C3 8041   7.005   6.353  10.184  0.6660 -0.2275  0.2422
   85SAPS    HX 8042   6.960   6.256  10.214 -1.0211  0.9196  1.5450
   85SAPS    HY 8043   7.113   6.344  10.159  0.4438  1.0538 -1.3393
   85SAPS   O31 8044   6.954   6.406  10.065 -0.1146  0.1148  0.9928
   85SAPS   C31 8045   6.830   6.376  10.029 -0.0885 -0.0770 -0.0748
   85SAPS   O32 8046   6.753   6.305  10.092 -0.1089 -0.1169 -0.6045
   85SAPS   C32 8047   6.792   6.432   9.890 -0.6782 -0.7451  0.2098
   85SAPS   H2X 8048   6.887   6.441   9.833 -1.4549 -1.8901 -1.3186
   85SAPS   H2Y 8049   6.753   6.534   9.907 -0.1769 -0.4370 -0.4748
   85SAPS   C23 8050   7.066   6.754  10.003  0.2407  0.7164  0.6166
   85SAPS   H3R 8051   7.066   6.860   9.971 -0.1355  0.1207 -1.5534
   85SAPS   H3S 8052   6.964   6.721  10.032  0.0836  1.1672  0.5733
   85SAPS   C24 8053   7.122   6.657   9.897 -0.0437  1.1057 -0.0538
   85SAPS   H4R 8054   7.100   6.553   9.928  2.5107  0.5707  0.2032
   85SAPS   H4S 8055   7.233   6.666   9.891 -0.0070 -0.1554 -3.3246
   85SAPS   C25 8056   7.071   6.690   9.760  0.1050  0.5672 -0.1338
   85SAPS   H5R 8057   7.010   6.781   9.747  0.3226  0.8359  0.6587
   85SAPS   C26 8058   7.081   6.605   9.655 -0.1714 -0.7298 -0.7178
   85SAPS   H6R 8059   7.046   6.633   9.554 -0.9266 -1.1716 -0.5886
   85SAPS   C27 8060   7.148   6.467   9.646  0.3718 -0.0436 -0.5239
   85SAPS   H7R 8061   7.171   6.430   9.748  1.7776 -0.8251 -1.1092
   85SAPS   H7S 8062   7.244   6.475   9.591 -0.5034 -0.4415 -2.1570
   85SAPS   C28 8063   7.057   6.369   9.568  0.7025  0.2833 -0.8499
   85SAPS   H8R 8064   7.004   6.301   9.636  2.3745  0.8284  1.1039
   85SAPS   C29 8065   7.067   6.348   9.436  1.2828  0.2747  0.4345
   85SAPS   H9R 8066   6.989   6.286   9.389  1.0895  1.7801 -1.3470
   85SAPS  C210 8067   7.144   6.425   9.335  0.1833  0.1486  0.4932
   85SAPS  H10R 8068   7.199   6.366   9.258 -0.6820  1.4983 -1.2206
   85SAPS  H10S 8069   7.218   6.495   9.379  2.4797 -0.3071 -2.3200
   85SAPS  C211 8070   7.045   6.509   9.258 -0.2957  0.7894 -0.0884
   85SAPS  H11R 8071   7.011   6.594   9.319 -0.4329  0.3522  0.4490
   85SAPS  C212 8072   6.996   6.487   9.129 -1.4871 -0.2610  0.4618
   85SAPS  H12R 8073   6.920   6.562   9.100 -2.4684 -0.9652  1.1636
   85SAPS  C213 8074   7.032   6.372   9.036 -0.3589 -0.0479  0.3736
   85SAPS  H13R 8075   6.950   6.297   9.042  1.3477 -2.1759 -1.2185
   85SAPS  H13S 8076   7.125   6.322   9.069  0.0136 -0.8280 -1.6681
   85SAPS  C214 8077   7.045   6.409   8.891 -0.1509 -1.1226  0.2118
   85SAPS  H14R 8078   6.963   6.374   8.826  0.0463 -1.2710  0.0442
   85SAPS  C215 8079   7.160   6.460   8.832 -0.1049 -0.2294  0.3785
   85SAPS  H15R 8080   7.160   6.468   8.723 -1.2370  0.2090  0.3994
   85SAPS  C216 8081   7.291   6.489   8.904  0.6351  0.6470 -0.0109
   85SAPS  H16R 8082   7.340   6.392   8.924 -2.6265 -1.3344 -0.8614
   85SAPS  H16S 8083   7.276   6.528   9.007 -0.6410 -0.9738  0.4562
   85SAPS  C217 8084   7.387   6.576   8.830 -0.0816 -0.6005 -0.4438
   85SAPS  H17R 8085   7.476   6.598   8.893  1.2920 -1.3211 -2.0232
   85SAPS  H17S 8086   7.337   6.673   8.812 -0.1973 -0.8901 -1.8042
   85SAPS  C218 8087   7.439   6.507   8.707 -0.7414 -0.0656  0.9245
   85SAPS  H18R 8088   7.359   6.483   8.635  0.1793  0.9692 -0.4988
   85SAPS  H18S 8089   7.474   6.404   8.730  0.3925  0.8026  3.6116
   85SAPS  C219 8090   7.544   6.595   8.630 -0.6559  0.0698  0.4123
   85SAPS  H19R 8091   7.599   6.538   8.552 -0.7976 -0.3411  0.6120
   85SAPS  H19S 8092   7.629   6.628   8.694  0.1213  1.6936 -1.3736
   85SAPS  C220 8093   7.481   6.709   8.555 -0.4920  0.0115  0.3048
   85SAPS  H20R 8094   7.475   6.795   8.625  3.1225  0.6031  0.0948
   85SAPS  H20S 8095   7.379   6.688   8.517 -0.5208 -1.0027  0.8989
   85SAPS  H20T 8096   7.552   6.742   8.476 -1.3974 -0.6351 -0.8055
   85SAPS   C33 8097   6.690   6.346   9.819 -0.2353 -0.1636  0.5524
   85SAPS   H3X 8098   6.608   6.324   9.889 -2.3691 -1.7596 -2.2449
   85SAPS   H3Y 8099   6.733   6.244   9.810 -0.6130 -0.3876  1.2557
   85SAPS   C34 8100   6.615   6.406   9.701  0.3818  0.7029  0.4360
   85SAPS   H4X 8101   6.557   6.496   9.732  1.9848  1.8345  0.2339
   85SAPS   H4Y 8102   6.539   6.329   9.676  2.2060 -0.2764 -2.5231
   85SAPS   C35 8103   6.698   6.433   9.574 -0.4110  0.5356  0.2038
   85SAPS   H5X 8104   6.766   6.345   9.572  0.8329  1.4394  0.9260
   85SAPS   H5Y 8105   6.751   6.530   9.581  0.1713  0.2477 -0.1497
   85SAPS   C36 8106   6.624   6.437   9.447  0.0803  0.1105  0.6746
   85SAPS   H6X 8107   6.540   6.507   9.468  0.9642  0.4826  3.4508
   85SAPS   H6Y 8108   6.569   6.343   9.424 -0.8951  0.5877  1.0105
   85SAPS   C37 8109   6.705   6.480   9.328 -0.1154  0.2504 -0.0035
   85SAPS   H7X 8110   6.740   6.396   9.264  0.5413  0.8864 -0.4946
   85SAPS   H7Y 8111   6.791   6.532   9.375  0.5708 -1.1585  0.3626
   85SAPS   C38 8112   6.643   6.589   9.245  0.1709 -0.5832  0.5441
   85SAPS   H8X 8113   6.713   6.628   9.168 -0.9514  2.1059  0.7743
   85SAPS   H8Y 8114   6.615   6.671   9.314  1.4059  0.8453 -0.5955
   85SAPS   C39 8115   6.506   6.559   9.168  0.2708  0.2471 -0.2404
   85SAPS   H9X 8116   6.432   6.542   9.249  0.0225  0.8609 -0.3356
   85SAPS   H9Y 8117   6.519   6.466   9.109 -0.0991  0.3341 -0.4573
   85SAPS  C310 8118   6.461   6.672   9.074 -0.0493  0.2751  0.5011
   85SAPS  H10X 8119   6.403   6.620   8.994 -0.1602  0.1696  0.6511
   85SAPS  H10Y 8120   6.554   6.709   9.027  0.3139 -1.9824 -0.7392
   85SAPS  C311 8121   6.395   6.804   9.133 -0.2490  0.6412  0.5533
   85SAPS  H11X 8122   6.444   6.833   9.229 -2.8089  0.6413  1.9510
   85SAPS  H11Y 8123   6.288   6.783   9.153 -0.3232 -1.0829 -1.3916
   85SAPS  C312 8124   6.392   6.913   9.020  0.1710  0.6553 -0.0003
   85SAPS  H12X 8125   6.380   6.852   8.928 -0.0089 -2.8251  2.1386
   85SAPS  H12Y 8126   6.489   6.966   9.009  1.3178 -0.7800  2.2590
   85SAPS  C313 8127   6.283   7.021   9.024 -0.3292  0.0821  0.9470
   85SAPS  H13X 8128   6.298   7.086   9.113 -1.0297 -1.2942  2.1092
   85SAPS  H13Y 8129   6.186   6.970   9.042  0.4870 -1.2384  1.7174
   85SAPS  C314 8130   6.272   7.102   8.891  0.4454  0.1630 -0.1864
   85SAPS  H14X 8131   6.277   7.032   8.806 -1.1657 -0.5943  0.3062
   85SAPS  H14Y 8132   6.361   7.169   8.891 -0.0037  0.9190  2.7951
   85SAPS  C315 8133   6.154   7.201   8.884  0.2181 -0.2989  0.5324
   85SAPS  H15X 8134   6.171   7.255   8.788  0.8451  1.1239  1.4168
   85SAPS  H15Y 8135   6.166   7.275   8.966  0.3061  0.2868  0.0063
   85SAPS  C316 8136   6.009   7.142   8.887  0.3481  0.1143  0.4094
   85SAPS  H16X 8137   6.007   7.122   8.996  0.0891 -1.0563  0.2011
   85SAPS  H16Y 8138   6.012   7.055   8.818  1.0529  0.2128  0.3100
   85SAPS  C317 8139   5.905   7.243   8.845 -1.1035  0.3267  0.6348
   85SAPS  H17X 8140   5.931   7.341   8.889 -0.4622  1.7208 -2.5655
   85SAPS  H17Y 8141   5.806   7.216   8.888 -0.4273 -1.9991  0.8912
   85SAPS  C318 8142   5.895   7.267   8.697  0.0131 -0.0420  0.2762
   85SAPS  H18X 8143   5.875   7.170   8.646  3.7934 -1.3689  0.9738
   85SAPS  H18Y 8144   5.983   7.318   8.654 -0.7941  1.2647  0.1243
   85SAPS  H18Z 8145   5.808   7.334   8.680 -2.4141 -3.2668 -1.4359
   86SAPS     N 8146   2.371   6.632  10.731 -0.4070 -0.6275 -1.1132
   86SAPS   HN1 8147   2.455   6.660  10.676 -0.6654  2.0456 -0.2927
   86SAPS   HN2 8148   2.406   6.614  10.827  0.2718  1.5561 -0.8931
   86SAPS   HN3 8149   2.327   6.551  10.682  0.3617 -1.0112 -1.1790
   86SAPS   C12 8150   2.274   6.741  10.738  0.7361  0.3187  0.0597
   86SAPS  H12A 8151   2.191   6.727  10.806  1.4615 -1.8167  0.5946
   86SAPS   C13 8152   2.340   6.882  10.780  0.1760 -0.3855  0.3059
   86SAPS  O13A 8153   2.465   6.886  10.783 -0.3350 -0.4801  0.0746
   86SAPS  O13B 8154   2.280   6.992  10.778  0.2539 -0.2242  0.3991
   86SAPS   C11 8155   2.212   6.762  10.597 -0.2931  0.6370  0.1562
   86SAPS  H11A 8156   2.288   6.753  10.517 -0.3214 -2.3529  0.3482
   86SAPS  H11B 8157   2.166   6.863  10.590  1.1962  1.3062 -0.2994
   86SAPS     P 8158   2.116   6.540  10.501 -0.1448 -0.1949 -0.3445
   86SAPS   O13 8159   2.238   6.466  10.542 -0.2528  0.1115  0.1285
   86SAPS   O14 8160   1.984   6.473  10.529 -0.0070  0.6253  0.1010
   86SAPS   O12 8161   2.106   6.674  10.584  0.4178  0.8723 -0.1331
   86SAPS   O11 8162   2.130   6.586  10.349  0.5246  0.4881 -0.2643
   86SAPS    C1 8163   2.036   6.680  10.303  0.2091 -0.9517 -0.4238
   86SAPS    HA 8164   2.035   6.773  10.364 -0.7209 -1.0341 -0.3022
   86SAPS    HB 8165   2.079   6.715  10.207 -0.1163  1.8086  0.3709
   86SAPS    C2 8166   1.893   6.626  10.264  0.3576  0.2137 -0.3887
   86SAPS    HS 8167   1.843   6.568  10.345 -3.1878  1.0908 -1.7547
   86SAPS   O21 8168   1.910   6.541  10.151  0.3182 -0.0204 -0.3769
   86SAPS   C21 8169   1.814   6.466  10.110  0.8511 -0.3086 -0.1631
   86SAPS   O22 8170   1.706   6.443  10.168  0.2209  0.5511  0.1785
   86SAPS   C22 8171   1.845   6.425   9.968  0.6787  1.1292  0.4242
   86SAPS   H2R 8172   1.929   6.475   9.914  0.5757  0.3977 -0.4344
   86SAPS   H2S 8173   1.873   6.317   9.975 -0.5326  0.7375 -0.4648
   86SAPS    C3 8174   1.793   6.753  10.237 -1.0599  1.1136  0.2891
   86SAPS    HX 8175   1.789   6.813  10.331 -0.4115  0.5169  0.7137
   86SAPS    HY 8176   1.689   6.717  10.223 -0.0193 -1.4930 -1.4889
   86SAPS   O31 8177   1.838   6.826  10.127  0.2934  0.1310  0.7954
   86SAPS   C31 8178   1.784   6.796  10.003  0.6139  0.8310 -0.5213
   86SAPS   O32 8179   1.683   6.732   9.993 -0.0489 -0.3462  0.3076
   86SAPS   C32 8180   1.860   6.862   9.894  0.4793  0.3431 -0.1257
   86SAPS   H2X 8181   1.969   6.840   9.901  0.7610  2.1709  2.3098
   86SAPS   H2Y 8182   1.858   6.971   9.915  1.8650  0.1004  1.5242
   86SAPS   C23 8183   1.721   6.423   9.873  0.2292  0.1092 -0.1951
   86SAPS   H3R 8184   1.682   6.527   9.879  0.4181  0.1734 -0.0724
   86SAPS   H3S 8185   1.637   6.363   9.915 -1.5767  1.8436 -1.1478
   86SAPS   C24 8186   1.757   6.399   9.726  0.0275 -0.2655  0.4703
   86SAPS   H4R 8187   1.790   6.294   9.718  0.7140  0.0216 -0.7845
   86SAPS   H4S 8188   1.839   6.471   9.703 -0.2106 -0.2315 -0.3268
   86SAPS   C25 8189   1.644   6.438   9.635 -0.1219 -0.3011  0.2701
   86SAPS   H5R 8190   1.612   6.541   9.659 -2.1537 -0.8938  0.3461
   86SAPS   C26 8191   1.593   6.381   9.530  0.0695  0.0028 -0.1819
   86SAPS   H6R 8192   1.507   6.428   9.480  1.5703  0.7124 -2.2527
   86SAPS   C27 8193   1.633   6.249   9.475 -0.0052  0.4177  0.0881
   86SAPS   H7R 8194   1.557   6.198   9.412 -0.3171  1.4612 -0.3948
   86SAPS   H7S 8195   1.643   6.177   9.559  2.9455 -0.0209 -0.5207
   86SAPS   C28 8196   1.760   6.263   9.403 -0.2003  0.0844 -0.3858
   86SAPS   H8R 8197   1.842   6.293   9.470 -0.4798 -1.9690  0.9457
   86SAPS   C29 8198   1.782   6.283   9.274 -0.2091  0.6350  0.0010
   86SAPS   H9R 8199   1.885   6.320   9.264 -0.8250  2.1338 -1.3322
   86SAPS  C210 8200   1.690   6.274   9.162  0.1928  0.1721  0.6078
   86SAPS  H10R 8201   1.590   6.312   9.193 -0.2752 -1.8932  1.8243
   86SAPS  H10S 8202   1.666   6.169   9.135 -1.1009  0.2902  1.2156
   86SAPS  C211 8203   1.747   6.355   9.048 -0.1191 -0.6774 -0.0673
   86SAPS  H11R 8204   1.807   6.443   9.076 -1.5824  0.4350 -0.3371
   86SAPS  C212 8205   1.745   6.325   8.920  0.2123 -0.4353  0.2574
   86SAPS  H12R 8206   1.779   6.398   8.845 -2.0759 -0.5182 -0.9190
   86SAPS  C213 8207   1.662   6.221   8.854  0.3100 -0.5290 -0.8709
   86SAPS  H13R 8208   1.622   6.149   8.928 -0.8040 -0.3782 -1.3028
   86SAPS  H13S 8209   1.724   6.175   8.775  1.3214  0.7508 -0.8580
   86SAPS  C214 8210   1.533   6.279   8.804 -0.2704  0.3260  0.3525
   86SAPS  H14R 8211   1.463   6.308   8.883 -0.7061 -1.7473  0.7781
   86SAPS  C215 8212   1.504   6.324   8.684  0.0571 -0.0020 -0.3507
   86SAPS  H15R 8213   1.403   6.367   8.675  0.5451  1.8621  2.0268
   86SAPS  C216 8214   1.595   6.297   8.564 -0.2373  0.2997 -0.4398
   86SAPS  H16R 8215   1.699   6.274   8.597 -0.3759  1.3928  0.8355
   86SAPS  H16S 8216   1.618   6.392   8.512  2.1490  1.1678  1.9708
   86SAPS  C217 8217   1.540   6.181   8.477  0.5050 -1.1380 -0.0708
   86SAPS  H17R 8218   1.430   6.191   8.460  0.6226 -1.2654 -0.9819
   86SAPS  H17S 8219   1.564   6.087   8.531  1.0901 -1.6567 -1.1890
   86SAPS  C218 8220   1.610   6.192   8.339  0.3345  0.3901 -0.5079
   86SAPS  H18R 8221   1.717   6.164   8.356  0.2149 -1.6590 -2.7264
   86SAPS  H18S 8222   1.602   6.297   8.304  0.0864  0.2435 -0.8952
   86SAPS  C219 8223   1.551   6.092   8.236  0.1652  0.4725 -0.2761
   86SAPS  H19R 8224   1.445   6.121   8.223  0.3697  1.3991 -0.0193
   86SAPS  H19S 8225   1.550   5.990   8.280  2.1570  0.7606  0.5577
   86SAPS  C220 8226   1.628   6.096   8.100  0.3352  0.5845 -0.5581
   86SAPS  H20R 8227   1.727   6.048   8.109  0.9165  1.7340 -0.5899
   86SAPS  H20S 8228   1.627   6.198   8.056  0.8222  0.5061 -0.7537
   86SAPS  H20T 8229   1.581   6.030   8.024 -0.1889 -2.1530  1.9626
   86SAPS   C33 8230   1.812   6.831   9.754  0.2657 -0.3114  0.4369
   86SAPS   H3X 8231   1.715   6.879   9.728 -1.3275 -3.9223 -1.1409
   86SAPS   H3Y 8232   1.788   6.725   9.728 -1.7586  0.4152 -0.9423
   86SAPS   C34 8233   1.927   6.861   9.652  0.2498 -0.3730 -0.1479
   86SAPS   H4X 8234   2.023   6.815   9.683 -1.0496 -1.1646  3.1321
   86SAPS   H4Y 8235   1.943   6.971   9.656  2.4964 -0.6852  1.2506
   86SAPS   C35 8236   1.884   6.827   9.513 -0.2577 -0.0643  0.9623
   86SAPS   H5X 8237   1.796   6.890   9.490 -0.0558 -0.3951 -0.9132
   86SAPS   H5Y 8238   1.854   6.721   9.499  1.3496 -0.3607 -0.8383
   86SAPS   C36 8239   2.001   6.856   9.411  0.3222  0.6029 -0.2378
   86SAPS   H6X 8240   2.100   6.815   9.441  0.8153  1.3792 -0.7807
   86SAPS   H6Y 8241   2.032   6.962   9.413  1.3549  0.4020 -2.4301
   86SAPS   C37 8242   1.973   6.810   9.263  0.5049  0.4694  0.1697
   86SAPS   H7X 8243   1.885   6.861   9.219 -2.0437 -3.6973 -0.0844
   86SAPS   H7Y 8244   1.939   6.704   9.265  1.9081 -0.0192 -0.1825
   86SAPS   C38 8245   2.099   6.821   9.176 -0.0776 -0.1306 -0.0484
   86SAPS   H8X 8246   2.183   6.766   9.223 -0.3540 -0.7379 -0.2595
   86SAPS   H8Y 8247   2.124   6.929   9.168 -1.6110  0.1909 -1.1506
   86SAPS   C39 8248   2.072   6.765   9.039  0.4901  0.6296  0.5817
   86SAPS   H9X 8249   1.974   6.800   8.998 -1.0568 -1.7937  1.9618
   86SAPS   H9Y 8250   2.051   6.658   9.059 -2.5085  0.6293 -1.7813
   86SAPS  C310 8251   2.185   6.781   8.937  0.0172 -0.3520 -0.2427
   86SAPS  H10X 8252   2.264   6.708   8.963 -2.4770 -2.2042  2.8704
   86SAPS  H10Y 8253   2.226   6.882   8.955 -1.1513  0.0672  0.1886
   86SAPS  C311 8254   2.133   6.774   8.785 -0.2806  0.9508  0.3791
   86SAPS  H11X 8255   2.065   6.860   8.768  0.9872  1.9716  0.3325
   86SAPS  H11Y 8256   2.060   6.690   8.777 -0.3074  1.0334 -0.2966
   86SAPS  C312 8257   2.232   6.769   8.666  0.0021  0.2112 -0.1099
   86SAPS  H12X 8258   2.289   6.676   8.686 -3.5539 -1.8197  1.5326
   86SAPS  H12Y 8259   2.291   6.863   8.663 -0.7678  0.7236  0.3957
   86SAPS  C313 8260   2.145   6.756   8.543 -0.5549 -0.0415 -0.3931
   86SAPS  H13X 8261   2.212   6.753   8.453 -1.1874  0.3003 -0.8832
   86SAPS  H13Y 8262   2.083   6.848   8.537  2.4155  2.4207  2.7094
   86SAPS  C314 8263   2.067   6.627   8.514  0.6675  0.1311 -0.4508
   86SAPS  H14X 8264   1.995   6.622   8.598  2.0313  1.3215  0.8649
   86SAPS  H14Y 8265   2.128   6.534   8.511 -0.0306 -0.3296 -0.5482
   86SAPS  C315 8266   1.997   6.649   8.383 -0.8645  0.2048  0.4282
   86SAPS  H15X 8267   2.075   6.660   8.305 -2.9639  1.4286 -1.6095
   86SAPS  H15Y 8268   1.931   6.737   8.377  0.4186  1.2782  1.4282
   86SAPS  C316 8269   1.902   6.540   8.336  0.1810  0.7603  0.0173
   86SAPS  H16X 8270   1.819   6.544   8.410  0.2764 -0.8267  0.2403
   86SAPS  H16Y 8271   1.946   6.439   8.354  0.0523  0.8850  1.1452
   86SAPS  C317 8272   1.855   6.551   8.191 -0.2333 -0.7357 -0.2897
   86SAPS  H17X 8273   1.819   6.653   8.168  2.7792  0.9907  1.9133
   86SAPS  H17Y 8274   1.772   6.480   8.172  1.8441 -3.5878  0.4237
   86SAPS  C318 8275   1.961   6.509   8.093 -0.5478  0.2035  0.2325
   86SAPS  H18X 8276   1.991   6.406   8.119  1.6966  0.0542 -2.4129
   86SAPS  H18Y 8277   2.055   6.567   8.107  2.0788 -3.8172  0.8180
   86SAPS  H18Z 8278   1.938   6.519   7.984  1.9394  3.6806 -0.1336
   87SAPS     N 8279   1.239   1.183  11.024  0.2463  0.3130 -0.2807
   87SAPS   HN1 8280   1.237   1.234  11.115 -0.4178 -0.3003  0.0529
   87SAPS   HN2 8281   1.312   1.110  11.030 -1.1307 -1.0135  1.2063
   87SAPS   HN3 8282   1.268   1.259  10.959  0.3089  0.9273  0.4478
   87SAPS   C12 8283   1.119   1.117  10.984  0.2742 -0.6012  0.1878
   87SAPS  H12A 8284   1.108   1.037  11.055 -1.6757 -0.8865 -0.3779
   87SAPS   C13 8285   0.991   1.205  10.995  0.2985 -0.2775  0.3407
   87SAPS  O13A 8286   0.993   1.309  11.062  0.1290  0.1003  0.1791
   87SAPS  O13B 8287   0.887   1.167  10.936  0.0916  0.5220  0.2238
   87SAPS   C11 8288   1.139   1.045  10.855  0.6396  0.0589  0.4550
   87SAPS  H11A 8289   1.173   1.120  10.780  2.1174 -1.0829 -0.0585
   87SAPS  H11B 8290   1.044   1.005  10.813  1.2046  0.0351 -0.8386
   87SAPS     P 8291   1.235   0.807  10.801  0.0664  0.2455  0.4696
   87SAPS   O13 8292   1.370   0.746  10.813 -0.1565  0.0411  0.0871
   87SAPS   O14 8293   1.119   0.733  10.860  0.0592  0.3753  0.3067
   87SAPS   O12 8294   1.242   0.955  10.868  0.1788 -0.4217 -0.4172
   87SAPS   O11 8295   1.200   0.832  10.645  0.2802  0.1620 -0.6578
   87SAPS    C1 8296   1.290   0.914  10.570 -0.8236 -0.3683  0.1868
   87SAPS    HA 8297   1.229   0.954  10.487 -1.4005 -0.2499  0.6630
   87SAPS    HB 8298   1.337   1.003  10.618  1.8145 -2.5380  1.9066
   87SAPS    C2 8299   1.404   0.834  10.497 -0.7826  0.2123 -0.2549
   87SAPS    HS 8300   1.487   0.804  10.565  0.6061  0.8239 -1.6224
   87SAPS   O21 8301   1.451   0.929  10.396  0.3957  0.5192  0.1525
   87SAPS   C21 8302   1.578   0.923  10.371 -0.2358 -1.2066  0.4394
   87SAPS   O22 8303   1.669   0.867  10.432  0.5548  0.2022 -0.2072
   87SAPS   C22 8304   1.588   1.012  10.256 -0.4418  0.1219  0.5360
   87SAPS   H2R 8305   1.533   0.952  10.181  0.2465 -0.0905  0.1913
   87SAPS   H2S 8306   1.540   1.110  10.275 -0.6289 -0.0751  1.1088
   87SAPS    C3 8307   1.352   0.698  10.428 -0.0048 -0.3374  0.4191
   87SAPS    HX 8308   1.322   0.632  10.513 -1.2024  1.8398  1.7811
   87SAPS    HY 8309   1.445   0.666  10.376 -0.8841  0.2003 -1.5498
   87SAPS   O31 8310   1.235   0.718  10.356  0.4275 -0.5762  0.7989
   87SAPS   C31 8311   1.248   0.722  10.216  0.2412 -0.4199  0.3055
   87SAPS   O32 8312   1.358   0.727  10.160  0.5811 -0.1664  0.1200
   87SAPS   C32 8313   1.105   0.728  10.146 -0.8345  0.0338  0.4438
   87SAPS   H2X 8314   1.070   0.832  10.165  0.0070  0.0026  2.5452
   87SAPS   H2Y 8315   1.043   0.650  10.195 -3.4122  1.8164  0.2283
   87SAPS   C23 8316   1.736   1.021  10.208 -0.1848  0.2419  0.3522
   87SAPS   H3R 8317   1.803   1.076  10.278  1.3241  0.6232 -1.3313
   87SAPS   H3S 8318   1.715   1.091  10.124  0.1068  2.2750  1.8866
   87SAPS   C24 8319   1.793   0.895  10.133 -0.2067  0.1707  0.0342
   87SAPS   H4R 8320   1.823   0.813  10.202  0.9445  0.2971 -0.2940
   87SAPS   H4S 8321   1.889   0.925  10.086 -0.2984  0.6900  0.1690
   87SAPS   C25 8322   1.695   0.831  10.035 -0.4868 -0.1880  0.1094
   87SAPS   H5R 8323   1.597   0.801  10.074 -0.9854  0.8150 -0.3226
   87SAPS   C26 8324   1.720   0.806   9.904 -0.0945  0.1390 -0.2243
   87SAPS   H6R 8325   1.648   0.762   9.832  2.4170  0.7998 -3.3562
   87SAPS   C27 8326   1.853   0.841   9.842 -0.6135 -0.1676 -0.2112
   87SAPS   H7R 8327   1.888   0.760   9.775 -0.4137  2.5607 -3.7266
   87SAPS   H7S 8328   1.932   0.837   9.919 -1.0317 -2.1268  0.1643
   87SAPS   C28 8329   1.833   0.971   9.771 -0.4432 -0.0280 -0.5531
   87SAPS   H8R 8330   1.786   1.055   9.826  0.5673  0.0695  0.1896
   87SAPS   C29 8331   1.877   0.992   9.643 -0.1322  0.7993  0.1865
   87SAPS   H9R 8332   1.868   1.093   9.601 -0.0593  1.3835  1.5365
   87SAPS  C210 8333   1.950   0.896   9.547 -0.3818 -0.3832  0.8653
   87SAPS  H10R 8334   1.945   0.792   9.584  3.4468 -1.1563 -0.3729
   87SAPS  H10S 8335   2.060   0.917   9.548  0.0184 -2.1120 -1.0856
   87SAPS  C211 8336   1.911   0.902   9.401  0.0935 -0.1214  0.3951
   87SAPS  H11R 8337   1.807   0.875   9.378  0.0483 -0.8859  1.4493
   87SAPS  C212 8338   1.995   0.938   9.302 -0.0000  0.1829 -0.1917
   87SAPS  H12R 8339   1.961   0.937   9.197  1.2941 -0.5315 -0.6254
   87SAPS  C213 8340   2.141   0.975   9.297 -0.0740 -0.2369  0.1704
   87SAPS  H13R 8341   2.202   0.893   9.253 -0.5227  0.7308 -2.4962
   87SAPS  H13S 8342   2.180   0.993   9.399  0.2557  0.3167 -0.0492
   87SAPS  C214 8343   2.180   1.091   9.211  0.1118  0.4331 -0.3983
   87SAPS  H14R 8344   2.211   1.186   9.258  1.6443 -0.4017  0.3728
   87SAPS  C215 8345   2.204   1.090   9.081  0.1203 -0.2466  0.3409
   87SAPS  H15R 8346   2.250   1.179   9.037 -1.0315 -0.6725 -1.8949
   87SAPS  C216 8347   2.182   0.970   8.988  0.4291 -0.4065 -0.0943
   87SAPS  H16R 8348   2.096   0.911   9.026 -0.0241 -0.0810 -0.6043
   87SAPS  H16S 8349   2.274   0.908   8.983  0.9678  0.4776 -1.8679
   87SAPS  C217 8350   2.159   1.010   8.838 -0.3643 -0.1384 -0.2231
   87SAPS  H17R 8351   2.209   0.929   8.781 -1.9233 -1.3650  0.1005
   87SAPS  H17S 8352   2.214   1.105   8.819  1.0571 -0.6763  0.9944
   87SAPS  C218 8353   2.007   1.011   8.806 -0.2269 -0.4420  0.2505
   87SAPS  H18R 8354   1.963   0.912   8.829  0.8205 -1.7721 -2.8721
   87SAPS  H18S 8355   1.987   1.023   8.697  1.4594 -0.9610 -0.1520
   87SAPS  C219 8356   1.928   1.125   8.871 -0.1010  0.2887  0.2426
   87SAPS  H19R 8357   1.979   1.223   8.855  3.2913 -1.6413 -2.1831
   87SAPS  H19S 8358   1.931   1.093   8.977  0.2450 -1.4953 -0.2651
   87SAPS  C220 8359   1.791   1.133   8.820 -0.2750 -0.1701  0.1427
   87SAPS  H20R 8360   1.728   1.208   8.871 -2.0429  0.8843 -3.2764
   87SAPS  H20S 8361   1.736   1.038   8.839  2.7312 -2.3263 -1.1541
   87SAPS  H20T 8362   1.784   1.149   8.710 -1.2413 -3.6599 -0.4363
   87SAPS   C33 8363   1.123   0.712   9.996 -0.0496 -0.0226  0.6450
   87SAPS   H3X 8364   1.184   0.622   9.976 -0.4473  0.1450 -1.4969
   87SAPS   H3Y 8365   1.185   0.794   9.953  0.4357  0.0085  1.3781
   87SAPS   C34 8366   0.987   0.704   9.922 -0.4248 -1.2027  0.1244
   87SAPS   H4X 8367   0.930   0.795   9.952 -0.1573 -0.9751 -0.0637
   87SAPS   H4Y 8368   0.919   0.624   9.959 -1.6990  0.5038  1.6423
   87SAPS   C35 8369   0.996   0.689   9.770  0.6088 -0.0575  0.0501
   87SAPS   H5X 8370   1.058   0.775   9.736  1.1453 -0.5082 -0.1241
   87SAPS   H5Y 8371   0.899   0.687   9.715  0.1776  0.9195  0.7454
   87SAPS   C36 8372   1.065   0.553   9.737 -0.9649 -0.0585 -0.3975
   87SAPS   H6X 8373   1.014   0.473   9.795  1.3214  0.1457  2.1159
   87SAPS   H6Y 8374   1.168   0.550   9.778 -0.7567 -0.2912 -0.9308
   87SAPS   C37 8375   1.081   0.525   9.585 -0.0540  0.7903  0.0670
   87SAPS   H7X 8376   1.152   0.443   9.563 -1.7777 -0.9996  0.8967
   87SAPS   H7Y 8377   1.114   0.623   9.544 -0.3775  0.1791 -1.7855
   87SAPS   C38 8378   0.939   0.481   9.531  0.0032 -0.2766 -0.6305
   87SAPS   H8X 8379   0.864   0.560   9.555  0.5580 -0.3580  1.6503
   87SAPS   H8Y 8380   0.912   0.385   9.579  0.0544 -0.4094 -0.8675
   87SAPS   C39 8381   0.926   0.467   9.377  0.8115  0.3757 -1.3821
   87SAPS   H9X 8382   0.818   0.442   9.361  1.4802 -3.2837 -0.9569
   87SAPS   H9Y 8383   0.979   0.385   9.324 -0.0657 -0.2547 -1.3200
   87SAPS  C310 8384   0.960   0.600   9.309 -0.0376  0.0120 -0.2404
   87SAPS  H10X 8385   1.069   0.619   9.324 -0.1556  0.9641 -0.5171
   87SAPS  H10Y 8386   0.908   0.676   9.372  0.1309 -0.6836  0.7708
   87SAPS  C311 8387   0.942   0.617   9.160  0.9797 -0.2817  0.3734
   87SAPS  H11X 8388   0.835   0.613   9.131  0.5848 -1.5525  1.8844
   87SAPS  H11Y 8389   0.999   0.539   9.104  1.6615  0.3950  0.1074
   87SAPS  C312 8390   0.988   0.757   9.123  0.0431 -0.9266 -0.2067
   87SAPS  H12X 8391   1.099   0.759   9.132  0.1366  1.1049 -1.3479
   87SAPS  H12Y 8392   0.952   0.836   9.193  0.9604 -0.7193  0.0457
   87SAPS  C313 8393   0.937   0.814   8.986 -0.5555  0.3334  0.5627
   87SAPS  H13X 8394   0.861   0.893   9.000  0.5293  1.1271  2.1822
   87SAPS  H13Y 8395   0.889   0.732   8.927 -0.4276  0.6165  0.0590
   87SAPS  C314 8396   1.041   0.887   8.903 -0.0405 -0.0541  0.3688
   87SAPS  H14X 8397   1.102   0.800   8.871 -1.6801 -1.4154  0.7698
   87SAPS  H14Y 8398   1.099   0.955   8.969  1.1140 -0.5816 -0.0837
   87SAPS  C315 8399   0.986   0.964   8.780  0.9307  0.3797 -0.3449
   87SAPS  H15X 8400   1.071   1.000   8.718  2.1042 -1.8987 -0.1687
   87SAPS  H15Y 8401   0.930   1.056   8.807  0.8498  0.0852  0.5319
   87SAPS  C316 8402   0.899   0.872   8.687 -0.1204  0.4969  0.8628
   87SAPS  H16X 8403   0.794   0.874   8.724 -0.0487 -2.2382  1.4482
   87SAPS  H16Y 8404   0.927   0.766   8.705 -0.7422  0.2404  0.3715
   87SAPS  C317 8405   0.910   0.896   8.533 -0.2704  0.0261 -0.7960
   87SAPS  H17X 8406   1.017   0.891   8.502  0.2535 -1.7204  1.1335
   87SAPS  H17Y 8407   0.885   1.002   8.511  0.1072  0.3007  0.0390
   87SAPS  C318 8408   0.831   0.800   8.440  0.1786 -0.4047 -0.0523
   87SAPS  H18X 8409   0.834   0.834   8.335 -0.1232 -0.8544 -0.2083
   87SAPS  H18Y 8410   0.726   0.789   8.477 -0.6850  0.8551 -1.9906
   87SAPS  H18Z 8411   0.876   0.699   8.440  1.0035 -0.0735 -2.2348
   88SAPS     N 8412   3.280   5.416  10.923  0.4129  0.1741  0.0427
   88SAPS   HN1 8413   3.376   5.390  10.892 -0.1478 -0.3685 -1.3191
   88SAPS   HN2 8414   3.255   5.489  10.853  0.1502 -0.6442 -0.7414
   88SAPS   HN3 8415   3.276   5.449  11.021 -0.6283 -1.9399  0.7702
   88SAPS   C12 8416   3.183   5.303  10.914 -0.1951 -0.3297  0.7531
   88SAPS  H12A 8417   3.215   5.227  10.984  1.0555 -0.6543 -0.1298
   88SAPS   C13 8418   3.042   5.341  10.958 -0.2888  0.3277  0.2381
   88SAPS  O13A 8419   3.012   5.454  11.007 -0.5282  0.0174 -0.1042
   88SAPS  O13B 8420   2.952   5.259  10.928  0.8041  0.2170  0.2322
   88SAPS   C11 8421   3.177   5.235  10.771  0.7974 -0.4999 -0.4436
   88SAPS  H11A 8422   3.131   5.311  10.704 -0.0149 -0.6731 -0.0951
   88SAPS  H11B 8423   3.111   5.145  10.767  1.1247 -0.8495  1.2086
   88SAPS     P 8424   3.396   5.084  10.735  0.1229  0.5949 -0.4806
   88SAPS   O13 8425   3.525   5.115  10.676 -0.4603 -0.0104  0.0416
   88SAPS   O14 8426   3.396   5.034  10.877 -0.0370 -0.0463  0.2127
   88SAPS   O12 8427   3.310   5.206  10.721  0.0214 -0.1858  0.5952
   88SAPS   O11 8428   3.328   4.982  10.642  0.2595 -0.2158  0.0487
   88SAPS    C1 8429   3.379   4.846  10.640  0.7603 -0.8782 -0.2361
   88SAPS    HA 8430   3.486   4.841  10.613  0.1970  1.5307 -3.4323
   88SAPS    HB 8431   3.367   4.796  10.739 -1.6968  1.0811  0.5467
   88SAPS    C2 8432   3.300   4.768  10.537 -0.1850 -0.4168 -1.0565
   88SAPS    HS 8433   3.330   4.661  10.524 -0.8795 -0.8589  0.7533
   88SAPS   O21 8434   3.304   4.835  10.417 -0.2638 -0.3798  0.0451
   88SAPS   C21 8435   3.425   4.830  10.345 -0.2427  0.1743  0.0763
   88SAPS   O22 8436   3.521   4.765  10.381  0.2091  0.1621  0.0405
   88SAPS   C22 8437   3.425   4.899  10.214 -0.1316 -0.5477 -0.2483
   88SAPS   H2R 8438   3.408   5.007  10.233  1.4104 -0.6540  2.0138
   88SAPS   H2S 8439   3.530   4.906  10.180  0.8797  1.4408  2.9667
   88SAPS    C3 8440   3.150   4.760  10.582 -0.6837  0.2182 -0.0731
   88SAPS    HX 8441   3.120   4.867  10.587 -3.2420 -0.3197 -1.7694
   88SAPS    HY 8442   3.149   4.728  10.688  0.6247  1.0757  0.2225
   88SAPS   O31 8443   3.074   4.671  10.498 -0.6156 -0.4520  0.5938
   88SAPS   C31 8444   2.944   4.700  10.497 -0.4369 -0.0802 -0.4065
   88SAPS   O32 8445   2.892   4.789  10.568  0.2117  0.4128  0.0935
   88SAPS   C32 8446   2.874   4.628  10.386 -0.4219 -0.3786  0.4263
   88SAPS   H2X 8447   2.770   4.666  10.386  0.1420  1.2508 -0.0079
   88SAPS   H2Y 8448   2.860   4.521  10.411 -0.3029 -0.1160  1.6704
   88SAPS   C23 8449   3.329   4.831  10.108 -0.1016 -0.2866  0.0723
   88SAPS   H3R 8450   3.226   4.849  10.145  0.4181  0.0469  1.4311
   88SAPS   H3S 8451   3.335   4.721  10.112 -1.4217 -0.4182 -1.0952
   88SAPS   C24 8452   3.363   4.884   9.970  0.4274 -0.3810 -0.2684
   88SAPS   H4R 8453   3.466   4.848   9.949  0.3789 -1.5364  1.2525
   88SAPS   H4S 8454   3.361   4.994   9.979 -1.1298 -0.3967 -0.0997
   88SAPS   C25 8455   3.255   4.843   9.872 -0.3079 -0.7062 -0.2180
   88SAPS   H5R 8456   3.245   4.735   9.858 -3.1922 -0.2938 -2.1577
   88SAPS   C26 8457   3.185   4.926   9.795  0.4976  0.3568 -0.1972
   88SAPS   H6R 8458   3.109   4.874   9.735 -1.3378  1.6284  0.9072
   88SAPS   C27 8459   3.189   5.073   9.783 -0.2889 -0.0963  0.7693
   88SAPS   H7R 8460   3.114   5.110   9.710  0.8113  0.4142 -0.1510
   88SAPS   H7S 8461   3.282   5.091   9.724 -1.8485  2.0528 -1.1848
   88SAPS   C28 8462   3.191   5.162   9.907 -0.1029  0.5162  0.1009
   88SAPS   H8R 8463   3.200   5.105  10.000 -0.9409  2.2017  1.2438
   88SAPS   C29 8464   3.163   5.292   9.914 -0.1698 -0.6800  0.3281
   88SAPS   H9R 8465   3.162   5.344  10.011  1.4896  1.6267 -0.7881
   88SAPS  C210 8466   3.136   5.378   9.798  0.5915  0.0014  0.9843
   88SAPS  H10R 8467   3.025   5.380   9.788  0.8229 -0.1468 -2.7870
   88SAPS  H10S 8468   3.177   5.345   9.701 -1.1330 -1.5942  0.7251
   88SAPS  C211 8469   3.166   5.516   9.835 -0.8756  0.2162 -0.1414
   88SAPS  H11R 8470   3.171   5.529   9.944 -3.1445 -1.6093  0.2593
   88SAPS  C212 8471   3.176   5.619   9.742  0.2029 -0.2267  0.4765
   88SAPS  H12R 8472   3.203   5.720   9.778  0.5073 -0.2153  0.2239
   88SAPS  C213 8473   3.163   5.615   9.590 -0.4218 -0.3205 -0.0586
   88SAPS  H13R 8474   3.147   5.507   9.568 -2.1614  0.0615 -0.8510
   88SAPS  H13S 8475   3.257   5.658   9.551 -1.3713  2.9747  0.9455
   88SAPS  C214 8476   3.043   5.691   9.532 -0.9234 -0.2528  0.0274
   88SAPS  H14R 8477   2.948   5.694   9.587 -1.3174 -0.7832 -0.6057
   88SAPS  C215 8478   3.045   5.733   9.397  0.3276  0.2921 -0.1417
   88SAPS  H15R 8479   2.954   5.781   9.358  1.6772  2.9821 -0.1948
   88SAPS  C216 8480   3.166   5.726   9.302 -0.1832 -0.1635 -0.7930
   88SAPS  H16R 8481   3.126   5.720   9.199 -0.1405 -1.8653 -0.7434
   88SAPS  H16S 8482   3.219   5.629   9.316  0.3456  0.3795  1.2665
   88SAPS  C217 8483   3.256   5.852   9.301 -0.0848  0.2792 -0.4793
   88SAPS  H17R 8484   3.261   5.876   9.410 -0.1889  0.1001 -0.4338
   88SAPS  H17S 8485   3.206   5.928   9.238  0.0226  0.5406 -0.2538
   88SAPS  C218 8486   3.394   5.813   9.239 -0.7357  0.6728 -0.0353
   88SAPS  H18R 8487   3.434   5.727   9.298 -1.2411 -0.3424 -1.1188
   88SAPS  H18S 8488   3.469   5.888   9.270 -0.7206  0.2766  0.9394
   88SAPS  C219 8489   3.388   5.780   9.087 -0.0575 -0.5365  0.1293
   88SAPS  H19R 8490   3.301   5.712   9.069  0.3922 -1.2075  0.4605
   88SAPS  H19S 8491   3.482   5.726   9.064  1.2123  0.6493  2.2633
   88SAPS  C220 8492   3.377   5.912   9.007 -0.6011  0.0519  0.1292
   88SAPS  H20R 8493   3.457   5.986   9.029  1.5459 -2.0999  0.0706
   88SAPS  H20S 8494   3.285   5.967   9.035 -1.6492 -1.4054 -0.3366
   88SAPS  H20T 8495   3.369   5.893   8.898 -2.3082 -0.7915  0.3702
   88SAPS   C33 8496   2.939   4.663  10.251  0.1625  0.1568  0.6270
   88SAPS   H3X 8497   3.033   4.608  10.231 -0.5018 -1.2290  1.1793
   88SAPS   H3Y 8498   2.946   4.773  10.238 -1.0855  0.0983 -0.8269
   88SAPS   C34 8499   2.844   4.608  10.134 -0.1863 -0.7153 -0.5635
   88SAPS   H4X 8500   2.760   4.679  10.114  0.1722  0.0739  0.6671
   88SAPS   H4Y 8501   2.817   4.505  10.164 -0.0386 -0.2939  1.1234
   88SAPS   C35 8502   2.925   4.594  10.007  0.2960  0.4804  1.0164
   88SAPS   H5X 8503   3.006   4.523  10.033 -0.5140 -1.4262 -1.2914
   88SAPS   H5Y 8504   2.965   4.694   9.978 -0.0771  0.2436 -0.3818
   88SAPS   C36 8505   2.844   4.532   9.885 -0.0473  0.6934 -0.3555
   88SAPS   H6X 8506   2.776   4.602   9.832  0.5342  1.4037 -0.1768
   88SAPS   H6Y 8507   2.771   4.454   9.916 -0.7335  1.0819 -0.9639
   88SAPS   C37 8508   2.941   4.451   9.789 -0.1796 -1.2598 -0.5364
   88SAPS   H7X 8509   2.973   4.352   9.828  2.4836 -1.2448 -2.3917
   88SAPS   H7Y 8510   3.030   4.515   9.772  0.0270 -1.4680 -0.2555
   88SAPS   C38 8511   2.869   4.429   9.659 -0.1226  0.1135 -0.3952
   88SAPS   H8X 8512   2.839   4.519   9.601 -0.9519 -0.9959 -1.7760
   88SAPS   H8Y 8513   2.772   4.376   9.672 -0.0198  0.2451  0.9872
   88SAPS   C39 8514   2.955   4.336   9.577  0.6212  0.2616 -0.2690
   88SAPS   H9X 8515   2.984   4.243   9.632 -1.6486 -0.2149  0.2249
   88SAPS   H9Y 8516   3.051   4.392   9.571  0.7572  0.2622  1.3743
   88SAPS  C310 8517   2.904   4.299   9.437 -0.4062  0.2809  0.1385
   88SAPS  H10X 8518   2.798   4.265   9.439 -0.7167  0.9481  4.4435
   88SAPS  H10Y 8519   2.969   4.217   9.399 -0.1405  1.2516 -1.6183
   88SAPS  C311 8520   2.927   4.406   9.328 -0.5994  0.2296  0.4387
   88SAPS  H11X 8521   3.008   4.476   9.358 -0.2114  0.1357 -0.3899
   88SAPS  H11Y 8522   2.838   4.473   9.326 -0.2877  0.7307  2.0101
   88SAPS  C312 8523   2.964   4.353   9.189  0.4213  0.5894 -0.0213
   88SAPS  H12X 8524   2.903   4.268   9.150  1.1921  0.8632 -1.9422
   88SAPS  H12Y 8525   3.063   4.304   9.187  0.8786  1.4631  0.8816
   88SAPS  C313 8526   2.962   4.457   9.078  0.1272  0.8201 -0.5942
   88SAPS  H13X 8527   3.000   4.557   9.106  0.8736  0.5300 -0.5495
   88SAPS  H13Y 8528   2.857   4.462   9.041  0.1293 -0.9677 -0.9371
   88SAPS  C314 8529   3.034   4.422   8.950 -0.0851  0.3527 -0.6566
   88SAPS  H14X 8530   2.975   4.339   8.908  0.8632 -2.0184  2.3183
   88SAPS  H14Y 8531   3.138   4.385   8.968 -0.8417 -1.1311  0.8621
   88SAPS  C315 8532   3.046   4.545   8.862  0.0052  1.4129 -0.1999
   88SAPS  H15X 8533   3.108   4.612   8.925  2.0553  0.6481 -1.2812
   88SAPS  H15Y 8534   2.947   4.589   8.839 -0.7597 -1.2394 -2.6437
   88SAPS  C316 8535   3.107   4.521   8.719  0.4128 -0.1492 -0.7610
   88SAPS  H16X 8536   3.041   4.447   8.670 -2.6505  0.4525  2.0736
   88SAPS  H16Y 8537   3.206   4.476   8.741  0.3754  1.1121  2.7139
   88SAPS  C317 8538   3.127   4.649   8.629  0.2356 -0.3212  0.0919
   88SAPS  H17X 8539   3.188   4.725   8.684  1.8371 -0.0392 -1.9722
   88SAPS  H17Y 8540   3.029   4.696   8.610  0.4330 -0.2482 -0.7720
   88SAPS  C318 8541   3.190   4.626   8.491 -0.6002  0.6003 -0.7159
   88SAPS  H18X 8542   3.145   4.544   8.432  1.5781 -2.3370  1.4117
   88SAPS  H18Y 8543   3.297   4.598   8.504  0.1619  3.1818 -0.7874
   88SAPS  H18Z 8544   3.195   4.720   8.432  1.1410  1.5896  0.8719
   89SAPS     N 8545   4.253   1.978  10.942 -0.6959 -0.4350  0.1235
   89SAPS   HN1 8546   4.256   2.073  10.900  1.2345 -0.0507  1.0468
   89SAPS   HN2 8547   4.282   1.988  11.041 -0.3514 -0.0263 -0.0173
   89SAPS   HN3 8548   4.329   1.933  10.887  1.1098  3.4321 -0.8886
   89SAPS   C12 8549   4.112   1.936  10.923  0.0839  0.5087 -0.0400
   89SAPS  H12A 8550   4.114   1.828  10.916 -0.0124  0.5425 -0.5756
   89SAPS   C13 8551   4.027   1.982  11.047 -0.5088  0.6327 -0.3185
   89SAPS  O13A 8552   4.071   2.049  11.148 -0.4361 -1.0380  0.1884
   89SAPS  O13B 8553   3.908   1.950  11.041  0.2705 -0.5924  0.4643
   89SAPS   C11 8554   4.057   1.993  10.785 -0.3423  0.0711 -0.0778
   89SAPS  H11A 8555   4.042   2.102  10.801  0.5571  0.4444 -1.5167
   89SAPS  H11B 8556   3.953   1.956  10.778 -0.3769  0.0589  0.4644
   89SAPS     P 8557   4.127   2.049  10.537  0.2050  0.4043 -0.5214
   89SAPS   O13 8558   4.139   2.190  10.576 -0.1436  0.1060 -0.2214
   89SAPS   O14 8559   4.221   2.001  10.434 -0.4230 -0.5492  0.7375
   89SAPS   O12 8560   4.137   1.959  10.670  0.2202  0.0647  0.2341
   89SAPS   O11 8561   3.977   2.034  10.490  1.1223 -0.5540 -0.0530
   89SAPS    C1 8562   3.917   1.902  10.479  0.0821  0.9178  0.3299
   89SAPS    HA 8563   3.977   1.829  10.537 -0.3019  1.4008  1.3547
   89SAPS    HB 8564   3.828   1.912  10.544 -1.3863  3.8544 -1.8787
   89SAPS    C2 8565   3.874   1.857  10.336 -0.1915  0.0038 -0.6823
   89SAPS    HS 8566   3.848   1.749  10.337 -0.3024  0.0328 -0.4154
   89SAPS   O21 8567   3.987   1.863  10.243  0.7265 -0.1943  0.3837
   89SAPS   C21 8568   4.093   1.788  10.256  0.0773 -0.4243 -0.2620
   89SAPS   O22 8569   4.099   1.680  10.315 -0.0133 -0.2205 -0.2268
   89SAPS   C22 8570   4.206   1.832  10.165  0.1247  0.1518  0.2323
   89SAPS   H2R 8571   4.208   1.943  10.160  2.7942  0.2161  1.0936
   89SAPS   H2S 8572   4.299   1.795  10.214  0.9183  1.4976 -0.1995
   89SAPS    C3 8573   3.752   1.940  10.277  0.1707  0.7780  0.2229
   89SAPS    HX 8574   3.792   2.042  10.263 -0.0858  0.7716 -0.5530
   89SAPS    HY 8575   3.666   1.944  10.347 -1.2927  2.2724 -1.5908
   89SAPS   O31 8576   3.698   1.882  10.151  0.6655 -0.3227  0.3525
   89SAPS   C31 8577   3.614   1.963  10.095  0.1956 -0.0548 -0.1332
   89SAPS   O32 8578   3.557   2.062  10.143 -0.6219  0.3454  0.4091
   89SAPS   C32 8579   3.605   1.923   9.943  0.2292  0.3852 -0.1324
   89SAPS   H2X 8580   3.504   1.877   9.936  0.0758  0.3880  1.6194
   89SAPS   H2Y 8581   3.684   1.851   9.914  1.1313  2.2640 -2.7691
   89SAPS   C23 8582   4.214   1.756  10.029  0.6837 -0.0874  0.3564
   89SAPS   H3R 8583   4.196   1.649  10.054  0.4532  0.4056  2.5217
   89SAPS   H3S 8584   4.312   1.750   9.977  0.3467 -1.5926 -0.1701
   89SAPS   C24 8585   4.110   1.809   9.925 -0.8040  0.0828 -0.3671
   89SAPS   H4R 8586   4.013   1.821   9.977 -0.6488 -1.3529  0.2910
   89SAPS   H4S 8587   4.084   1.738   9.844  0.2731  0.3531 -0.9678
   89SAPS   C25 8588   4.155   1.938   9.859  0.5895 -0.0126  0.8029
   89SAPS   H5R 8589   4.191   2.013   9.930  2.4160  0.1892 -0.2737
   89SAPS   C26 8590   4.148   1.969   9.721 -0.2691 -0.4430 -0.0980
   89SAPS   H6R 8591   4.171   2.071   9.686  0.0712  0.1663  1.7449
   89SAPS   C27 8592   4.099   1.885   9.603  0.1822 -0.1991 -0.3688
   89SAPS   H7R 8593   3.995   1.917   9.582 -1.6233 -4.5189  1.0487
   89SAPS   H7S 8594   4.090   1.778   9.631  0.3594 -0.4527 -1.2452
   89SAPS   C28 8595   4.190   1.893   9.486 -0.3596  0.3176 -0.6240
   89SAPS   H8R 8596   4.287   1.856   9.521 -0.5873  0.2677 -0.0248
   89SAPS   C29 8597   4.173   1.941   9.361  0.4611  0.0346 -0.0990
   89SAPS   H9R 8598   4.248   1.916   9.286 -0.0999  0.8362 -0.9568
   89SAPS  C210 8599   4.046   2.014   9.315  0.0531 -0.0397 -0.6141
   89SAPS  H10R 8600   3.958   1.987   9.377 -0.0515  0.2699 -0.6265
   89SAPS  H10S 8601   4.018   1.977   9.214 -1.3353  0.8157 -0.5670
   89SAPS  C211 8602   4.068   2.164   9.305 -0.1674 -0.0860  0.2541
   89SAPS  H11R 8603   4.128   2.201   9.390 -0.0642 -3.5081  1.8297
   89SAPS  C212 8604   4.048   2.236   9.191  1.2015 -0.2357  0.1493
   89SAPS  H12R 8605   4.084   2.340   9.185 -1.3070  0.6565 -0.4701
   89SAPS  C213 8606   3.985   2.183   9.069 -0.6573 -0.7088 -0.3552
   89SAPS  H13R 8607   3.906   2.256   9.043 -1.5580 -0.6001  2.3903
   89SAPS  H13S 8608   3.930   2.087   9.084 -1.1558 -0.4808 -0.7070
   89SAPS  C214 8609   4.090   2.171   8.959  0.0661  0.1228  0.1955
   89SAPS  H14R 8610   4.174   2.105   8.984  1.7093  2.0188  0.0527
   89SAPS  C215 8611   4.119   2.253   8.853  0.1155  0.8808 -0.6995
   89SAPS  H15R 8612   4.205   2.224   8.791 -0.1611  2.6079 -1.9348
   89SAPS  C216 8613   4.025   2.355   8.792 -0.2865  0.3002 -0.1739
   89SAPS  H16R 8614   4.072   2.444   8.745 -1.0202  0.9141  0.2288
   89SAPS  H16S 8615   3.951   2.392   8.867 -0.2940  0.4738 -0.2651
   89SAPS  C217 8616   3.947   2.285   8.680  0.3865 -0.1502  0.6290
   89SAPS  H17R 8617   3.897   2.189   8.704 -2.9974  1.5410  0.9017
   89SAPS  H17S 8618   4.019   2.254   8.601 -1.1057 -1.0719 -0.4183
   89SAPS  C218 8619   3.844   2.386   8.625  0.6493 -0.1576  0.3284
   89SAPS  H18R 8620   3.899   2.475   8.588 -0.7194  1.0484  1.1345
   89SAPS  H18S 8621   3.785   2.422   8.712  2.1119 -0.7895  1.6322
   89SAPS  C219 8622   3.757   2.325   8.512 -0.2650 -0.1200 -0.0209
   89SAPS  H19R 8623   3.690   2.248   8.555 -0.1816  0.1239  0.5611
   89SAPS  H19S 8624   3.809   2.278   8.426 -0.6622 -2.5695  0.9879
   89SAPS  C220 8625   3.660   2.428   8.451 -0.1885 -0.2360 -0.5726
   89SAPS  H20R 8626   3.572   2.446   8.516 -0.5578 -1.7346 -0.6326
   89SAPS  H20S 8627   3.622   2.395   8.352 -0.6729 -0.8897 -0.1788
   89SAPS  H20T 8628   3.723   2.519   8.442  2.2162 -1.5531  1.6630
   89SAPS   C33 8629   3.595   2.047   9.853 -0.4937 -0.5404  0.7177
   89SAPS   H3X 8630   3.685   2.112   9.861 -1.5182  0.6981  3.2680
   89SAPS   H3Y 8631   3.513   2.118   9.877  0.2187  1.4362 -2.1800
   89SAPS   C34 8632   3.582   2.007   9.702  0.5026 -0.0158  0.2839
   89SAPS   H4X 8633   3.487   1.949   9.691  0.5828 -0.3786  1.3931
   89SAPS   H4Y 8634   3.658   1.931   9.675  0.9828 -0.0356  1.6356
   89SAPS   C35 8635   3.581   2.126   9.605  0.1620  0.2179  0.3498
   89SAPS   H5X 8636   3.655   2.198   9.645  0.4414  0.1059  0.0353
   89SAPS   H5Y 8637   3.486   2.184   9.604  0.0898  0.1231  1.0396
   89SAPS   C36 8638   3.603   2.079   9.457  0.4822 -0.3468 -0.2059
   89SAPS   H6X 8639   3.527   2.004   9.431  0.4559  0.0509 -1.3024
   89SAPS   H6Y 8640   3.706   2.036   9.459  0.6555  0.0824  0.8237
   89SAPS   C37 8641   3.616   2.195   9.363 -0.9856 -0.0232 -0.4008
   89SAPS   H7X 8642   3.710   2.245   9.396  0.9261 -2.4631 -1.8103
   89SAPS   H7Y 8643   3.531   2.266   9.372 -1.2907 -0.5713  1.4379
   89SAPS   C38 8644   3.632   2.143   9.218 -0.2066 -0.0231  0.4314
   89SAPS   H8X 8645   3.583   2.044   9.200 -4.5380  2.0556 -0.6261
   89SAPS   H8Y 8646   3.741   2.146   9.199 -0.5225 -1.7327 -2.2549
   89SAPS   C39 8647   3.558   2.246   9.129 -0.4291 -0.8871  0.2370
   89SAPS   H9X 8648   3.616   2.341   9.134  0.5116 -1.1635 -2.9872
   89SAPS   H9Y 8649   3.451   2.256   9.158  0.3874  0.1575  3.2789
   89SAPS  C310 8650   3.556   2.207   8.979 -0.0964 -0.3948 -1.1642
   89SAPS  H10X 8651   3.660   2.201   8.942  1.0589  3.5576  0.8302
   89SAPS  H10Y 8652   3.512   2.294   8.926  1.8469  0.6192 -1.1848
   89SAPS  C311 8653   3.480   2.080   8.946 -0.1940  0.9679 -0.5117
   89SAPS  H11X 8654   3.382   2.092   8.998  0.7930  2.5027  1.1006
   89SAPS  H11Y 8655   3.531   1.986   8.978 -1.1276  0.9275  0.9545
   89SAPS  C312 8656   3.446   2.083   8.794  0.4782  0.0706 -0.4398
   89SAPS  H12X 8657   3.407   1.986   8.758  0.3284  0.7510 -2.2143
   89SAPS  H12Y 8658   3.541   2.087   8.738  0.5983 -3.4044 -0.7238
   89SAPS  C313 8659   3.341   2.186   8.755  0.1216  0.3245 -0.2388
   89SAPS  H13X 8660   3.386   2.287   8.763 -0.5664  0.7361 -1.2788
   89SAPS  H13Y 8661   3.249   2.167   8.815  1.4417  0.1088  1.7925
   89SAPS  C314 8662   3.294   2.189   8.603  0.1514 -0.8733 -0.1824
   89SAPS  H14X 8663   3.377   2.201   8.530  1.0676  0.6218  1.0502
   89SAPS  H14Y 8664   3.231   2.279   8.588 -0.1380 -0.5134  2.6582
   89SAPS  C315 8665   3.230   2.067   8.550  0.4324 -0.0655  0.5873
   89SAPS  H15X 8666   3.286   1.972   8.564  0.6676 -0.0004  0.1310
   89SAPS  H15Y 8667   3.192   2.088   8.448 -2.2214  1.9834  1.8693
   89SAPS  C316 8668   3.091   2.040   8.619 -0.4634 -0.1073  0.6730
   89SAPS  H16X 8669   3.026   2.129   8.604  1.1878  1.3152  1.6852
   89SAPS  H16Y 8670   3.107   2.020   8.728  1.7270  1.9459  0.8019
   89SAPS  C317 8671   3.017   1.913   8.562  0.1227 -1.1352  0.0798
   89SAPS  H17X 8672   3.086   1.826   8.561 -1.4928 -2.4890  1.0682
   89SAPS  H17Y 8673   3.003   1.940   8.455 -0.2883 -3.1862 -0.4194
   89SAPS  C318 8674   2.882   1.874   8.618  0.4369 -0.5396  0.2478
   89SAPS  H18X 8675   2.893   1.820   8.715  0.5092  1.2124  1.2688
   89SAPS  H18Y 8676   2.823   1.812   8.547  0.0626  0.5703 -0.4299
   89SAPS  H18Z 8677   2.812   1.957   8.639 -1.0849 -2.0975  1.6276
   90SAPS     N 8678   4.629   3.215  11.287  0.3607  0.5021 -0.1501
   90SAPS   HN1 8679   4.651   3.231  11.186 -1.0669 -0.8695 -0.7243
   90SAPS   HN2 8680   4.560   3.137  11.287  1.6220 -0.6604  0.7481
   90SAPS   HN3 8681   4.603   3.306  11.329  1.7080  1.6578 -1.6918
   90SAPS   C12 8682   4.750   3.161  11.355  0.2492 -0.3024  0.1674
   90SAPS  H12A 8683   4.778   3.234  11.430 -2.0022  1.7712 -0.8703
   90SAPS   C13 8684   4.730   3.022  11.422 -0.2450 -0.3728 -0.5278
   90SAPS  O13A 8685   4.610   2.972  11.411 -0.5556 -0.1105 -0.4953
   90SAPS  O13B 8686   4.806   2.970  11.514  0.1889 -0.5393 -0.4549
   90SAPS   C11 8687   4.859   3.147  11.246 -1.5820 -0.1071  0.0769
   90SAPS  H11A 8688   4.957   3.134  11.296 -0.6889  2.1704 -0.9892
   90SAPS  H11B 8689   4.867   3.235  11.180  1.2859 -0.9247 -0.7710
   90SAPS     P 8690   4.768   3.038  11.012  0.4316  0.6216 -0.2751
   90SAPS   O13 8691   4.883   3.044  10.922  0.2658  0.2455 -0.5929
   90SAPS   O14 8692   4.682   2.919  11.004 -0.0613  0.4478  0.1689
   90SAPS   O12 8693   4.829   3.038  11.157 -0.0014  0.0132  0.4533
   90SAPS   O11 8694   4.677   3.170  11.006  1.1235 -0.1202 -0.1012
   90SAPS    C1 8695   4.696   3.280  10.915  0.3791 -0.1987 -0.2643
   90SAPS    HA 8696   4.760   3.361  10.956  0.3154 -0.0192 -0.5175
   90SAPS    HB 8697   4.752   3.245  10.825  1.1208 -0.0959  0.1561
   90SAPS    C2 8698   4.565   3.340  10.871  0.1952  0.5906  0.7348
   90SAPS    HS 8699   4.501   3.324  10.961 -0.9136  0.2725 -0.0872
   90SAPS   O21 8700   4.510   3.262  10.761 -0.3822  0.4985  0.3587
   90SAPS   C21 8701   4.383   3.251  10.751 -0.4825 -0.1862 -0.3190
   90SAPS   O22 8702   4.303   3.312  10.821  0.2185 -0.6592  0.3730
   90SAPS   C22 8703   4.334   3.183  10.620  0.2550 -0.0950 -0.0339
   90SAPS   H2R 8704   4.228   3.209  10.603  0.8212  1.6599 -1.1460
   90SAPS   H2S 8705   4.388   3.225  10.532 -0.2426 -1.7921 -1.1890
   90SAPS    C3 8706   4.574   3.495  10.833  1.0282  0.4367 -0.7232
   90SAPS    HX 8707   4.609   3.543  10.927 -1.3811  0.3087  0.3392
   90SAPS    HY 8708   4.468   3.530  10.830  0.7008 -0.5500 -1.0489
   90SAPS   O31 8709   4.653   3.508  10.716 -0.1798 -0.2005 -0.0726
   90SAPS   C31 8710   4.594   3.502  10.603 -0.2029 -0.5463 -0.1873
   90SAPS   O32 8711   4.475   3.497  10.584 -0.3977 -0.0289  0.4753
   90SAPS   C32 8712   4.699   3.496  10.493 -0.0413  0.2397  0.4018
   90SAPS   H2X 8713   4.769   3.412  10.515  0.7435  0.4407 -1.1863
   90SAPS   H2Y 8714   4.760   3.588  10.493  1.5212 -0.7582  0.3379
   90SAPS   C23 8715   4.359   3.029  10.613 -0.5729 -0.4211  0.1928
   90SAPS   H3R 8716   4.308   3.001  10.518 -1.3467 -1.0844  0.7941
   90SAPS   H3S 8717   4.302   2.979  10.693 -1.2447 -0.1591 -0.1133
   90SAPS   C24 8718   4.508   2.984  10.611  0.0346 -0.0455 -0.2118
   90SAPS   H4R 8719   4.525   2.875  10.602 -0.1542  0.0615 -2.6238
   90SAPS   H4S 8720   4.546   2.987  10.715 -1.9175  0.3060  0.5276
   90SAPS   C25 8721   4.599   3.068  10.524 -0.7486  0.6620  0.2558
   90SAPS   H5R 8722   4.659   3.143  10.578 -1.3392  1.1393  0.2618
   90SAPS   C26 8723   4.620   3.048  10.388  0.6673 -0.2434  0.7330
   90SAPS   H6R 8724   4.691   3.117  10.339  1.5631 -1.1809  0.6778
   90SAPS   C27 8725   4.539   2.946  10.309  0.2108  0.0137  0.2054
   90SAPS   H7R 8726   4.503   2.859  10.367 -0.2406 -1.0408 -1.5924
   90SAPS   H7S 8727   4.606   2.902  10.233  0.5272 -1.0660  1.0939
   90SAPS   C28 8728   4.427   3.018  10.238 -0.0330  0.4439 -0.4288
   90SAPS   H8R 8729   4.350   3.055  10.307 -2.0648  1.7118 -3.1557
   90SAPS   C29 8730   4.405   3.031  10.105 -0.1118 -0.2581 -0.1991
   90SAPS   H9R 8731   4.312   3.085  10.080  1.0119  2.9984  1.9119
   90SAPS  C210 8732   4.491   2.973   9.993  0.2426 -0.0935  0.0971
   90SAPS  H10R 8733   4.434   2.895   9.939 -1.7347  1.0560  0.4119
   90SAPS  H10S 8734   4.584   2.929  10.035  0.8305  1.3454  0.3641
   90SAPS  C211 8735   4.533   3.072   9.889  0.2092 -0.3532  0.2184
   90SAPS  H11R 8736   4.549   3.169   9.939 -2.2985  0.1502  0.1713
   90SAPS  C212 8737   4.541   3.048   9.752 -0.6749  0.2304 -0.4966
   90SAPS  H12R 8738   4.573   3.132   9.688 -1.0117  1.7088  1.1911
   90SAPS  C213 8739   4.525   2.909   9.689  0.2874 -0.3960 -0.2224
   90SAPS  H13R 8740   4.419   2.877   9.694  0.3970 -0.7517 -0.1153
   90SAPS  H13S 8741   4.586   2.834   9.744  1.3438  1.5564  1.3734
   90SAPS  C214 8742   4.558   2.905   9.545  0.4113  0.0754  0.0880
   90SAPS  H14R 8743   4.631   2.983   9.518 -1.6628  1.7170 -1.0953
   90SAPS  C215 8744   4.505   2.826   9.452  0.5659 -0.0474  0.1256
   90SAPS  H15R 8745   4.545   2.837   9.351  2.4372 -1.8718  0.5964
   90SAPS  C216 8746   4.402   2.720   9.466 -0.1385  0.5012  0.4291
   90SAPS  H16R 8747   4.316   2.742   9.399  0.1239  0.2956  0.0184
   90SAPS  H16S 8748   4.357   2.711   9.567  0.9880 -2.8271  0.7578
   90SAPS  C217 8749   4.449   2.585   9.418  0.3137 -0.1188 -0.4245
   90SAPS  H17R 8750   4.380   2.505   9.453  0.7972  0.0012  0.8631
   90SAPS  H17S 8751   4.546   2.558   9.466 -0.5100 -2.9396 -0.1628
   90SAPS  C218 8752   4.455   2.560   9.264 -0.7167  0.1263 -0.6140
   90SAPS  H18R 8753   4.515   2.469   9.245 -0.0510  0.8399 -2.0627
   90SAPS  H18S 8754   4.509   2.647   9.221  1.8987 -0.3128  1.5243
   90SAPS  C219 8755   4.318   2.550   9.199  0.2025  0.5444  0.1854
   90SAPS  H19R 8756   4.263   2.646   9.203 -1.1625 -0.1554 -0.7491
   90SAPS  H19S 8757   4.261   2.481   9.264 -2.5169 -0.0248 -2.5422
   90SAPS  C220 8758   4.337   2.491   9.060  0.1774  0.3278  0.4089
   90SAPS  H20R 8759   4.274   2.530   8.977 -0.2814 -1.1754  0.0127
   90SAPS  H20S 8760   4.316   2.382   9.055  2.6189 -0.2019 -4.1848
   90SAPS  H20T 8761   4.439   2.518   9.025  0.1073 -0.8642 -0.8445
   90SAPS   C33 8762   4.635   3.473  10.356  0.6525 -0.1512  0.3103
   90SAPS   H3X 8763   4.560   3.551  10.329 -0.2945 -0.6895  1.3025
   90SAPS   H3Y 8764   4.575   3.379  10.360  0.1431  0.0273 -1.8773
   90SAPS   C34 8765   4.742   3.456  10.252  0.0897 -0.0242  0.1663
   90SAPS   H4X 8766   4.793   3.364  10.287 -0.5146 -0.7229 -0.7352
   90SAPS   H4Y 8767   4.820   3.535  10.253 -0.4204  0.5228 -0.9553
   90SAPS   C35 8768   4.690   3.463  10.111  0.1980 -0.2221 -0.6025
   90SAPS   H5X 8769   4.681   3.572  10.091 -1.8473  0.5550  3.5987
   90SAPS   H5Y 8770   4.589   3.421  10.093 -0.3014  0.5445  0.3554
   90SAPS   C36 8771   4.792   3.400  10.005 -0.9175 -0.5582 -0.1041
   90SAPS   H6X 8772   4.793   3.290  10.019  2.2203 -1.1286 -3.4369
   90SAPS   H6Y 8773   4.894   3.440  10.020  0.4068 -3.0273 -1.7831
   90SAPS   C37 8774   4.743   3.429   9.862  0.0515 -0.1327 -0.6284
   90SAPS   H7X 8775   4.736   3.538   9.846  1.0607  0.2691  1.3996
   90SAPS   H7Y 8776   4.645   3.379   9.845  0.2592  0.1168 -2.9082
   90SAPS   C38 8777   4.837   3.358   9.769  0.2448 -0.1122  0.5767
   90SAPS   H8X 8778   4.846   3.253   9.805  2.5033 -0.5530 -1.0717
   90SAPS   H8Y 8779   4.935   3.407   9.782 -0.3990  0.7105  2.6577
   90SAPS   C39 8780   4.796   3.360   9.626 -0.6079 -0.0378 -0.0077
   90SAPS   H9X 8781   4.786   3.468   9.602 -1.4750 -0.5247 -2.0046
   90SAPS   H9Y 8782   4.700   3.306   9.614 -0.1186 -1.0251  0.4356
   90SAPS  C310 8783   4.896   3.281   9.544 -0.4751  0.3264  0.2114
   90SAPS  H10X 8784   4.923   3.183   9.590  2.0092 -0.1470 -2.0194
   90SAPS  H10Y 8785   4.997   3.327   9.534 -0.2008 -0.2897  0.0841
   90SAPS  C311 8786   4.843   3.249   9.401  0.4746 -0.2668 -0.4021
   90SAPS  H11X 8787   4.803   3.339   9.350  1.3684  1.0348  1.0752
   90SAPS  H11Y 8788   4.761   3.175   9.413 -1.2090  1.2737 -1.8113
   90SAPS  C312 8789   4.940   3.180   9.302  0.3077 -0.0941 -0.8203
   90SAPS  H12X 8790   4.983   3.095   9.360 -1.7055 -0.0278  0.8920
   90SAPS  H12Y 8791   5.008   3.254   9.254  3.0599 -1.4711  0.6889
   90SAPS  C313 8792   4.872   3.107   9.188  0.1201  0.6963  0.1747
   90SAPS  H13X 8793   4.800   3.173   9.136 -2.7197 -0.9265  1.8077
   90SAPS  H13Y 8794   4.808   3.022   9.219  1.3120 -0.2564  0.0829
   90SAPS  C314 8795   4.972   3.059   9.076 -0.1447  0.0376  0.0997
   90SAPS  H14X 8796   5.047   2.999   9.131 -2.3964  0.3366  3.8280
   90SAPS  H14Y 8797   5.028   3.140   9.026 -1.7659  1.0193 -0.1846
   90SAPS  C315 8798   4.896   2.989   8.965 -0.6376  0.7545  0.6383
   90SAPS  H15X 8799   4.841   3.070   8.913  0.0273  2.0316  1.8667
   90SAPS  H15Y 8800   4.813   2.924   8.999 -2.4932  0.9544 -2.9839
   90SAPS  C316 8801   4.990   2.904   8.876 -0.0310 -0.4872  0.0681
   90SAPS  H16X 8802   5.040   2.826   8.938 -0.6310 -0.5875  0.4379
   90SAPS  H16Y 8803   5.061   2.984   8.849 -0.5538 -0.0008  0.1201
   90SAPS  C317 8804   4.914   2.855   8.752 -0.5173  0.3061  0.2579
   90SAPS  H17X 8805   4.818   2.805   8.778  0.9998 -1.7307  2.2688
   90SAPS  H17Y 8806   4.975   2.784   8.693 -0.3023 -1.1371  2.1210
   90SAPS  C318 8807   4.865   2.973   8.664  0.1545 -0.4489 -0.2215
   90SAPS  H18X 8808   4.950   3.042   8.644  0.7736 -0.8995  0.7781
   90SAPS  H18Y 8809   4.782   3.031   8.710 -0.8769  1.9710 -4.5741
   90SAPS  H18Z 8810   4.837   2.939   8.562  4.0187 -2.2794 -0.8724
   91SAPS     N 8811   0.093   0.695   6.212  0.3419  0.5233  0.5121
   91SAPS   HN1 8812   0.002   0.744   6.202 -0.3455 -0.7198  0.5445
   91SAPS   HN2 8813   0.082   0.641   6.300 -0.6263  1.5255  1.0324
   91SAPS   HN3 8814   0.160   0.774   6.223 -1.7546  2.6168 -0.8261
   91SAPS   C12 8815   0.122   0.609   6.093 -0.1140  0.2552  0.2768
   91SAPS  H12A 8816   0.053   0.527   6.089  1.2730 -0.9231 -3.5344
   91SAPS   C13 8817   0.107   0.670   5.959 -0.0380 -0.9310 -0.5947
   91SAPS  O13A 8818   0.049   0.791   5.947  0.2247  0.3082 -0.0546
   91SAPS  O13B 8819   0.145   0.612   5.858  0.0433  0.3247 -0.1005
   91SAPS   C11 8820   0.256   0.536   6.112 -0.7919 -0.2719 -0.1700
   91SAPS  H11A 8821   0.287   0.486   6.017 -0.7126 -1.2830  0.3795
   91SAPS  H11B 8822   0.242   0.455   6.186 -2.2804 -0.1960 -0.3311
   91SAPS     P 8823   0.497   0.574   6.206  0.3471  0.1202 -0.0866
   91SAPS   O13 8824   0.555   0.482   6.109  0.1310  0.4669 -1.0153
   91SAPS   O14 8825   0.579   0.685   6.247 -0.2146 -0.3257  0.2109
   91SAPS   O12 8826   0.362   0.629   6.146 -0.1339  0.7825 -0.2698
   91SAPS   O11 8827   0.441   0.498   6.331 -0.5847  0.0555  0.1355
   91SAPS    C1 8828   0.335   0.545   6.421  0.1185  0.0604  0.2879
   91SAPS    HA 8829   0.278   0.632   6.382  0.1078  0.2338  0.6873
   91SAPS    HB 8830   0.267   0.459   6.440  1.8657 -1.3196  0.6240
   91SAPS    C2 8831   0.383   0.568   6.569 -0.7804  0.3768  1.1984
   91SAPS    HS 8832   0.290   0.583   6.629 -0.9001  0.8245  0.9091
   91SAPS   O21 8833   0.481   0.678   6.587  0.1832  0.1747  0.7651
   91SAPS   C21 8834   0.426   0.791   6.561  0.0258 -0.0370  0.1558
   91SAPS   O22 8835   0.308   0.808   6.536  0.0022 -0.0892 -0.2504
   91SAPS   C22 8836   0.536   0.892   6.551  0.0492  0.1032  0.2877
   91SAPS   H2R 8837   0.629   0.851   6.597 -0.5471 -0.2117  1.2330
   91SAPS   H2S 8838   0.552   0.907   6.442  1.3654  1.7682  0.6623
   91SAPS    C3 8839   0.456   0.443   6.618 -0.2791 -0.0851  0.1098
   91SAPS    HX 8840   0.538   0.418   6.547 -1.2704 -1.0338 -0.7292
   91SAPS    HY 8841   0.390   0.354   6.617  1.0458 -1.1124 -1.3557
   91SAPS   O31 8842   0.501   0.450   6.760 -0.5197 -0.1070 -0.0407
   91SAPS   C31 8843   0.622   0.492   6.780  0.0082 -0.2662  0.0753
   91SAPS   O32 8844   0.707   0.506   6.691 -0.1037  0.1591 -0.4004
   91SAPS   C32 8845   0.643   0.517   6.929 -0.2371  0.1801 -0.3732
   91SAPS   H2X 8846   0.639   0.421   6.985  2.3923  0.6562  0.7658
   91SAPS   H2Y 8847   0.558   0.576   6.970 -0.0989 -0.5203  0.9688
   91SAPS   C23 8848   0.505   1.021   6.628  0.5641 -0.3631 -0.3828
   91SAPS   H3R 8849   0.418   1.077   6.589 -0.6659 -1.1401  1.1107
   91SAPS   H3S 8850   0.584   1.099   6.622 -0.9355  1.3109  0.8154
   91SAPS   C24 8851   0.495   0.985   6.781  0.5321  0.0305  0.6998
   91SAPS   H4R 8852   0.402   0.930   6.807  0.7423 -0.3635  0.6156
   91SAPS   H4S 8853   0.481   1.081   6.835 -1.8149 -1.0332  2.1256
   91SAPS   C25 8854   0.607   0.916   6.850 -0.1637  0.1057 -0.1649
   91SAPS   H5R 8855   0.649   0.831   6.793 -0.8846 -0.2002 -0.2478
   91SAPS   C26 8856   0.640   0.932   6.978  0.0378  0.2721  0.0070
   91SAPS   H6R 8857   0.717   0.866   7.019  0.3697  0.2555 -0.6308
   91SAPS   C27 8858   0.584   1.034   7.074 -0.1140  0.0802 -0.2958
   91SAPS   H7R 8859   0.506   0.988   7.138 -0.7673  0.0953 -1.0734
   91SAPS   H7S 8860   0.529   1.116   7.024  1.8590  3.2891  2.3152
   91SAPS   C28 8861   0.695   1.108   7.151 -0.9653  0.9270  0.0833
   91SAPS   H8R 8862   0.781   1.135   7.088 -1.7130  0.6102 -1.1088
   91SAPS   C29 8863   0.682   1.158   7.277 -0.3284 -0.1150 -0.3234
   91SAPS   H9R 8864   0.774   1.199   7.321 -1.1475  0.7510  0.6385
   91SAPS  C210 8865   0.584   1.114   7.382  0.8667  0.8253  0.0415
   91SAPS  H10R 8866   0.512   1.047   7.330  0.9728  1.1752 -0.5728
   91SAPS  H10S 8867   0.537   1.207   7.421  2.9026  1.7882  0.3453
   91SAPS  C211 8868   0.640   1.036   7.495 -0.4042 -0.0627  0.4742
   91SAPS  H11R 8869   0.717   1.093   7.550 -1.2613  0.4327  1.2013
   91SAPS  C212 8870   0.609   0.915   7.543 -0.2879 -0.7751  0.9341
   91SAPS  H12R 8871   0.674   0.884   7.626  1.8402  1.3166  0.1771
   91SAPS  C213 8872   0.521   0.807   7.476  0.2485  0.4425  0.3239
   91SAPS  H13R 8873   0.512   0.831   7.368 -1.4727  0.7107  0.5116
   91SAPS  H13S 8874   0.419   0.822   7.516  0.5188  1.1129  0.7616
   91SAPS  C214 8875   0.570   0.664   7.499  0.2084 -0.5578  0.3832
   91SAPS  H14R 8876   0.656   0.627   7.441  1.1980  0.5285  1.1035
   91SAPS  C215 8877   0.521   0.574   7.581 -0.6009  0.6763  0.4063
   91SAPS  H15R 8878   0.569   0.475   7.577 -0.6306  0.6852 -4.0178
   91SAPS  C216 8879   0.412   0.598   7.684 -0.0374  0.1971 -0.2401
   91SAPS  H16R 8880   0.334   0.525   7.656  0.9971 -0.2817 -2.0249
   91SAPS  H16S 8881   0.357   0.695   7.673 -0.8023 -0.3736 -1.6345
   91SAPS  C217 8882   0.461   0.587   7.829  0.4882  0.4281  0.2996
   91SAPS  H17R 8883   0.502   0.484   7.836  2.5249  0.9121 -2.5095
   91SAPS  H17S 8884   0.383   0.606   7.905  2.6717  3.9211  1.9536
   91SAPS  C218 8885   0.588   0.679   7.865 -0.3320  0.6833  0.1741
   91SAPS  H18R 8886   0.561   0.786   7.852 -1.0822  0.3669 -1.0713
   91SAPS  H18S 8887   0.681   0.653   7.809  0.8154  1.4024  1.6513
   91SAPS  C219 8888   0.617   0.664   8.019 -0.0121  0.7134  0.4611
   91SAPS  H19R 8889   0.520   0.683   8.069 -1.4021 -1.6463 -1.1918
   91SAPS  H19S 8890   0.698   0.735   8.047 -0.1424  0.3485  1.8259
   91SAPS  C220 8891   0.680   0.532   8.042  0.2544 -0.0672 -0.6901
   91SAPS  H20R 8892   0.769   0.522   7.977  0.2583 -1.0277 -0.5495
   91SAPS  H20S 8893   0.616   0.442   8.038 -1.8185  1.3488 -1.2145
   91SAPS  H20T 8894   0.727   0.521   8.142 -2.2379  0.8237  0.6701
   91SAPS   C33 8895   0.779   0.589   6.962 -0.0853  0.0116 -1.0019
   91SAPS   H3X 8896   0.785   0.674   6.891 -1.7471 -0.5393 -1.8771
   91SAPS   H3Y 8897   0.864   0.521   6.942  0.4419  0.1899  0.5073
   91SAPS   C34 8898   0.783   0.627   7.113 -0.5687  0.0310 -0.2573
   91SAPS   H4X 8899   0.781   0.535   7.176  2.9550  0.3544  0.5421
   91SAPS   H4Y 8900   0.701   0.693   7.146 -1.1406 -0.7171 -0.1403
   91SAPS   C35 8901   0.911   0.698   7.162 -0.4563 -0.4128  0.0134
   91SAPS   H5X 8902   0.925   0.791   7.104 -0.1669  0.9321  2.1155
   91SAPS   H5Y 8903   0.990   0.622   7.140  0.8739  0.6280  1.0406
   91SAPS   C36 8904   0.915   0.744   7.311  0.3867  0.0808  0.7852
   91SAPS   H6X 8905   0.881   0.667   7.384 -0.8190  1.2326  1.4860
   91SAPS   H6Y 8906   0.853   0.835   7.328 -0.5325 -0.5353  0.8265
   91SAPS   C37 8907   1.063   0.769   7.341  0.0856 -0.0461 -0.5262
   91SAPS   H7X 8908   1.092   0.861   7.287 -1.9333 -0.4961 -2.5545
   91SAPS   H7Y 8909   1.130   0.690   7.300 -1.0761 -1.5332  0.3090
   91SAPS   C38 8910   1.089   0.792   7.491 -0.4398  0.2405 -0.0229
   91SAPS   H8X 8911   1.011   0.861   7.530  0.1337  0.1859  1.2768
   91SAPS   H8Y 8912   1.189   0.840   7.506 -1.0087  1.1872  0.9243
   91SAPS   C39 8913   1.092   0.671   7.575 -0.1877  0.1527 -0.2594
   91SAPS   H9X 8914   1.176   0.608   7.538 -0.8180 -0.4206 -0.7329
   91SAPS   H9Y 8915   0.996   0.617   7.562  0.5041 -1.0097 -0.7108
   91SAPS  C310 8916   1.118   0.694   7.723  0.2678  0.7785 -0.1535
   91SAPS  H10X 8917   1.203   0.766   7.731  1.3867 -0.4403 -0.5921
   91SAPS  H10Y 8918   1.145   0.598   7.772 -1.8743  0.2185  0.0097
   91SAPS  C311 8919   0.995   0.745   7.797  0.3720 -1.2854 -0.3539
   91SAPS  H11X 8920   0.907   0.686   7.766 -0.6828  1.3950 -2.9346
   91SAPS  H11Y 8921   0.983   0.843   7.746  0.7339 -0.5311  0.9604
   91SAPS  C312 8922   1.013   0.746   7.948  0.9408 -0.4971 -0.9624
   91SAPS  H12X 8923   1.037   0.645   7.986 -2.9981 -0.8882  1.0015
   91SAPS  H12Y 8924   0.912   0.780   7.979  1.4946 -0.7318  1.2556
   91SAPS  C313 8925   1.120   0.844   7.997 -0.0557 -0.9213  0.0859
   91SAPS  H13X 8926   1.109   0.942   7.946  1.4359 -0.4460  0.6153
   91SAPS  H13Y 8927   1.222   0.804   7.980  0.1699 -0.7024  0.8997
   91SAPS  C314 8928   1.112   0.877   8.145  0.0193 -0.7172 -0.2173
   91SAPS  H14X 8929   1.137   0.792   8.211  0.8648  0.2006  0.6908
   91SAPS  H14Y 8930   1.007   0.903   8.170 -0.4548  1.3190 -3.6966
   91SAPS  C315 8931   1.194   1.003   8.192  0.2873 -0.1300  0.1773
   91SAPS  H15X 8932   1.173   1.093   8.131  1.7805 -0.8784 -1.5316
   91SAPS  H15Y 8933   1.300   0.979   8.171 -0.2591 -0.6836 -2.3029
   91SAPS  C316 8934   1.171   1.042   8.340 -0.3266  0.4823 -0.1647
   91SAPS  H16X 8935   1.189   0.961   8.414  1.5288  0.8642 -0.1568
   91SAPS  H16Y 8936   1.067   1.078   8.355 -0.8606 -0.9552 -0.2003
   91SAPS  C317 8937   1.260   1.162   8.383  0.2470 -0.0807  0.4351
   91SAPS  H17X 8938   1.364   1.125   8.393 -0.4430 -1.5635  3.3873
   91SAPS  H17Y 8939   1.226   1.181   8.487 -0.3606  1.7192 -0.0526
   91SAPS  C318 8940   1.249   1.291   8.307  0.1165 -0.8370  0.2957
   91SAPS  H18X 8941   1.321   1.361   8.355 -1.4327  0.3669  0.9930
   91SAPS  H18Y 8942   1.149   1.341   8.312  0.4691 -0.1844  3.5944
   91SAPS  H18Z 8943   1.283   1.272   8.203 -1.1439  0.3479 -0.3752
   92SAPS     N 8944   0.738   5.252   6.005 -0.2810 -0.0136  0.4697
   92SAPS   HN1 8945   0.668   5.242   6.081  0.0567  2.1671  1.1481
   92SAPS   HN2 8946   0.827   5.209   6.037 -1.3134 -2.3754  0.3641
   92SAPS   HN3 8947   0.755   5.352   5.982  1.8152 -0.4497 -0.0993
   92SAPS   C12 8948   0.700   5.189   5.874  0.4109 -0.1409  0.3930
   92SAPS  H12A 8949   0.693   5.082   5.880  0.8082 -0.2769 -1.1656
   92SAPS   C13 8950   0.568   5.235   5.817 -0.3840 -0.1154  0.2204
   92SAPS  O13A 8951   0.493   5.317   5.885 -0.3272 -0.2603  0.0220
   92SAPS  O13B 8952   0.510   5.170   5.725 -0.5073 -0.6012  0.7906
   92SAPS   C11 8953   0.810   5.214   5.759 -0.0354 -0.1922 -0.5796
   92SAPS  H11A 8954   0.801   5.320   5.728 -0.3961 -0.8945 -3.1366
   92SAPS  H11B 8955   0.798   5.147   5.671  1.3911 -1.0868 -0.1190
   92SAPS     P 8956   1.068   5.227   5.730 -0.0447 -0.0310 -0.4100
   92SAPS   O13 8957   1.048   5.169   5.597 -0.7825  1.0605 -0.0332
   92SAPS   O14 8958   1.076   5.375   5.735  0.0816  0.2061 -0.2761
   92SAPS   O12 8959   0.946   5.187   5.810 -0.4227 -0.5594 -0.3226
   92SAPS   O11 8960   1.180   5.157   5.806 -0.4485  0.3310 -0.8308
   92SAPS    C1 8961   1.182   5.017   5.841 -0.0990  0.1699 -0.5301
   92SAPS    HA 8962   1.149   4.946   5.763  0.0504 -1.3329  0.7204
   92SAPS    HB 8963   1.287   4.986   5.861 -0.5674 -1.0451  0.2157
   92SAPS    C2 8964   1.106   4.989   5.974 -0.6905  0.0291 -0.4781
   92SAPS    HS 8965   1.001   5.013   5.949 -1.5529  1.1931  3.5236
   92SAPS   O21 8966   1.166   5.063   6.079  0.5189 -0.2445 -0.1860
   92SAPS   C21 8967   1.083   5.142   6.146  0.5558  0.0918 -0.3099
   92SAPS   O22 8968   0.961   5.139   6.141 -0.4970 -0.5053 -0.0950
   92SAPS   C22 8969   1.168   5.238   6.233 -0.3631  0.3884  0.3110
   92SAPS   H2R 8970   1.226   5.168   6.296  1.2199  1.7325  0.4131
   92SAPS   H2S 8971   1.238   5.297   6.169 -0.5422  1.0049  0.6780
   92SAPS    C3 8972   1.098   4.834   6.015 -0.1794 -0.0730 -0.0130
   92SAPS    HX 8973   1.199   4.825   6.058 -1.1131 -1.8066  2.0111
   92SAPS    HY 8974   1.086   4.766   5.928  0.6303 -1.4580  0.9147
   92SAPS   O31 8975   0.996   4.801   6.116 -0.0537  0.0644  0.4185
   92SAPS   C31 8976   0.878   4.782   6.067 -0.1299  0.1695  0.2992
   92SAPS   O32 8977   0.835   4.808   5.955  0.0761 -0.4274  0.2172
   92SAPS   C32 8978   0.791   4.708   6.167  0.1083  0.5965  0.1159
   92SAPS   H2X 8979   0.853   4.703   6.259 -0.6259  0.5342  0.6149
   92SAPS   H2Y 8980   0.772   4.600   6.146  1.4938  0.3537  0.0365
   92SAPS   C23 8981   1.070   5.328   6.314 -0.5176  0.2811 -0.2736
   92SAPS   H3R 8982   0.992   5.366   6.244 -0.9835 -1.0848 -0.5215
   92SAPS   H3S 8983   1.132   5.408   6.361  1.2154 -2.0101  1.5458
   92SAPS   C24 8984   0.995   5.265   6.435 -1.6261 -0.7808 -0.1749
   92SAPS   H4R 8985   1.075   5.216   6.494 -1.6450  0.1542  0.6552
   92SAPS   H4S 8986   0.937   5.184   6.386  0.5851 -2.0958 -0.7445
   92SAPS   C25 8987   0.908   5.362   6.519 -0.1340  0.4383 -0.2987
   92SAPS   H5R 8988   0.873   5.454   6.471  0.3808 -0.8180 -3.2954
   92SAPS   C26 8989   0.882   5.356   6.651 -0.5580 -0.7754 -0.7540
   92SAPS   H6R 8990   0.824   5.438   6.696 -2.7409 -1.2728 -2.5334
   92SAPS   C27 8991   0.934   5.253   6.748 -0.2482 -0.6505 -0.0052
   92SAPS   H7R 8992   1.017   5.303   6.803  0.6168 -0.5493 -1.3670
   92SAPS   H7S 8993   0.972   5.171   6.684  0.7492  0.7955 -1.3494
   92SAPS   C28 8994   0.829   5.200   6.845 -0.4791 -0.6175 -0.0385
   92SAPS   H8R 8995   0.724   5.207   6.814 -0.0724 -0.2446 -1.4119
   92SAPS   C29 8996   0.853   5.142   6.964  0.0824  0.4246 -0.6462
   92SAPS   H9R 8997   0.773   5.107   7.032  1.7380 -0.1780  1.0700
   92SAPS  C210 8998   0.984   5.141   7.036 -1.1925 -0.2075 -1.1123
   92SAPS  H10R 8999   1.070   5.166   6.970  1.8172  0.1278  2.5147
   92SAPS  H10S 9000   1.012   5.043   7.080 -2.3080  0.6335  1.7150
   92SAPS  C211 9001   0.984   5.242   7.144  0.1184  0.0974 -0.5240
   92SAPS  H11R 9002   0.970   5.345   7.108  1.3872  0.3642 -0.3069
   92SAPS  C212 9003   0.977   5.226   7.278 -0.3280  0.0801 -0.6869
   92SAPS  H12R 9004   0.970   5.312   7.345  0.8111 -0.3828  0.0576
   92SAPS  C213 9005   0.984   5.093   7.358 -0.7333 -0.2786  0.0163
   92SAPS  H13R 9006   1.090   5.076   7.386 -0.2099  2.8619  0.3499
   92SAPS  H13S 9007   0.949   5.013   7.290 -0.1222  0.5098 -1.2742
   92SAPS  C214 9008   0.906   5.101   7.488 -0.4533 -0.0554 -0.8327
   92SAPS  H14R 9009   0.824   5.173   7.503  1.1579  2.0015 -1.3949
   92SAPS  C215 9010   0.920   5.020   7.597 -0.3259 -0.2150 -0.0629
   92SAPS  H15R 9011   0.859   5.046   7.685  0.9301  2.6954  0.0624
   92SAPS  C216 9012   1.007   4.896   7.600 -0.3456  0.1850 -0.3708
   92SAPS  H16R 9013   1.105   4.914   7.549 -0.0973 -2.0480 -0.7977
   92SAPS  H16S 9014   0.958   4.811   7.547 -1.2052 -0.2809  1.1311
   92SAPS  C217 9015   1.027   4.836   7.746 -0.2128  0.9691  0.4905
   92SAPS  H17R 9016   1.063   4.731   7.733 -1.5369  0.6549 -0.8418
   92SAPS  H17S 9017   0.924   4.827   7.785  0.3706  0.8802  2.0949
   92SAPS  C218 9018   1.101   4.926   7.839  0.2928  0.0542 -0.2376
   92SAPS  H18R 9019   1.046   5.019   7.864  0.4669 -0.2146  1.2110
   92SAPS  H18S 9020   1.196   4.959   7.791 -1.2697 -0.4022 -4.0091
   92SAPS  C219 9021   1.139   4.855   7.976  0.1358 -0.4662 -0.8182
   92SAPS  H19R 9022   1.196   4.761   7.955 -2.9391 -2.3247 -1.4404
   92SAPS  H19S 9023   1.041   4.829   8.021 -0.0640  0.6810 -0.5578
   92SAPS  C220 9024   1.214   4.949   8.080 -0.2696  0.1258  0.0891
   92SAPS  H20R 9025   1.304   4.979   8.024 -2.5881 -0.5967 -4.5240
   92SAPS  H20S 9026   1.238   4.892   8.173  1.4024 -0.2843 -0.5597
   92SAPS  H20T 9027   1.138   5.025   8.109  0.0101  1.3716 -2.2851
   92SAPS   C33 9028   0.658   4.770   6.192 -0.3778 -0.3192  0.2724
   92SAPS   H3X 9029   0.610   4.727   6.283  0.8020 -0.2011  0.9687
   92SAPS   H3Y 9030   0.587   4.747   6.110  0.2036 -2.2057  0.2462
   92SAPS   C34 9031   0.658   4.925   6.220  0.3336  0.4098  0.7954
   92SAPS   H4X 9032   0.554   4.964   6.231 -0.5750 -1.1485 -1.4495
   92SAPS   H4Y 9033   0.698   4.974   6.129  2.6563 -0.6429  1.1750
   92SAPS   C35 9034   0.743   4.962   6.340  0.0133 -0.2856 -0.9109
   92SAPS   H5X 9035   0.744   5.073   6.349  0.5349 -0.4285  1.9415
   92SAPS   H5Y 9036   0.845   4.934   6.307 -0.5265 -3.1433 -0.4411
   92SAPS   C36 9037   0.701   4.905   6.477 -0.0064 -0.9175 -1.1025
   92SAPS   H6X 9038   0.678   4.796   6.474  0.6617 -1.2641  2.5178
   92SAPS   H6Y 9039   0.609   4.951   6.519  1.1858  1.2569 -0.7382
   92SAPS   C37 9040   0.813   4.923   6.572 -0.6229 -0.4986 -0.6346
   92SAPS   H7X 9041   0.822   5.031   6.594 -0.7839 -1.0650  2.7583
   92SAPS   H7Y 9042   0.910   4.882   6.536  0.7934  1.8106  0.3250
   92SAPS   C38 9043   0.776   4.855   6.705 -0.2068 -0.2247 -0.3908
   92SAPS   H8X 9044   0.844   4.897   6.783 -0.9234 -0.1097  0.1871
   92SAPS   H8Y 9045   0.782   4.745   6.694 -0.1956 -0.2972  0.2509
   92SAPS   C39 9046   0.635   4.882   6.767  0.3094 -0.1641 -0.2702
   92SAPS   H9X 9047   0.550   4.844   6.706  0.6301 -0.7589 -0.3621
   92SAPS   H9Y 9048   0.622   4.991   6.754 -0.8211 -0.0821  1.2636
   92SAPS  C310 9049   0.624   4.834   6.914  0.4389 -0.5449 -0.3570
   92SAPS  H10X 9050   0.712   4.874   6.968  1.5877 -0.5627 -2.1157
   92SAPS  H10Y 9051   0.633   4.723   6.916 -0.4509 -0.6228 -0.4100
   92SAPS  C311 9052   0.498   4.885   6.984  0.3218 -0.3494 -0.7141
   92SAPS  H11X 9053   0.403   4.849   6.940  1.0329 -1.6493 -1.2212
   92SAPS  H11Y 9054   0.498   4.993   6.958  0.3582 -0.2150 -0.1722
   92SAPS  C312 9055   0.486   4.893   7.136 -0.6209  0.2898 -0.2097
   92SAPS  H12X 9056   0.445   4.991   7.166  0.1619  0.5116  0.1613
   92SAPS  H12Y 9057   0.593   4.894   7.167  0.1055 -1.1403 -2.4103
   92SAPS  C313 9058   0.395   4.784   7.197 -0.3674 -0.1918  0.6418
   92SAPS  H13X 9059   0.447   4.687   7.181 -1.1823 -0.5484  0.0696
   92SAPS  H13Y 9060   0.296   4.774   7.146  0.0699 -2.1839  0.0719
   92SAPS  C314 9061   0.368   4.810   7.339  0.7000  0.1015 -0.4219
   92SAPS  H14X 9062   0.287   4.751   7.388 -0.4592  2.2712  0.3952
   92SAPS  H14Y 9063   0.328   4.913   7.350 -0.5395 -0.3403 -0.6361
   92SAPS  C315 9064   0.487   4.816   7.431 -0.2490 -1.2412 -0.1889
   92SAPS  H15X 9065   0.563   4.890   7.396 -0.6467 -0.0254  1.4529
   92SAPS  H15Y 9066   0.537   4.716   7.425  0.4397 -0.8407 -1.9132
   92SAPS  C316 9067   0.457   4.858   7.578  0.0516 -0.5959  0.0907
   92SAPS  H16X 9068   0.383   4.790   7.626 -0.9391  1.6614  1.9955
   92SAPS  H16Y 9069   0.427   4.965   7.572  0.7479 -0.4727 -1.6870
   92SAPS  C317 9070   0.580   4.860   7.664 -0.2943 -0.4198 -0.5377
   92SAPS  H17X 9071   0.657   4.909   7.600 -1.2069 -1.2321 -2.3127
   92SAPS  H17Y 9072   0.626   4.760   7.677 -0.2314 -0.3592 -0.2866
   92SAPS  C318 9073   0.561   4.938   7.797  0.1460 -0.7146 -0.2970
   92SAPS  H18X 9074   0.486   4.885   7.861 -0.9381  1.0971 -0.0076
   92SAPS  H18Y 9075   0.530   5.044   7.792  3.5242  0.3216 -2.1162
   92SAPS  H18Z 9076   0.658   4.926   7.850  0.7284 -0.5684 -1.3201
   93SAPS     N 9077   0.404   5.557   5.822 -0.2547  0.1027  0.3219
   93SAPS   HN1 9078   0.311   5.517   5.801 -0.7794  0.5032  1.7881
   93SAPS   HN2 9079   0.466   5.487   5.868 -0.1373 -1.1754 -1.6599
   93SAPS   HN3 9080   0.382   5.644   5.874 -0.3665 -1.2193  2.6087
   93SAPS   C12 9081   0.474   5.609   5.692  0.3758 -0.2644 -0.0045
   93SAPS  H12A 9082   0.499   5.530   5.623  0.7364  0.9855 -1.3329
   93SAPS   C13 9083   0.398   5.710   5.604  0.0002 -0.4126 -0.2193
   93SAPS  O13A 9084   0.277   5.735   5.633 -0.3440  0.6490 -0.3237
   93SAPS  O13B 9085   0.449   5.747   5.495  0.4423 -0.1441 -0.1269
   93SAPS   C11 9086   0.611   5.670   5.742  0.2301  0.2543 -0.5758
   93SAPS  H11A 9087   0.593   5.766   5.795  1.0040  0.7156 -1.1134
   93SAPS  H11B 9088   0.676   5.689   5.654  1.0422 -0.7372 -0.2053
   93SAPS     P 9089   0.794   5.621   5.924  0.5705  0.0344 -0.0401
   93SAPS   O13 9090   0.857   5.506   5.982 -0.3920  0.4759 -0.5421
   93SAPS   O14 9091   0.883   5.710   5.848  0.0334  0.6204  0.0404
   93SAPS   O12 9092   0.673   5.578   5.833  0.0347 -0.1528  0.6226
   93SAPS   O11 9093   0.714   5.706   6.035 -0.2076 -0.6737  0.2551
   93SAPS    C1 9094   0.632   5.626   6.121 -0.7825  0.2419 -0.4886
   93SAPS    HA 9095   0.542   5.679   6.159 -2.8730 -2.5698 -1.1738
   93SAPS    HB 9096   0.578   5.541   6.075 -0.0730 -0.3065 -0.3154
   93SAPS    C2 9097   0.712   5.591   6.249 -0.3845 -0.4453  0.1504
   93SAPS    HS 9098   0.790   5.516   6.224  1.1545  0.9744  0.4887
   93SAPS   O21 9099   0.623   5.540   6.352  0.0281 -0.4929  0.7150
   93SAPS   C21 9100   0.591   5.407   6.336  0.2535  0.1334  0.0978
   93SAPS   O22 9101   0.649   5.333   6.258  0.2768  1.1639  0.1997
   93SAPS   C22 9102   0.473   5.366   6.423  0.0153  1.2636  0.4073
   93SAPS   H2R 9103   0.455   5.445   6.499 -1.1703 -2.2420  4.1334
   93SAPS   H2S 9104   0.386   5.346   6.358 -0.6929 -0.9485  1.9207
   93SAPS    C3 9105   0.790   5.715   6.316  0.1515  0.5951  0.8961
   93SAPS    HX 9106   0.711   5.791   6.331 -0.4881  0.0321  0.4159
   93SAPS    HY 9107   0.865   5.735   6.236 -0.7263  0.3184 -0.0144
   93SAPS   O31 9108   0.864   5.682   6.435 -0.1777 -1.1497  0.1773
   93SAPS   C31 9109   0.934   5.778   6.490 -0.1678  0.1239 -0.3586
   93SAPS   O32 9110   0.934   5.898   6.462 -0.1685 -0.7841  0.2302
   93SAPS   C32 9111   1.021   5.717   6.603 -0.3962  0.2039  0.4709
   93SAPS   H2X 9112   1.127   5.732   6.573 -0.4658 -0.2260  0.0190
   93SAPS   H2Y 9113   0.999   5.609   6.616  1.9256 -0.2149  1.5889
   93SAPS   C23 9114   0.507   5.230   6.493  0.1247  0.4169 -0.1869
   93SAPS   H3R 9115   0.614   5.218   6.519 -0.1742 -2.9676 -0.0278
   93SAPS   H3S 9116   0.488   5.138   6.432 -3.5647  0.3775  0.7496
   93SAPS   C24 9117   0.426   5.227   6.624  0.2616 -0.1700 -0.2769
   93SAPS   H4R 9118   0.449   5.295   6.709  0.7550  0.3479 -0.8089
   93SAPS   H4S 9119   0.472   5.140   6.675 -1.1210 -0.9164 -0.2627
   93SAPS   C25 9120   0.282   5.212   6.599  0.5118  0.3717 -0.5503
   93SAPS   H5R 9121   0.241   5.293   6.536 -0.8633  0.0701 -0.0698
   93SAPS   C26 9122   0.203   5.129   6.679  0.1019  0.5831 -0.1355
   93SAPS   H6R 9123   0.094   5.127   6.666  0.2315 -0.3398 -1.3081
   93SAPS   C27 9124   0.259   5.024   6.777  0.2877 -0.7657  0.7041
   93SAPS   H7R 9125   0.305   5.080   6.861  0.3955  2.3610 -1.2795
   93SAPS   H7S 9126   0.334   4.954   6.732 -0.0252 -3.0750  3.4804
   93SAPS   C28 9127   0.150   4.931   6.815  0.1594  0.7883 -0.3344
   93SAPS   H8R 9128   0.098   4.880   6.733  1.2093 -3.2338  1.2154
   93SAPS   C29 9129   0.104   4.898   6.937  0.4635 -0.0935  0.3207
   93SAPS   H9R 9130   0.034   4.814   6.952  1.1360 -1.2185 -2.1831
   93SAPS  C210 9131   0.131   4.967   7.065 -0.2936  0.1777 -0.1068
   93SAPS  H10R 9132   0.220   5.033   7.053 -0.2538  0.0878 -0.3067
   93SAPS  H10S 9133   0.153   4.900   7.151 -0.1691  2.7918  2.0626
   93SAPS  C211 9134   0.015   5.045   7.115 -0.0886 -0.6136  0.4615
   93SAPS  H11R 9135  -0.044   5.107   7.046 -0.7713 -1.3091  0.4091
   93SAPS  C212 9136  -0.016   5.071   7.242 -0.1287 -0.1157  0.7114
   93SAPS  H12R 9137  -0.088   5.149   7.270  1.1008  1.2377  0.1843
   93SAPS  C213 9138   0.058   5.017   7.365  0.4849  0.4666  0.2683
   93SAPS  H13R 9139   0.108   5.102   7.416  0.4763  0.8331 -0.3311
   93SAPS  H13S 9140   0.146   4.952   7.343  0.0650 -0.0572  0.1269
   93SAPS  C214 9141  -0.036   4.937   7.458 -0.2831  0.2885  1.1131
   93SAPS  H14R 9142  -0.112   4.874   7.409  0.4015  0.8413 -0.7469
   93SAPS  C215 9143  -0.026   4.924   7.592 -0.7074 -0.3075  0.2490
   93SAPS  H15R 9144  -0.094   4.860   7.650 -1.9010  0.4215 -0.3125
   93SAPS  C216 9145   0.086   4.982   7.677 -0.7456  0.4862  0.1478
   93SAPS  H16R 9146   0.155   5.045   7.618  3.3907 -1.6174  2.3184
   93SAPS  H16S 9147   0.149   4.898   7.715 -0.0795  0.1141 -1.6677
   93SAPS  C217 9148   0.035   5.071   7.792 -0.4370  0.8337  0.1758
   93SAPS  H17R 9149  -0.043   5.024   7.856  0.1134  1.0692  1.0365
   93SAPS  H17S 9150  -0.016   5.162   7.754 -2.7600  0.0313  1.1990
   93SAPS  C218 9151   0.153   5.132   7.874  0.1170  0.0205 -0.2128
   93SAPS  H18R 9152   0.111   5.216   7.934 -0.9144  0.2834 -1.2479
   93SAPS  H18S 9153   0.227   5.170   7.801 -0.3099  1.7494  0.1999
   93SAPS  C219 9154   0.237   5.040   7.969 -0.2977  0.2023  0.1494
   93SAPS  H19R 9155   0.343   5.074   7.980 -0.1344 -0.4097  0.5127
   93SAPS  H19S 9156   0.231   4.946   7.911  1.9410  1.7860 -2.9381
   93SAPS  C220 9157   0.161   5.039   8.099 -0.6578  0.4764 -0.3505
   93SAPS  H20R 9158   0.174   5.130   8.162  2.0415 -0.8106  1.0896
   93SAPS  H20S 9159   0.189   4.947   8.153 -1.1279  0.8301  0.5202
   93SAPS  H20T 9160   0.052   5.025   8.083 -1.0343 -1.5016  3.0469
   93SAPS   C33 9161   0.993   5.778   6.733  0.2212 -0.7026  0.2125
   93SAPS   H3X 9162   0.887   5.768   6.764  0.0782 -1.6752 -0.5143
   93SAPS   H3Y 9163   1.020   5.885   6.722 -0.7593 -0.5269 -0.6329
   93SAPS   C34 9164   1.074   5.709   6.844 -0.4070 -0.2766  0.0017
   93SAPS   H4X 9165   1.183   5.718   6.827  0.1155 -1.8820  2.0642
   93SAPS   H4Y 9166   1.064   5.599   6.829 -0.4128 -0.2144 -0.4784
   93SAPS   C35 9167   1.040   5.761   6.983  0.8365  0.0628 -0.8791
   93SAPS   H5X 9168   1.031   5.872   6.987 -0.2527 -0.0187 -0.6846
   93SAPS   H5Y 9169   1.114   5.722   7.056 -2.4706 -1.3828  1.9522
   93SAPS   C36 9170   0.911   5.709   7.041 -0.4093  0.5508  0.0487
   93SAPS   H6X 9171   0.916   5.599   7.053 -0.5219  0.3541 -1.4523
   93SAPS   H6Y 9172   0.825   5.734   6.976  0.7761 -1.6435 -2.5582
   93SAPS   C37 9173   0.894   5.771   7.179  0.1135  0.3455  1.5580
   93SAPS   H7X 9174   0.902   5.882   7.185 -1.0125  0.5751 -0.3555
   93SAPS   H7Y 9175   0.972   5.725   7.243  1.0197  0.7728  0.7874
   93SAPS   C38 9176   0.753   5.736   7.218  0.2401 -0.7561  0.0741
   93SAPS   H8X 9177   0.735   5.626   7.219 -0.9266 -0.5805 -0.1317
   93SAPS   H8Y 9178   0.686   5.776   7.140  0.1393  1.5862  1.2890
   93SAPS   C39 9179   0.713   5.805   7.354  0.2879  0.7950 -0.6479
   93SAPS   H9X 9180   0.604   5.784   7.363  0.3945 -0.5034 -1.9651
   93SAPS   H9Y 9181   0.723   5.915   7.342  1.3814  0.5398 -2.3669
   93SAPS  C310 9182   0.797   5.750   7.470 -1.0928 -0.1652 -0.4612
   93SAPS  H10X 9183   0.898   5.794   7.464 -0.8183 -0.0404  3.1613
   93SAPS  H10Y 9184   0.804   5.639   7.471 -0.7846 -0.1589 -1.2632
   93SAPS  C311 9185   0.778   5.793   7.615  0.3549  0.1465 -0.2132
   93SAPS  H11X 9186   0.697   5.733   7.661 -0.2687  0.1625 -1.2760
   93SAPS  H11Y 9187   0.737   5.894   7.630 -1.0047 -0.2929 -0.8397
   93SAPS  C312 9188   0.903   5.766   7.704  0.4755 -0.1073 -0.0958
   93SAPS  H12X 9189   0.991   5.813   7.655  0.6645 -1.5417 -1.2125
   93SAPS  H12Y 9190   0.928   5.658   7.701 -0.9172 -0.4659  0.3462
   93SAPS  C313 9191   0.895   5.828   7.842  0.1123 -0.5533  0.4031
   93SAPS  H13X 9192   0.878   5.936   7.822 -0.5921 -1.0716 -2.2138
   93SAPS  H13Y 9193   0.989   5.828   7.901 -0.9619  0.8612  2.2208
   93SAPS  C314 9194   0.771   5.788   7.926  0.5320 -0.1935  0.5509
   93SAPS  H14X 9195   0.775   5.682   7.957  0.6893 -0.5271 -0.5550
   93SAPS  H14Y 9196   0.692   5.800   7.849  0.2308 -3.0474  0.3057
   93SAPS  C315 9197   0.746   5.887   8.038  0.9092  0.5700 -0.4786
   93SAPS  H15X 9198   0.637   5.877   8.057  0.6180 -0.4231 -2.3986
   93SAPS  H15Y 9199   0.762   5.989   7.995  0.9893  0.5030 -0.6095
   93SAPS  C316 9200   0.826   5.846   8.154  0.1488  0.1741 -0.2529
   93SAPS  H16X 9201   0.915   5.800   8.105  0.7168  1.8657 -0.9066
   93SAPS  H16Y 9202   0.776   5.767   8.214  0.3890  0.2192  0.0082
   93SAPS  C317 9203   0.859   5.964   8.243  0.0586 -0.1148  0.0609
   93SAPS  H17X 9204   0.768   6.015   8.282  0.2190  0.5807 -0.4594
   93SAPS  H17Y 9205   0.913   6.025   8.167  0.3427 -0.2256  0.1754
   93SAPS  C318 9206   0.949   5.942   8.365 -0.3193 -0.8183 -0.6966
   93SAPS  H18X 9207   0.911   5.865   8.436 -2.9167  1.6096  0.7750
   93SAPS  H18Y 9208   0.947   6.035   8.426  1.6460 -1.7624  0.9439
   93SAPS  H18Z 9209   1.054   5.921   8.338  0.1434 -0.0906  0.4347
   94SAPS     N 9210   1.000   1.183   6.012  0.7985  0.2631  0.6690
   94SAPS   HN1 9211   1.010   1.084   6.040 -2.5143 -0.2381  0.4688
   94SAPS   HN2 9212   0.938   1.226   6.084 -1.3256  1.0545 -1.4936
   94SAPS   HN3 9213   0.944   1.189   5.925  1.1690  3.5780  0.5032
   94SAPS   C12 9214   1.121   1.263   5.994 -0.2916 -0.2487 -0.3703
   94SAPS  H12A 9215   1.186   1.243   6.078  0.1969 -0.8382 -0.8751
   94SAPS   C13 9216   1.192   1.230   5.860  0.5982 -0.0476 -0.8829
   94SAPS  O13A 9217   1.140   1.160   5.775  0.3690  0.5469  0.0673
   94SAPS  O13B 9218   1.308   1.271   5.842 -0.1902 -0.2211  0.0942
   94SAPS   C11 9219   1.090   1.414   5.994  0.0778  0.0488 -0.1221
   94SAPS  H11A 9220   1.030   1.442   5.905  1.2340  1.4972 -0.4804
   94SAPS  H11B 9221   1.194   1.452   5.993  0.2584 -0.4464 -0.5551
   94SAPS     P 9222   0.984   1.607   6.120 -0.0337  0.1131  0.1826
   94SAPS   O13 9223   1.085   1.690   6.050 -0.5269  0.4486 -0.4340
   94SAPS   O14 9224   0.841   1.615   6.074 -0.6655 -0.1994 -0.3401
   94SAPS   O12 9225   1.036   1.458   6.112  0.3824  0.2480 -0.1930
   94SAPS   O11 9226   0.981   1.634   6.270  0.2258  0.1191 -0.0696
   94SAPS    C1 9227   1.101   1.593   6.348  0.6902 -0.2139  0.5245
   94SAPS    HA 9228   1.101   1.482   6.356 -0.5695 -0.2881 -0.3676
   94SAPS    HB 9229   1.190   1.598   6.282 -0.5485  0.5437 -1.1444
   94SAPS    C2 9230   1.110   1.670   6.479  0.2509  0.1862  0.1880
   94SAPS    HS 9231   1.214   1.669   6.518  1.0912  1.9499 -1.8251
   94SAPS   O21 9232   1.021   1.622   6.581  0.2236  0.5951  0.3738
   94SAPS   C21 9233   1.035   1.495   6.621 -0.0335  0.1471  0.0503
   94SAPS   O22 9234   1.133   1.423   6.609  0.5157  0.2695  0.0038
   94SAPS   C22 9235   0.917   1.461   6.715 -1.0732  0.2868  0.3956
   94SAPS   H2R 9236   0.830   1.439   6.650 -1.2921  2.4139 -0.1026
   94SAPS   H2S 9237   0.953   1.372   6.771 -1.0594  0.0696  0.0423
   94SAPS    C3 9238   1.084   1.828   6.460  0.7592  0.1607 -1.1805
   94SAPS    HX 9239   1.011   1.828   6.376 -0.2626 -3.1032 -0.4129
   94SAPS    HY 9240   1.186   1.856   6.426  0.9564 -1.6306 -2.1859
   94SAPS   O31 9241   1.021   1.889   6.571 -0.2372  0.5264  0.2896
   94SAPS   C31 9242   1.102   1.913   6.670 -0.1359  0.1866  0.0829
   94SAPS   O32 9243   1.223   1.904   6.673  0.1534  0.3255  0.1450
   94SAPS   C32 9244   1.033   1.941   6.798 -0.4098 -1.3986 -0.7303
   94SAPS   H2X 9245   0.947   1.872   6.813 -0.3913 -1.9453 -2.8748
   94SAPS   H2Y 9246   0.996   2.046   6.800  2.7853 -0.1644  1.0464
   94SAPS   C23 9247   0.875   1.573   6.813  0.3082 -0.0504  0.1113
   94SAPS   H3R 9248   0.824   1.648   6.749  1.0598 -0.3324 -0.8420
   94SAPS   H3S 9249   0.963   1.616   6.866 -0.2013 -0.5550  1.4139
   94SAPS   C24 9250   0.791   1.524   6.927  0.6936 -0.1153  0.4424
   94SAPS   H4R 9251   0.866   1.475   6.993  1.2509 -1.7989 -1.3450
   94SAPS   H4S 9252   0.721   1.452   6.879 -0.4466  0.3509  1.3761
   94SAPS   C25 9253   0.714   1.630   6.999  0.2178 -0.0064 -0.2844
   94SAPS   H5R 9254   0.643   1.688   6.937  0.0625 -1.1594 -1.2368
   94SAPS   C26 9255   0.695   1.644   7.134 -0.6585 -0.0310  0.2689
   94SAPS   H6R 9256   0.632   1.724   7.178 -1.5147 -1.5376  1.9289
   94SAPS   C27 9257   0.770   1.572   7.244 -0.5312  0.8133  0.3590
   94SAPS   H7R 9258   0.860   1.531   7.194 -0.7163  0.7958  0.0395
   94SAPS   H7S 9259   0.703   1.489   7.274 -1.0367  1.0738 -0.0261
   94SAPS   C28 9260   0.806   1.661   7.359  0.4440  0.4074  0.0238
   94SAPS   H8R 9261   0.834   1.764   7.331  0.5518  0.3656 -0.0213
   94SAPS   C29 9262   0.800   1.619   7.483  0.5492 -0.2221  0.0333
   94SAPS   H9R 9263   0.831   1.689   7.562 -1.5796  0.1754  0.5858
   94SAPS  C210 9264   0.756   1.483   7.527 -0.5338 -0.2888 -0.1647
   94SAPS  H10R 9265   0.815   1.405   7.474 -1.9702  0.4406 -3.0500
   94SAPS  H10S 9266   0.648   1.473   7.501 -1.1778  0.2474  2.1162
   94SAPS  C211 9267   0.757   1.460   7.682 -0.5155 -0.3866  0.1796
   94SAPS  H11R 9268   0.818   1.380   7.727  2.8020  1.6444 -0.3371
   94SAPS  C212 9269   0.686   1.526   7.766  0.5187  0.0364 -0.0759
   94SAPS  H12R 9270   0.691   1.493   7.871  1.6480 -0.2035 -0.1944
   94SAPS  C213 9271   0.593   1.645   7.748  0.0871  0.6919 -0.5789
   94SAPS  H13R 9272   0.487   1.611   7.759  0.4416 -0.0031  0.8558
   94SAPS  H13S 9273   0.606   1.684   7.645 -0.8068  1.3824 -0.4479
   94SAPS  C214 9274   0.618   1.764   7.834  0.0608  0.3274  0.5668
   94SAPS  H14R 9275   0.645   1.858   7.784 -2.3870  0.3128 -0.9446
   94SAPS  C215 9276   0.575   1.770   7.961  0.0914 -0.1586  0.0179
   94SAPS  H15R 9277   0.590   1.862   8.019  0.6226 -0.9640  1.2066
   94SAPS  C216 9278   0.509   1.659   8.036 -0.2580  0.3830  0.4945
   94SAPS  H16R 9279   0.507   1.560   7.985 -2.1736  0.7729 -0.2630
   94SAPS  H16S 9280   0.405   1.672   8.073 -0.2836 -0.3751  0.7162
   94SAPS  C217 9281   0.603   1.622   8.161 -0.1750  0.8161  0.6147
   94SAPS  H17R 9282   0.612   1.712   8.226  1.3616  0.8513  0.3815
   94SAPS  H17S 9283   0.705   1.600   8.124  0.1614  1.2900  1.2279
   94SAPS  C218 9284   0.553   1.507   8.251 -0.4913 -0.0507 -0.5176
   94SAPS  H18R 9285   0.557   1.407   8.204 -2.5076  0.2379 -1.4171
   94SAPS  H18S 9286   0.447   1.518   8.282 -0.2460 -1.1743  0.8206
   94SAPS  C219 9287   0.639   1.501   8.378 -0.2444  0.0467  0.3494
   94SAPS  H19R 9288   0.596   1.429   8.452  2.3757 -1.5714  0.4224
   94SAPS  H19S 9289   0.637   1.602   8.424 -2.0807 -0.3774  1.3233
   94SAPS  C220 9290   0.792   1.467   8.356 -0.0085 -0.4340  0.0080
   94SAPS  H20R 9291   0.834   1.541   8.284 -2.5156  0.4036 -0.6739
   94SAPS  H20S 9292   0.788   1.361   8.322 -0.3084 -0.7628  1.0263
   94SAPS  H20T 9293   0.848   1.468   8.453  0.4419  0.1242 -0.2496
   94SAPS   C33 9294   1.131   1.947   6.927  0.6214  0.2241  0.5807
   94SAPS   H3X 9295   1.214   2.020   6.921  0.8660  0.0317  1.4570
   94SAPS   H3Y 9296   1.180   1.847   6.931  1.1420  0.4263 -0.4651
   94SAPS   C34 9297   1.059   1.994   7.055  0.1938 -0.4061 -0.0778
   94SAPS   H4X 9298   0.969   1.930   7.065  0.0011 -0.3397 -1.2224
   94SAPS   H4Y 9299   1.030   2.101   7.050  1.1275 -0.1591 -0.2886
   94SAPS   C35 9300   1.154   1.984   7.177  0.2192  0.2821  0.2769
   94SAPS   H5X 9301   1.217   2.075   7.192  1.6686 -0.4198 -1.2283
   94SAPS   H5Y 9302   1.240   1.915   7.174 -0.0255 -0.1919  2.3225
   94SAPS   C36 9303   1.083   1.959   7.305  0.2011  0.3809 -0.3339
   94SAPS   H6X 9304   1.151   1.980   7.390 -0.5562  1.5928  0.0094
   94SAPS   H6Y 9305   1.034   1.860   7.302  1.8184 -0.4311 -2.1407
   94SAPS   C37 9306   0.976   2.058   7.332  0.4934 -0.6605  0.2041
   94SAPS   H7X 9307   0.897   2.051   7.254  2.3743  1.8416 -2.1452
   94SAPS   H7Y 9308   1.021   2.160   7.336  0.2946 -0.5094 -1.1971
   94SAPS   C38 9309   0.902   2.037   7.466  0.0732  0.1693  0.0920
   94SAPS   H8X 9310   0.867   1.932   7.472 -0.4174  0.4134  2.1989
   94SAPS   H8Y 9311   0.803   2.087   7.469 -1.6582 -3.0823  0.6529
   94SAPS   C39 9312   0.988   2.066   7.591 -0.5555  0.3203  0.1554
   94SAPS   H9X 9313   1.010   2.174   7.598 -3.5218  1.0150 -0.0895
   94SAPS   H9Y 9314   1.077   2.001   7.603 -0.8642  0.0729  1.2739
   94SAPS  C310 9315   0.915   2.025   7.718 -0.0984 -0.7351 -0.2982
   94SAPS  H10X 9316   0.865   1.926   7.718  0.3721 -0.9759 -0.9270
   94SAPS  H10Y 9317   0.832   2.096   7.739  2.5144  1.7491  2.5362
   94SAPS  C311 9318   0.998   2.026   7.852  0.1728  1.0096 -0.1972
   94SAPS  H11X 9319   1.039   2.126   7.877  1.6714  0.7003 -1.2608
   94SAPS  H11Y 9320   1.086   1.959   7.842  1.7200  2.8717  0.4622
   94SAPS  C312 9321   0.907   1.966   7.969 -0.3731 -0.1887 -0.4197
   94SAPS  H12X 9322   0.855   1.873   7.937 -3.9463  0.6923  2.2149
   94SAPS  H12Y 9323   0.833   2.044   7.996  2.2700  2.2817  0.1222
   94SAPS  C313 9324   0.997   1.943   8.093 -0.0191 -0.7878 -0.2263
   94SAPS  H13X 9325   1.047   2.038   8.120 -1.6466  0.6037 -1.8710
   94SAPS  H13Y 9326   1.085   1.882   8.061 -1.2524 -1.5536 -2.3680
   94SAPS  C314 9327   0.929   1.882   8.216 -0.3997  0.6466 -0.3947
   94SAPS  H14X 9328   1.006   1.822   8.269 -0.3967  0.8227 -0.2031
   94SAPS  H14Y 9329   0.848   1.815   8.178  0.9398 -0.5862 -1.1919
   94SAPS  C315 9330   0.859   1.989   8.299 -0.5008  0.3820 -0.1263
   94SAPS  H15X 9331   0.792   2.056   8.241 -1.8792 -0.5550  0.3338
   94SAPS  H15Y 9332   0.938   2.061   8.329 -1.2592  1.1426  0.0992
   94SAPS  C316 9333   0.780   1.917   8.416 -0.1212 -0.6504  0.2397
   94SAPS  H16X 9334   0.692   1.862   8.378 -1.6107  2.1991 -0.7290
   94SAPS  H16Y 9335   0.731   2.006   8.461 -0.9424 -0.4304 -1.0334
   94SAPS  C317 9336   0.865   1.838   8.517  0.4366 -0.0846 -0.0771
   94SAPS  H17X 9337   0.903   1.756   8.452  2.6790  1.4409 -0.8230
   94SAPS  H17Y 9338   0.805   1.804   8.604  0.1923 -0.6621 -0.4662
   94SAPS  C318 9339   1.000   1.900   8.564 -0.7089 -0.2909  0.1877
   94SAPS  H18X 9340   0.988   1.993   8.624 -1.6519 -1.1593  1.4024
   94SAPS  H18Y 9341   1.061   1.928   8.475 -1.5032 -0.2908 -0.3663
   94SAPS  H18Z 9342   1.050   1.821   8.623 -0.6016  0.4812  1.1602
   95SAPS     N 9343   4.087   6.109   6.173 -0.6976 -0.1017  0.6349
   95SAPS   HN1 9344   4.101   6.212   6.177  0.5187 -0.1694 -0.9995
   95SAPS   HN2 9345   3.986   6.085   6.168 -1.0504  1.4868 -1.0520
   95SAPS   HN3 9346   4.123   6.072   6.263 -1.2097  0.4358  1.0763
   95SAPS   C12 9347   4.162   6.049   6.058  1.2325  0.0896  0.6090
   95SAPS  H12A 9348   4.115   5.955   6.035 -1.1869  0.5543  3.1195
   95SAPS   C13 9349   4.154   6.132   5.928  0.4088 -0.5819 -0.3187
   95SAPS  O13A 9350   4.087   6.243   5.929  0.0911 -0.1854  0.3799
   95SAPS  O13B 9351   4.200   6.075   5.826  0.4244  0.3591 -0.5732
   95SAPS   C11 9352   4.310   6.023   6.095 -0.4580  0.0524 -0.7188
   95SAPS  H11A 9353   4.348   6.125   6.118 -0.0919 -0.2904  0.2354
   95SAPS  H11B 9354   4.357   5.964   6.014  1.8194 -0.1334  0.6458
   95SAPS     P 9355   4.425   5.848   6.251 -0.0077  0.1396  0.2062
   95SAPS   O13 9356   4.373   5.769   6.367 -0.1542 -0.2643  0.4149
   95SAPS   O14 9357   4.474   5.766   6.135  0.3597 -0.0316 -0.2128
   95SAPS   O12 9358   4.315   5.957   6.216  0.8909 -0.2406 -0.0797
   95SAPS   O11 9359   4.539   5.945   6.292 -0.2192 -1.0224 -0.3680
   95SAPS    C1 9360   4.524   6.062   6.378 -0.3096 -0.2290  0.6717
   95SAPS    HA 9361   4.572   6.152   6.334  1.6508 -1.1092  0.8707
   95SAPS    HB 9362   4.418   6.074   6.408 -0.4224 -0.8781  0.5526
   95SAPS    C2 9363   4.612   6.050   6.506 -0.2289  0.0402  0.1716
   95SAPS    HS 9364   4.708   6.008   6.468 -1.5530 -2.5078 -0.6301
   95SAPS   O21 9365   4.552   5.959   6.602  0.6774  0.1192  0.4366
   95SAPS   C21 9366   4.580   5.826   6.575 -0.9978 -0.0027 -0.5494
   95SAPS   O22 9367   4.658   5.783   6.494 -0.2666 -0.9762  0.1517
   95SAPS   C22 9368   4.505   5.736   6.672 -0.2283  0.7288 -0.1323
   95SAPS   H2R 9369   4.418   5.796   6.704  0.0987  1.5523 -0.7417
   95SAPS   H2S 9370   4.453   5.656   6.615 -3.0426  1.0400  1.8109
   95SAPS    C3 9371   4.635   6.192   6.569  0.4266  0.1522 -0.2608
   95SAPS    HX 9372   4.539   6.248   6.568  0.7197  0.6682 -0.6898
   95SAPS    HY 9373   4.692   6.260   6.502  0.1298  0.2482 -0.4172
   95SAPS   O31 9374   4.704   6.186   6.692 -0.2510  0.3375  0.3310
   95SAPS   C31 9375   4.634   6.209   6.808  1.3346  0.3191 -0.4764
   95SAPS   O32 9376   4.518   6.254   6.805  0.3702  0.0058 -0.0341
   95SAPS   C32 9377   4.709   6.149   6.929  0.2805  0.5915  0.3535
   95SAPS   H2X 9378   4.799   6.209   6.957  0.9213  0.4026 -1.1910
   95SAPS   H2Y 9379   4.747   6.052   6.892  0.3818  1.6836 -2.7024
   95SAPS   C23 9380   4.592   5.686   6.785  0.1565  0.3113  0.2302
   95SAPS   H3R 9381   4.699   5.676   6.759  0.2538 -1.1369  1.0651
   95SAPS   H3S 9382   4.568   5.578   6.802  1.5336 -0.1013 -0.3607
   95SAPS   C24 9383   4.571   5.780   6.911  0.0191  0.6662  0.0751
   95SAPS   H4R 9384   4.586   5.887   6.886 -1.9803  1.3957  1.7471
   95SAPS   H4S 9385   4.661   5.750   6.969 -0.7506 -1.6251  0.1923
   95SAPS   C25 9386   4.439   5.761   6.973 -1.1385  0.0951 -0.0975
   95SAPS   H5R 9387   4.350   5.776   6.910  0.1251 -3.1079 -2.9310
   95SAPS   C26 9388   4.419   5.728   7.104  0.2356 -0.5354 -0.1643
   95SAPS   H6R 9389   4.316   5.722   7.141  0.0516 -4.0457 -0.9061
   95SAPS   C27 9390   4.526   5.713   7.210 -0.4557 -0.9964 -0.5395
   95SAPS   H7R 9391   4.559   5.812   7.248 -1.4107 -0.8210 -0.1144
   95SAPS   H7S 9392   4.620   5.668   7.173  1.0264 -0.1273  1.9540
   95SAPS   C28 9393   4.465   5.640   7.321  0.1276  0.3822 -0.0023
   95SAPS   H8R 9394   4.409   5.551   7.288  0.1443  1.1083 -2.1649
   95SAPS   C29 9395   4.477   5.655   7.457  0.1578 -0.3782 -0.0883
   95SAPS   H9R 9396   4.422   5.587   7.524  1.8665  0.8041  2.6685
   95SAPS  C210 9397   4.555   5.765   7.523 -0.0710  0.0385 -0.1878
   95SAPS  H10R 9398   4.574   5.853   7.457  2.1065  0.9674  1.5610
   95SAPS  H10S 9399   4.658   5.728   7.542  0.1581  0.4656 -0.5683
   95SAPS  C211 9400   4.494   5.803   7.655 -0.1294 -0.1649  0.2557
   95SAPS  H11R 9401   4.435   5.895   7.659  2.2606  1.4378  1.8315
   95SAPS  C212 9402   4.517   5.748   7.773  0.3465  0.6888  0.4970
   95SAPS  H12R 9403   4.468   5.801   7.856  0.1987  1.3529 -0.0034
   95SAPS  C213 9404   4.616   5.627   7.789  0.1155 -0.6233  0.6500
   95SAPS  H13R 9405   4.622   5.563   7.698  2.6054 -1.4671  1.3160
   95SAPS  H13S 9406   4.582   5.558   7.869  0.3476 -0.1368  1.1702
   95SAPS  C214 9407   4.757   5.666   7.834 -0.0429 -0.0823  0.1208
   95SAPS  H14R 9408   4.805   5.730   7.758 -0.6302  0.2347  0.0093
   95SAPS  C215 9409   4.816   5.637   7.950  0.4132 -0.1740 -0.5256
   95SAPS  H15R 9410   4.913   5.683   7.973  0.4980 -0.6284  0.0490
   95SAPS  C216 9411   4.759   5.547   8.050 -0.6067  0.1499 -0.3158
   95SAPS  H16R 9412   4.849   5.546   8.115 -0.7232  1.0847 -0.1249
   95SAPS  H16S 9413   4.739   5.448   8.004 -2.8111  0.6351 -0.5105
   95SAPS  C217 9414   4.639   5.575   8.137 -0.2343  0.2716  0.3866
   95SAPS  H17R 9415   4.548   5.568   8.073 -0.5864 -3.2742  1.0811
   95SAPS  H17S 9416   4.644   5.678   8.178  0.9603  0.6627 -0.6720
   95SAPS  C218 9417   4.623   5.487   8.266 -0.2914 -0.1933  0.2483
   95SAPS  H18R 9418   4.612   5.379   8.245  0.9477 -0.6865  1.9809
   95SAPS  H18S 9419   4.526   5.516   8.313 -1.2462 -0.0405 -1.6899
   95SAPS  C219 9420   4.741   5.492   8.370 -0.4135 -0.6575 -0.2436
   95SAPS  H19R 9421   4.752   5.591   8.420 -2.1460  0.2679 -1.5792
   95SAPS  H19S 9422   4.832   5.483   8.308 -0.4778 -2.3284 -0.1397
   95SAPS  C220 9423   4.738   5.398   8.491 -0.2310  0.0912  0.7502
   95SAPS  H20R 9424   4.759   5.293   8.461  0.1246  0.4310 -0.2302
   95SAPS  H20S 9425   4.640   5.402   8.541 -0.0545 -2.8738  1.5418
   95SAPS  H20T 9426   4.817   5.420   8.567  0.7342  1.9384 -0.6979
   95SAPS   C33 9427   4.616   6.130   7.043  0.2376  0.3103 -0.2781
   95SAPS   H3X 9428   4.533   6.058   7.025  3.0134 -3.7444  1.5461
   95SAPS   H3Y 9429   4.583   6.231   7.074  3.1052  1.0049  0.8624
   95SAPS   C34 9430   4.689   6.096   7.171  0.1416  0.2903 -0.4627
   95SAPS   H4X 9431   4.791   6.140   7.173  0.3903 -0.2877  0.0010
   95SAPS   H4Y 9432   4.717   5.988   7.168 -0.4705  0.0810  0.8712
   95SAPS   C35 9433   4.615   6.135   7.301  0.1733 -0.3227  0.2147
   95SAPS   H5X 9434   4.541   6.054   7.319  0.6535 -0.8695 -0.2066
   95SAPS   H5Y 9435   4.552   6.226   7.292  2.0070  1.0984  1.0780
   95SAPS   C36 9436   4.695   6.127   7.429 -0.6903 -0.1487  0.6083
   95SAPS   H6X 9437   4.785   6.192   7.429  0.2369 -1.3309 -1.4433
   95SAPS   H6Y 9438   4.756   6.034   7.438  0.4039  0.1226 -2.7629
   95SAPS   C37 9439   4.622   6.154   7.563  0.3579  0.0658 -0.4373
   95SAPS   H7X 9440   4.529   6.093   7.572  0.5558  0.0855  2.6346
   95SAPS   H7Y 9441   4.593   6.261   7.576 -1.5236 -0.3558 -0.8666
   95SAPS   C38 9442   4.701   6.106   7.687 -0.4875 -0.6505 -0.1460
   95SAPS   H8X 9443   4.804   6.147   7.675 -0.9541  0.4717 -0.4171
   95SAPS   H8Y 9444   4.709   5.995   7.695  2.2097 -0.4599  1.2064
   95SAPS   C39 9445   4.633   6.146   7.815  0.1157  0.5641  0.6773
   95SAPS   H9X 9446   4.534   6.096   7.800  0.8634 -0.6666 -0.4341
   95SAPS   H9Y 9447   4.626   6.256   7.805 -0.0257  0.5981  1.1313
   95SAPS  C310 9448   4.697   6.107   7.950 -0.2478  0.5427 -0.0783
   95SAPS  H10X 9449   4.785   6.174   7.952 -1.0080  1.5592  0.4711
   95SAPS  H10Y 9450   4.750   6.009   7.947 -0.7067  0.2515  0.8106
   95SAPS  C311 9451   4.602   6.130   8.072 -0.4154 -0.0035  0.0335
   95SAPS  H11X 9452   4.515   6.066   8.049 -0.7612  0.6678 -0.5492
   95SAPS  H11Y 9453   4.574   6.237   8.085  0.8398  0.3536 -0.0435
   95SAPS  C312 9454   4.666   6.081   8.201 -0.4535 -0.2222  0.1837
   95SAPS  H12X 9455   4.766   6.131   8.204 -1.5628  2.1106  0.2727
   95SAPS  H12Y 9456   4.678   5.971   8.202  0.3703 -0.2023 -1.8757
   95SAPS  C313 9457   4.610   6.129   8.327  0.1881  0.2436 -0.0144
   95SAPS  H13X 9458   4.513   6.078   8.346  0.5941 -0.6740 -0.2943
   95SAPS  H13Y 9459   4.589   6.236   8.312 -1.3990  0.0853  0.8241
   95SAPS  C314 9460   4.704   6.101   8.450 -0.1860  0.3970  0.3532
   95SAPS  H14X 9461   4.808   6.127   8.421  0.4781 -1.1052  1.2302
   95SAPS  H14Y 9462   4.698   5.995   8.483 -0.2298  0.9740  2.3089
   95SAPS  C315 9463   4.660   6.172   8.576 -0.4554 -0.1580  0.6417
   95SAPS  H15X 9464   4.549   6.169   8.584 -0.5721 -0.1637 -0.6982
   95SAPS  H15Y 9465   4.691   6.276   8.552 -0.4332  0.2856  2.4908
   95SAPS  C316 9466   4.733   6.118   8.701  0.8520  0.3198  0.5259
   95SAPS  H16X 9467   4.840   6.138   8.679  0.7562  0.6842  0.3741
   95SAPS  H16Y 9468   4.716   6.009   8.714  1.9440 -0.0035 -0.5714
   95SAPS  C317 9469   4.690   6.196   8.828 -0.3322 -0.9948 -1.0843
   95SAPS  H17X 9470   4.583   6.182   8.853  0.1966 -2.9314  0.4063
   95SAPS  H17Y 9471   4.705   6.302   8.798  0.9736 -1.3751 -1.8758
   95SAPS  C318 9472   4.780   6.171   8.945  0.1557 -0.0251 -0.0678
   95SAPS  H18X 9473   4.885   6.178   8.908 -0.3057 -1.2378 -1.7251
   95SAPS  H18Y 9474   4.768   6.069   8.987 -0.1243  0.5364  1.2604
   95SAPS  H18Z 9475   4.779   6.248   9.025 -1.1708 -0.5104  0.3961
   96SAPS     N 9476   4.920   1.089   5.878  0.2137  1.1636 -0.0566
   96SAPS   HN1 9477   4.847   1.017   5.861 -0.3297  1.9240 -1.0589
   96SAPS   HN2 9478   4.876   1.181   5.856 -1.1358  0.5291 -0.1179
   96SAPS   HN3 9479   5.006   1.066   5.823 -0.5050  2.5378 -1.8651
   96SAPS   C12 9480   4.960   1.075   6.019  0.0809 -0.1920 -0.6907
   96SAPS  H12A 9481   4.888   1.132   6.076  0.9916  0.4022 -0.1057
   96SAPS   C13 9482   4.936   0.935   6.076  0.7392  0.1093 -0.5104
   96SAPS  O13A 9483   4.910   0.835   6.000 -0.5963 -0.2878  0.3277
   96SAPS  O13B 9484   4.947   0.906   6.201  0.1743  0.3390  0.4739
   96SAPS   C11 9485   5.098   1.126   6.043 -0.4195 -0.9334  0.0360
   96SAPS  H11A 9486   5.178   1.054   6.019  0.4420  0.3268 -0.9524
   96SAPS  H11B 9487   5.112   1.137   6.153 -0.4941  1.3455 -0.1392
   96SAPS     P 9488   5.085   1.384   6.039 -0.4556 -0.6658  0.5125
   96SAPS   O13 9489   5.153   1.492   5.964 -0.5649 -0.5932  0.4206
   96SAPS   O14 9490   4.936   1.378   6.029  0.5439  0.1476  0.0884
   96SAPS   O12 9491   5.126   1.251   5.977  0.2228  0.2575 -0.1589
   96SAPS   O11 9492   5.124   1.386   6.185  0.3048 -0.1984 -0.3933
   96SAPS    C1 9493   5.261   1.397   6.232 -0.5334  0.3653 -0.6344
   96SAPS    HA 9494   5.338   1.361   6.160  0.7097 -0.9802  1.2631
   96SAPS    HB 9495   5.275   1.502   6.264 -2.0193 -0.3163  2.6380
   96SAPS    C2 9496   5.283   1.300   6.356  0.4368 -0.6232 -0.2735
   96SAPS    HS 9497   5.305   1.198   6.319  0.7444 -0.6048 -0.1375
   96SAPS   O21 9498   5.160   1.322   6.438  0.0136 -0.1101  0.3927
   96SAPS   C21 9499   5.111   1.213   6.492 -0.2702 -0.2824 -0.0643
   96SAPS   O22 9500   5.149   1.099   6.470  0.2178 -0.4417 -0.5354
   96SAPS   C22 9501   4.982   1.254   6.565 -0.0572  0.1762 -0.2046
   96SAPS   H2R 9502   4.940   1.323   6.489  2.8879  0.2591 -1.9565
   96SAPS   H2S 9503   4.923   1.161   6.577  0.1216  0.2311  1.1888
   96SAPS    C3 9504   5.397   1.340   6.448 -0.9701 -0.4122 -0.3120
   96SAPS    HX 9505   5.367   1.433   6.501  0.0245 -0.7774  0.9539
   96SAPS    HY 9506   5.493   1.365   6.397  0.5534  0.2196  2.6445
   96SAPS   O31 9507   5.415   1.234   6.552  0.0356  0.3247  0.5637
   96SAPS   C31 9508   5.482   1.132   6.504  0.1231  0.6501 -1.0191
   96SAPS   O32 9509   5.546   1.124   6.403 -0.9801  0.2259  0.0167
   96SAPS   C32 9510   5.458   1.012   6.599 -0.0872  0.4293 -0.0676
   96SAPS   H2X 9511   5.486   0.929   6.530 -0.1308  1.3928 -1.2938
   96SAPS   H2Y 9512   5.349   1.005   6.617 -0.1590 -1.9971 -1.0046
   96SAPS   C23 9513   5.012   1.328   6.697 -0.7112  0.7880 -0.1704
   96SAPS   H3R 9514   4.912   1.348   6.742 -0.2136  1.4843  0.6645
   96SAPS   H3S 9515   5.056   1.428   6.674 -0.1299  0.7423  0.6880
   96SAPS   C24 9516   5.085   1.240   6.804 -0.0949  0.1303 -0.4394
   96SAPS   H4R 9517   5.184   1.209   6.764  1.2375  0.9504  2.0005
   96SAPS   H4S 9518   5.019   1.156   6.832 -2.7817  2.4152  0.5147
   96SAPS   C25 9519   5.136   1.310   6.928 -0.2386  1.0438  0.2207
   96SAPS   H5R 9520   5.236   1.355   6.918 -1.2763  3.2523 -0.8145
   96SAPS   C26 9521   5.063   1.338   7.034  0.1232  0.3221 -0.1439
   96SAPS   H6R 9522   5.110   1.402   7.110  0.7897 -0.2095 -0.0978
   96SAPS   C27 9523   4.915   1.319   7.064  0.5970  0.3576  0.1276
   96SAPS   H7R 9524   4.893   1.264   7.158 -0.1890  0.7481  0.1828
   96SAPS   H7S 9525   4.861   1.267   6.983  1.6588  0.1679 -0.4677
   96SAPS   C28 9526   4.848   1.454   7.058  0.4992  0.2133 -0.5614
   96SAPS   H8R 9527   4.805   1.489   6.964  0.1489 -0.2957 -0.5971
   96SAPS   C29 9528   4.842   1.539   7.170 -0.1043 -0.1947  0.0242
   96SAPS   H9R 9529   4.782   1.630   7.156 -3.0759 -2.1120 -0.5655
   96SAPS  C210 9530   4.913   1.510   7.298 -0.5139  0.6663 -0.0950
   96SAPS  H10R 9531   5.022   1.529   7.289 -0.5291  0.1652 -1.6820
   96SAPS  H10S 9532   4.903   1.400   7.312 -0.2687  0.5520 -0.7730
   96SAPS  C211 9533   4.859   1.595   7.407 -0.4758 -0.1939 -0.2347
   96SAPS  H11R 9534   4.749   1.601   7.404 -0.8002 -3.0855  1.9361
   96SAPS  C212 9535   4.929   1.666   7.508  0.4314  0.5947  0.6783
   96SAPS  H12R 9536   4.871   1.726   7.579  1.3667 -1.3048  3.1794
   96SAPS  C213 9537   5.072   1.656   7.540  0.2280 -0.0882  0.0567
   96SAPS  H13R 9538   5.101   1.747   7.596  0.4149 -0.1865  0.1233
   96SAPS  H13S 9539   5.116   1.660   7.438 -0.0093  0.1930 -0.0341
   96SAPS  C214 9540   5.124   1.529   7.603  1.3604 -0.0444 -0.2221
   96SAPS  H14R 9541   5.149   1.456   7.525 -1.4725  0.9657 -2.2433
   96SAPS  C215 9542   5.118   1.493   7.736 -0.4317  0.0911  0.0928
   96SAPS  H15R 9543   5.154   1.396   7.772 -2.2756 -0.5311  0.3402
   96SAPS  C216 9544   5.073   1.582   7.846  0.2010  0.5450 -0.6510
   96SAPS  H16R 9545   5.023   1.669   7.798  1.3366  0.9253 -1.1736
   96SAPS  H16S 9546   5.159   1.605   7.914 -2.0179  2.5369  1.7285
   96SAPS  C217 9547   4.953   1.530   7.939  0.2267 -0.1831  0.0495
   96SAPS  H17R 9548   4.943   1.602   8.023 -0.3323 -0.8128  0.5302
   96SAPS  H17S 9549   4.979   1.431   7.982  0.6454 -0.2931 -0.4339
   96SAPS  C218 9550   4.819   1.518   7.860 -0.1605 -0.5606  0.9264
   96SAPS  H18R 9551   4.831   1.453   7.771  1.7396  0.4963  0.3640
   96SAPS  H18S 9552   4.790   1.614   7.812 -0.2304 -1.4623 -0.9113
   96SAPS  C219 9553   4.709   1.473   7.957 -1.1679 -0.0198  0.0020
   96SAPS  H19R 9554   4.704   1.557   8.030  3.8503  1.2437 -0.7064
   96SAPS  H19S 9555   4.744   1.384   8.013 -1.2853  0.1387  0.3327
   96SAPS  C220 9556   4.573   1.452   7.886 -0.4180  0.5673 -0.2582
   96SAPS  H20R 9557   4.567   1.537   7.815 -0.2758 -0.4091 -1.4716
   96SAPS  H20S 9558   4.487   1.452   7.956  0.3592 -2.7282  0.8455
   96SAPS  H20T 9559   4.586   1.362   7.822  0.7643  1.2676 -1.0542
   96SAPS   C33 9560   5.537   1.016   6.730 -0.2858  0.0825 -0.2918
   96SAPS   H3X 9561   5.643   1.042   6.708 -0.7663 -0.2111 -3.4099
   96SAPS   H3Y 9562   5.538   0.911   6.766  0.1422 -0.8129 -2.7552
   96SAPS   C34 9563   5.481   1.101   6.845  0.6560 -0.3005  0.6773
   96SAPS   H4X 9564   5.371   1.088   6.847  0.4907  0.8695  0.3682
   96SAPS   H4Y 9565   5.498   1.208   6.819  2.0987 -0.4649  0.8414
   96SAPS   C35 9566   5.543   1.079   6.981 -0.2827  0.0405 -0.2941
   96SAPS   H5X 9567   5.516   0.972   6.998  0.2401  0.1905  1.8072
   96SAPS   H5Y 9568   5.508   1.139   7.068 -1.1336 -0.1485 -0.4968
   96SAPS   C36 9569   5.702   1.089   6.990  0.1082  0.0821  0.5400
   96SAPS   H6X 9570   5.721   1.195   6.959 -0.0435  1.0194  3.3519
   96SAPS   H6Y 9571   5.742   1.018   6.915 -0.6488 -0.7923  0.9478
   96SAPS   C37 9572   5.769   1.075   7.135 -0.4614 -0.2289 -0.0759
   96SAPS   H7X 9573   5.756   0.967   7.161 -2.1554 -0.1121 -0.3408
   96SAPS   H7Y 9574   5.705   1.138   7.199 -1.4553 -1.5738  0.2884
   96SAPS   C38 9575   5.913   1.107   7.129  0.4585  0.3060  0.3982
   96SAPS   H8X 9576   5.960   1.048   7.047 -1.1518 -0.7700  0.1994
   96SAPS   H8Y 9577   5.953   1.067   7.225  0.1406 -0.7870  0.0984
   96SAPS   C39 9578   5.945   1.251   7.129  0.2998 -0.4865 -0.1307
   96SAPS   H9X 9579   5.889   1.306   7.050  2.6982  0.3019 -1.4090
   96SAPS   H9Y 9580   6.052   1.269   7.103  0.4158 -0.5916  0.2621
   96SAPS  C310 9581   5.902   1.321   7.264 -0.3754  0.2431 -0.0813
   96SAPS  H10X 9582   5.796   1.347   7.243 -0.0853  0.2875 -1.5872
   96SAPS  H10Y 9583   5.950   1.420   7.277 -0.1857  0.0200  1.0141
   96SAPS  C311 9584   5.907   1.236   7.390  0.2606  0.1228 -0.1568
   96SAPS  H11X 9585   6.011   1.197   7.394  0.7759  1.5521  1.3647
   96SAPS  H11Y 9586   5.833   1.154   7.398  0.2240  0.1748  0.0401
   96SAPS  C312 9587   5.882   1.323   7.519 -0.3481  0.7110  0.7698
   96SAPS  H12X 9588   5.779   1.362   7.506  0.6712  2.6511 -3.3725
   96SAPS  H12Y 9589   5.944   1.416   7.520 -0.4000  0.7832 -0.7115
   96SAPS  C313 9590   5.913   1.237   7.636 -0.1107  0.1535  0.4048
   96SAPS  H13X 9591   6.010   1.185   7.620 -0.4091  0.1355 -1.4920
   96SAPS  H13Y 9592   5.844   1.151   7.650 -0.4663  0.4241  0.3306
   96SAPS  C314 9593   5.924   1.342   7.755 -0.1690 -0.6934 -0.2515
   96SAPS  H14X 9594   5.829   1.399   7.758  0.2063 -0.0807  0.2852
   96SAPS  H14Y 9595   6.008   1.413   7.743 -0.7048 -0.2173 -1.2636
   96SAPS  C315 9596   5.949   1.270   7.889 -0.1495 -0.1099 -0.0814
   96SAPS  H15X 9597   6.046   1.216   7.885 -0.8028 -1.2597 -1.9366
   96SAPS  H15Y 9598   5.873   1.188   7.887  1.2681 -1.5217 -2.8067
   96SAPS  C316 9599   5.928   1.372   8.002 -0.3386  0.2678 -0.5589
   96SAPS  H16X 9600   5.829   1.419   7.984  0.3730  2.3987  0.6611
   96SAPS  H16Y 9601   6.002   1.455   7.999  0.1497 -0.1685 -0.8553
   96SAPS  C317 9602   5.921   1.299   8.141 -0.7541 -0.4097 -0.7195
   96SAPS  H17X 9603   6.014   1.240   8.155 -0.4286 -0.1520 -1.6824
   96SAPS  H17Y 9604   5.845   1.218   8.145  0.8647 -2.1066 -2.3682
   96SAPS  C318 9605   5.910   1.394   8.264 -0.5227  0.1216  0.0768
   96SAPS  H18X 9606   5.836   1.362   8.341  0.8412 -0.7000  1.0870
   96SAPS  H18Y 9607   5.886   1.499   8.235  0.9821  0.2350 -0.8077
   96SAPS  H18Z 9608   6.007   1.405   8.316 -1.1304 -0.6721  1.4309
   97SAPS     N 9609   5.926   6.050   6.300 -0.0003  0.3489 -1.0741
   97SAPS   HN1 9610   5.885   6.146   6.298 -0.6234  0.2383  1.8566
   97SAPS   HN2 9611   5.847   5.987   6.324  0.9204 -0.0682  1.1031
   97SAPS   HN3 9612   6.007   6.048   6.365 -0.6872 -0.0739 -0.2057
   97SAPS   C12 9613   5.976   6.002   6.163  0.4054 -0.4191  0.5862
   97SAPS  H12A 9614   5.886   5.998   6.103  1.0027  0.5325 -0.3984
   97SAPS   C13 9615   6.074   6.083   6.082  0.7627 -0.2379 -0.1572
   97SAPS  O13A 9616   6.100   6.194   6.129 -0.8866 -0.0608 -0.4988
   97SAPS  O13B 9617   6.098   6.063   5.956  0.1624 -0.3891 -0.0057
   97SAPS   C11 9618   6.024   5.855   6.164  0.4418  0.4628 -0.2641
   97SAPS  H11A 9619   6.044   5.829   6.058 -2.5837 -0.9630 -0.5830
   97SAPS  H11B 9620   5.945   5.788   6.204  2.8850 -2.2527  0.4257
   97SAPS     P 9621   6.280   5.778   6.198  0.0239  0.1934  0.3607
   97SAPS   O13 9622   6.252   5.705   6.070 -0.6572 -0.4649  0.5502
   97SAPS   O14 9623   6.382   5.883   6.194  0.0182 -0.1882  0.1573
   97SAPS   O12 9624   6.139   5.832   6.254  0.1245 -0.1553  0.5100
   97SAPS   O11 9625   6.315   5.674   6.316  0.2238 -0.5426 -0.2140
   97SAPS    C1 9626   6.206   5.612   6.396  0.6291 -0.3867  0.3623
   97SAPS    HA 9627   6.112   5.600   6.338 -0.8595  1.0669  2.3565
   97SAPS    HB 9628   6.242   5.508   6.415 -0.6779 -0.9350 -0.0504
   97SAPS    C2 9629   6.174   5.687   6.529 -0.6302 -0.1531  0.0354
   97SAPS    HS 9630   6.134   5.784   6.493 -0.0307 -0.3230 -1.1534
   97SAPS   O21 9631   6.301   5.696   6.597 -0.2220 -0.0210  0.0588
   97SAPS   C21 9632   6.336   5.820   6.633  0.0646  0.1544  0.3820
   97SAPS   O22 9633   6.266   5.911   6.602  0.1959 -0.0101 -0.1394
   97SAPS   C22 9634   6.476   5.828   6.698  0.9339 -0.3296  0.2579
   97SAPS   H2R 9635   6.483   5.743   6.770 -1.7924  0.1692  1.2627
   97SAPS   H2S 9636   6.559   5.807   6.627  0.0310  0.5520 -1.1112
   97SAPS    C3 9637   6.065   5.634   6.624 -0.1760  0.4735 -0.2682
   97SAPS    HX 9638   6.078   5.526   6.642 -0.5640  0.5892  0.7259
   97SAPS    HY 9639   5.969   5.634   6.567  0.0162 -1.5181 -0.6687
   97SAPS   O31 9640   6.046   5.705   6.755  0.2995 -0.1375 -0.0770
   97SAPS   C31 9641   5.977   5.816   6.748 -0.7303 -0.2639  0.6537
   97SAPS   O32 9642   5.907   5.851   6.655 -0.2367 -0.2313  0.4816
   97SAPS   C32 9643   6.013   5.900   6.870 -0.1419 -0.0405 -0.1114
   97SAPS   H2X 9644   5.953   5.993   6.865 -0.1427 -0.1195 -2.4420
   97SAPS   H2Y 9645   6.121   5.925   6.864  0.3489 -1.7931  0.4698
   97SAPS   C23 9646   6.488   5.971   6.756  0.5005 -0.4800  0.4981
   97SAPS   H3R 9647   6.400   6.011   6.810 -0.7256 -1.0741 -0.9814
   97SAPS   H3S 9648   6.489   6.047   6.674  0.1465  0.1461  1.0659
   97SAPS   C24 9649   6.610   5.994   6.844 -0.1170 -0.3527 -0.2525
   97SAPS   H4R 9650   6.592   5.942   6.941  1.2176 -0.9693 -0.3190
   97SAPS   H4S 9651   6.602   6.102   6.872  0.0511  0.5363 -3.2973
   97SAPS   C25 9652   6.739   5.963   6.769  0.1853 -0.3703 -1.3432
   97SAPS   H5R 9653   6.735   5.962   6.659 -1.4074  1.5346 -1.3450
   97SAPS   C26 9654   6.855   5.905   6.817  0.9905 -0.0968  0.7361
   97SAPS   H6R 9655   6.944   5.899   6.753 -0.5465  0.3761 -1.5412
   97SAPS   C27 9656   6.887   5.884   6.973  0.7115  0.2328  0.7069
   97SAPS   H7R 9657   6.887   5.773   6.980 -1.3868  0.1813  0.4527
   97SAPS   H7S 9658   6.803   5.908   7.041 -1.2260 -3.0808 -0.2778
   97SAPS   C28 9659   7.019   5.939   7.036  0.9998  0.1722  0.5475
   97SAPS   H8R 9660   7.071   6.024   6.989 -0.8589  0.0047 -2.0178
   97SAPS   C29 9661   7.076   5.885   7.153  0.0066 -0.6976  0.5769
   97SAPS   H9R 9662   7.155   5.943   7.202 -1.6244  2.7104 -0.4734
   97SAPS  C210 9663   7.006   5.783   7.236 -0.2374  0.4192  0.5839
   97SAPS  H10R 9664   6.978   5.693   7.177 -1.5593  1.0488  0.2029
   97SAPS  H10S 9665   6.912   5.829   7.273 -0.4100  0.2944  0.3115
   97SAPS  C211 9666   7.071   5.724   7.362 -0.9461 -0.3006  0.4721
   97SAPS  H11R 9667   7.168   5.772   7.382 -1.9601  2.5967 -0.9306
   97SAPS  C212 9668   7.017   5.638   7.446 -0.2527 -0.1793  0.1892
   97SAPS  H12R 9669   7.071   5.612   7.538 -1.2692 -0.3462  0.7550
   97SAPS  C213 9670   6.879   5.576   7.427 -0.1601 -0.2912  0.1835
   97SAPS  H13R 9671   6.846   5.586   7.322  1.4390 -0.1715 -0.3302
   97SAPS  H13S 9672   6.807   5.634   7.489  0.7082  0.1494  0.7999
   97SAPS  C214 9673   6.877   5.429   7.457  0.3558 -0.3043  0.0957
   97SAPS  H14R 9674   6.911   5.360   7.377  1.5105 -0.7121  0.9084
   97SAPS  C215 9675   6.831   5.374   7.570 -0.5498 -0.9532 -0.2782
   97SAPS  H15R 9676   6.822   5.264   7.581 -1.9137 -0.7171  1.4932
   97SAPS  C216 9677   6.784   5.451   7.690  0.0085 -0.5467  0.1968
   97SAPS  H16R 9678   6.855   5.531   7.717 -1.3603  1.1982 -1.1480
   97SAPS  H16S 9679   6.788   5.374   7.770 -0.7521 -0.1099  0.6658
   97SAPS  C217 9680   6.638   5.497   7.691 -0.3377 -0.4602  0.0900
   97SAPS  H17R 9681   6.605   5.556   7.603  0.0413 -1.3263 -0.6467
   97SAPS  H17S 9682   6.622   5.565   7.778  0.0114  0.4893 -0.5657
   97SAPS  C218 9683   6.537   5.388   7.712  0.2350  0.1840 -0.5996
   97SAPS  H18R 9684   6.556   5.331   7.805  0.9131  1.0385 -0.2064
   97SAPS  H18S 9685   6.554   5.330   7.619 -0.4709  1.2622 -1.4313
   97SAPS  C219 9686   6.389   5.443   7.730  0.3420  0.5047  0.7405
   97SAPS  H19R 9687   6.324   5.357   7.701 -0.2059  1.6425 -1.7516
   97SAPS  H19S 9688   6.373   5.523   7.654 -0.2930  1.9531  2.3438
   97SAPS  C220 9689   6.346   5.505   7.866  0.2722  0.7025  0.9783
   97SAPS  H20R 9690   6.418   5.587   7.888  1.4246  0.6404 -2.1095
   97SAPS  H20S 9691   6.334   5.431   7.948  2.4224  1.1186  1.7249
   97SAPS  H20T 9692   6.244   5.548   7.849  0.4551  0.4495 -0.9527
   97SAPS   C33 9693   5.992   5.832   7.001  0.2548 -0.4039  0.0111
   97SAPS   H3X 9694   6.067   5.752   7.020 -3.6273 -4.1920  0.6582
   97SAPS   H3Y 9695   5.892   5.785   7.006 -1.0672  2.2343 -0.0042
   97SAPS   C34 9696   6.018   5.933   7.115  0.1047 -0.3541  0.3090
   97SAPS   H4X 9697   5.954   6.024   7.111 -0.9636 -1.1098  0.0149
   97SAPS   H4Y 9698   6.122   5.971   7.104 -0.2699  0.6597  0.1621
   97SAPS   C35 9699   6.002   5.873   7.257 -0.1583  0.1155 -0.3288
   97SAPS   H5X 9700   6.070   5.785   7.260 -1.0580 -0.5757  1.1249
   97SAPS   H5Y 9701   5.900   5.843   7.289  1.0463 -4.0703  0.1181
   97SAPS   C36 9702   6.050   5.962   7.373 -0.4079 -0.1421  0.3591
   97SAPS   H6X 9703   6.031   6.070   7.355  1.1472  0.2019  0.5710
   97SAPS   H6Y 9704   6.160   5.954   7.387 -0.1662 -1.0139 -1.6686
   97SAPS   C37 9705   5.998   5.901   7.509 -0.5298 -0.2159 -0.3278
   97SAPS   H7X 9706   6.013   5.791   7.505 -0.7295 -0.2102 -2.4516
   97SAPS   H7Y 9707   5.889   5.921   7.504 -0.3230  0.7923 -3.4428
   97SAPS   C38 9708   6.065   5.981   7.622 -0.0395  0.1392 -0.1579
   97SAPS   H8X 9709   6.040   6.087   7.603 -3.5336 -0.7488 -1.2122
   97SAPS   H8Y 9710   6.175   5.965   7.628 -0.0831  0.3595  2.5061
   97SAPS   C39 9711   6.013   5.965   7.771 -0.7182  0.5356  0.3475
   97SAPS   H9X 9712   5.904   5.988   7.769 -0.5973  1.1611  0.5976
   97SAPS   H9Y 9713   6.066   6.037   7.837  0.0249 -0.6374  1.0652
   97SAPS  C310 9714   6.053   5.829   7.829  0.2941  0.3360 -0.5628
   97SAPS  H10X 9715   6.161   5.804   7.818  0.7213  1.5781  0.6070
   97SAPS  H10Y 9716   5.998   5.747   7.777  0.9901  0.2206 -1.1459
   97SAPS  C311 9717   6.028   5.828   7.977  0.2346 -0.4259  0.0981
   97SAPS  H11X 9718   5.922   5.800   7.994  0.7154 -1.3229  1.8853
   97SAPS  H11Y 9719   6.036   5.930   8.022 -1.3697  0.6725 -1.9627
   97SAPS  C312 9720   6.115   5.743   8.066 -0.0231  0.5314  0.1789
   97SAPS  H12X 9721   6.223   5.763   8.047 -0.2340  1.6571  0.1411
   97SAPS  H12Y 9722   6.095   5.636   8.041 -2.4940  1.4951 -2.5069
   97SAPS  C313 9723   6.090   5.766   8.211  0.2727 -0.9477 -0.0991
   97SAPS  H13X 9724   5.981   5.749   8.223  0.2737 -0.6643  0.3192
   97SAPS  H13Y 9725   6.105   5.874   8.232  0.4500 -0.5547 -2.0576
   97SAPS  C314 9726   6.190   5.694   8.307 -0.3737 -0.2183 -0.1354
   97SAPS  H14X 9727   6.226   5.601   8.258 -1.3764 -0.5345 -0.2913
   97SAPS  H14Y 9728   6.134   5.678   8.402  0.0464 -1.2995 -0.0585
   97SAPS  C315 9729   6.316   5.780   8.337  0.3385  0.4349 -0.2637
   97SAPS  H15X 9730   6.284   5.884   8.361  0.8112  0.5815 -0.2518
   97SAPS  H15Y 9731   6.372   5.802   8.245 -1.9885  0.1508 -1.8394
   97SAPS  C316 9732   6.413   5.712   8.443 -0.0083 -0.1399  0.6857
   97SAPS  H16X 9733   6.501   5.779   8.449 -0.1370  0.0837  0.1390
   97SAPS  H16Y 9734   6.442   5.611   8.407  0.1154 -0.1405  0.7861
   97SAPS  C317 9735   6.353   5.701   8.588 -0.1339  0.1829 -0.4307
   97SAPS  H17X 9736   6.434   5.656   8.650 -1.1216 -0.6882  0.2579
   97SAPS  H17Y 9737   6.258   5.643   8.589 -0.0137 -0.0179 -0.5380
   97SAPS  C318 9738   6.311   5.845   8.637 -0.2918 -0.7654 -0.1732
   97SAPS  H18X 9739   6.215   5.872   8.589 -0.6222  0.4528  1.0829
   97SAPS  H18Y 9740   6.387   5.923   8.615 -2.3057  1.5516  0.6117
   97SAPS  H18Z 9741   6.287   5.851   8.746  0.9672  2.8612  0.0638
   98SAPS     N 9742   4.541   4.282   5.599  0.4797  0.2109  0.1746
   98SAPS   HN1 9743   4.594   4.346   5.535 -0.0526 -1.5277 -2.1430
   98SAPS   HN2 9744   4.603   4.200   5.610  1.7877  1.0897 -0.3531
   98SAPS   HN3 9745   4.456   4.243   5.554  0.0019 -1.5587  2.4745
   98SAPS   C12 9746   4.520   4.333   5.734 -0.7968  0.2336  0.3782
   98SAPS  H12A 9747   4.481   4.433   5.729 -2.3562 -0.4281 -2.1806
   98SAPS   C13 9748   4.443   4.244   5.828 -0.2163  0.4461 -0.3351
   98SAPS  O13A 9749   4.396   4.133   5.786  0.0291 -0.4507 -0.1085
   98SAPS  O13B 9750   4.393   4.295   5.932 -0.2167 -0.3872  0.6263
   98SAPS   C11 9751   4.674   4.341   5.791 -0.4512 -0.3321 -0.1082
   98SAPS  H11A 9752   4.662   4.392   5.889 -0.5946  1.1971 -0.8875
   98SAPS  H11B 9753   4.741   4.400   5.726  2.0857 -0.3222  2.3223
   98SAPS     P 9754   4.876   4.201   5.859 -0.1040  0.2766 -0.0011
   98SAPS   O13 9755   4.910   4.053   5.859  0.8669 -0.1397 -0.0010
   98SAPS   O14 9756   4.966   4.287   5.780 -0.2919 -0.7399 -0.6907
   98SAPS   O12 9757   4.731   4.206   5.804 -0.3218  0.4220 -0.2509
   98SAPS   O11 9758   4.853   4.252   6.005  0.1703  0.1812  0.3948
   98SAPS    C1 9759   4.735   4.205   6.079  0.2553  0.0814  0.0752
   98SAPS    HA 9760   4.651   4.279   6.082 -1.9997 -2.3577  2.2661
   98SAPS    HB 9761   4.700   4.106   6.041  1.4821  0.0579 -1.0844
   98SAPS    C2 9762   4.773   4.180   6.225 -0.7369  0.1349 -0.5485
   98SAPS    HS 9763   4.689   4.140   6.286 -0.3829 -2.8085 -1.8357
   98SAPS   O21 9764   4.824   4.302   6.270  0.0738 -0.4734 -0.5864
   98SAPS   C21 9765   4.818   4.330   6.402 -0.3083 -0.3369 -0.7533
   98SAPS   O22 9766   4.747   4.271   6.487  0.1212  0.7205  0.4229
   98SAPS   C22 9767   4.912   4.444   6.450 -0.5006  0.0566  0.0453
   98SAPS   H2R 9768   4.978   4.462   6.362 -0.0113  0.1585  0.4339
   98SAPS   H2S 9769   4.849   4.533   6.470 -2.2819 -1.3806  1.1215
   98SAPS    C3 9770   4.892   4.083   6.240  0.0136  0.5165 -0.8256
   98SAPS    HX 9771   4.963   4.147   6.183  0.2253  1.3142  0.3048
   98SAPS    HY 9772   4.887   3.985   6.188 -1.6486 -0.2879  0.7422
   98SAPS   O31 9773   4.950   4.071   6.378  0.3231 -0.3625 -0.3474
   98SAPS   C31 9774   4.893   3.979   6.451 -0.2650 -0.8061 -0.5742
   98SAPS   O32 9775   4.806   3.907   6.413  0.2809  0.9897 -0.6006
   98SAPS   C32 9776   4.971   3.965   6.583 -0.2167 -0.0048  0.3773
   98SAPS   H2X 9777   5.013   4.064   6.610  2.1290 -0.4064 -1.4797
   98SAPS   H2Y 9778   5.060   3.906   6.553 -0.7002 -0.5758  0.0211
   98SAPS   C23 9779   5.005   4.412   6.568 -0.5024 -0.6040  0.2853
   98SAPS   H3R 9780   5.063   4.320   6.544  0.3225  0.3713 -1.7034
   98SAPS   H3S 9781   4.943   4.391   6.657  1.3552  0.1655  1.8296
   98SAPS   C24 9782   5.102   4.525   6.593 -0.5364  0.5416 -0.5369
   98SAPS   H4R 9783   5.153   4.564   6.503 -1.0973  1.8895 -0.2902
   98SAPS   H4S 9784   5.186   4.484   6.653 -1.3339  2.4527  2.0338
   98SAPS   C25 9785   5.040   4.643   6.662  0.3693 -1.2323  0.1702
   98SAPS   H5R 9786   5.003   4.720   6.594  1.6022 -1.6733 -1.0453
   98SAPS   C26 9787   5.014   4.658   6.795 -0.9187  0.0386 -0.7421
   98SAPS   H6R 9788   4.977   4.754   6.835 -0.1581  0.5352 -1.1961
   98SAPS   C27 9789   5.053   4.563   6.897 -0.1009 -0.0268 -0.4703
   98SAPS   H7R 9790   5.134   4.613   6.955  0.6425  1.0335 -2.3360
   98SAPS   H7S 9791   5.087   4.473   6.841 -0.8205 -1.1129  0.7691
   98SAPS   C28 9792   4.953   4.528   7.012  0.1105 -0.1524  0.3045
   98SAPS   H8R 9793   4.865   4.594   7.017  1.1610  1.3884 -0.4651
   98SAPS   C29 9794   4.974   4.437   7.111  0.5398 -0.2601 -0.4338
   98SAPS   H9R 9795   4.898   4.419   7.189  0.5652 -0.6466 -0.4973
   98SAPS  C210 9796   5.095   4.343   7.101  0.1055  0.1731  0.6390
   98SAPS  H10R 9797   5.177   4.393   7.156  0.5442 -1.4473  1.5366
   98SAPS  H10S 9798   5.134   4.321   6.999 -0.5867  1.3624  0.0950
   98SAPS  C211 9799   5.076   4.212   7.173  0.3079  0.6941  0.1840
   98SAPS  H11R 9800   5.067   4.124   7.108  1.2619  0.5122  0.2911
   98SAPS  C212 9801   5.066   4.196   7.306  0.2984 -0.3119  0.0835
   98SAPS  H12R 9802   5.044   4.092   7.337  0.7892 -0.4559 -0.0437
   98SAPS  C213 9803   5.087   4.293   7.416  0.0681  0.4816 -0.8102
   98SAPS  H13R 9804   5.119   4.389   7.370  1.0475  1.8024  2.3472
   98SAPS  H13S 9805   5.172   4.254   7.476 -0.7519 -0.5813 -0.2959
   98SAPS  C214 9806   4.971   4.327   7.503 -0.0946 -0.5629  0.1619
   98SAPS  H14R 9807   4.881   4.348   7.444  0.7148  1.4685 -0.4709
   98SAPS  C215 9808   4.969   4.307   7.639  0.0563  0.7134  0.1250
   98SAPS  H15R 9809   4.879   4.346   7.689 -0.4102 -0.7280  0.4292
   98SAPS  C216 9810   5.083   4.257   7.725  0.6165 -0.9530 -0.7598
   98SAPS  H16R 9811   5.091   4.313   7.821 -1.8339  0.2177 -1.1664
   98SAPS  H16S 9812   5.179   4.260   7.669  0.0683  0.5696 -1.6754
   98SAPS  C217 9813   5.080   4.109   7.761  0.0332  0.1133  0.6239
   98SAPS  H17R 9814   5.060   4.057   7.665 -0.0238  1.9861 -0.4171
   98SAPS  H17S 9815   4.989   4.089   7.821 -1.2484  0.0423 -1.2707
   98SAPS  C218 9816   5.216   4.059   7.824  0.1464 -0.1665 -0.4442
   98SAPS  H18R 9817   5.292   4.067   7.743 -0.2980  1.2692 -0.7514
   98SAPS  H18S 9818   5.188   3.954   7.842  0.4236 -0.0372  0.8822
   98SAPS  C219 9819   5.256   4.122   7.955 -0.2083 -0.2240 -0.4103
   98SAPS  H19R 9820   5.173   4.126   8.028  1.1426  1.3662  1.1465
   98SAPS  H19S 9821   5.296   4.224   7.932 -1.0871  0.5431  1.3383
   98SAPS  C220 9822   5.375   4.035   8.014 -0.2813 -0.1606 -0.0170
   98SAPS  H20R 9823   5.333   3.938   8.048 -1.5916  0.9319  1.6264
   98SAPS  H20S 9824   5.412   4.097   8.099 -1.1233 -0.3034  0.4597
   98SAPS  H20T 9825   5.455   4.023   7.938 -0.2208  0.6165 -0.0848
   98SAPS   C33 9826   4.892   3.905   6.702 -0.1079  0.4129  0.4240
   98SAPS   H3X 9827   4.894   3.795   6.708 -0.4312  0.3370 -0.6012
   98SAPS   H3Y 9828   4.790   3.943   6.682  0.6646  2.1911 -0.4158
   98SAPS   C34 9829   4.938   3.956   6.841  0.0785 -0.1128  0.2605
   98SAPS   H4X 9830   4.952   4.066   6.847  0.2168 -0.0400 -1.0309
   98SAPS   H4Y 9831   5.038   3.917   6.870 -0.1938  0.1363  1.5659
   98SAPS   C35 9832   4.845   3.888   6.938 -0.3978 -0.0777 -0.7241
   98SAPS   H5X 9833   4.833   3.780   6.914  0.4340 -0.0182 -1.4319
   98SAPS   H5Y 9834   4.746   3.932   6.914  0.5968  1.3619 -2.3401
   98SAPS   C36 9835   4.886   3.907   7.090  0.1916 -0.5514  0.0752
   98SAPS   H6X 9836   4.908   4.016   7.100 -0.0537 -0.5977  1.2311
   98SAPS   H6Y 9837   4.986   3.872   7.122  0.8498  0.1828 -1.0964
   98SAPS   C37 9838   4.791   3.862   7.196  0.3142  0.0988  0.8905
   98SAPS   H7X 9839   4.794   3.752   7.205  1.7439  0.0060 -0.2780
   98SAPS   H7Y 9840   4.688   3.900   7.178  0.0260  0.5722  3.1854
   98SAPS   C38 9841   4.823   3.919   7.336 -0.3842 -0.6307 -0.0422
   98SAPS   H8X 9842   4.839   4.027   7.315  1.8573 -0.9438 -0.1825
   98SAPS   H8Y 9843   4.913   3.872   7.380 -1.2927 -2.4738 -0.0546
   98SAPS   C39 9844   4.710   3.918   7.441 -0.0629  0.4940  0.7612
   98SAPS   H9X 9845   4.671   3.814   7.437  1.3220 -0.0871 -3.2555
   98SAPS   H9Y 9846   4.632   3.989   7.407 -0.8726 -0.6400  0.1972
   98SAPS  C310 9847   4.757   3.972   7.583 -0.0966  0.4078  0.2698
   98SAPS  H10X 9848   4.801   4.073   7.570  0.1235  0.6659  2.6882
   98SAPS  H10Y 9849   4.830   3.892   7.607  0.3192  0.9667  0.8910
   98SAPS  C311 9850   4.646   3.984   7.688 -0.2378  0.4094  0.6638
   98SAPS  H11X 9851   4.595   3.886   7.678  3.3024 -1.6937  1.3328
   98SAPS  H11Y 9852   4.593   4.081   7.674 -1.0713  0.1427  1.8878
   98SAPS  C312 9853   4.706   3.997   7.826  0.4629  0.1413 -0.8772
   98SAPS  H12X 9854   4.754   4.096   7.838 -0.3556  0.3658  0.9465
   98SAPS  H12Y 9855   4.789   3.928   7.855  0.5271 -0.2788 -2.0029
   98SAPS  C313 9856   4.602   4.006   7.941  0.3409 -0.7231  0.0094
   98SAPS  H13X 9857   4.553   3.907   7.944  0.2061 -0.6522  0.1757
   98SAPS  H13Y 9858   4.526   4.084   7.918  1.6867  0.0671 -2.1121
   98SAPS  C314 9859   4.667   4.026   8.080 -0.3453  0.1427  0.2608
   98SAPS  H14X 9860   4.745   4.104   8.069  2.7052 -2.7726 -0.4775
   98SAPS  H14Y 9861   4.721   3.930   8.098  0.4510  0.3328 -0.9946
   98SAPS  C315 9862   4.568   4.036   8.199 -0.2692 -0.3088  0.0339
   98SAPS  H15X 9863   4.505   3.945   8.207 -0.0652 -0.6349 -1.7338
   98SAPS  H15Y 9864   4.508   4.128   8.180  1.5112  1.6438  2.9786
   98SAPS  C316 9865   4.651   4.062   8.331  0.5781 -0.3541  0.4437
   98SAPS  H16X 9866   4.716   4.149   8.309 -0.9603  0.4064 -1.3231
   98SAPS  H16Y 9867   4.709   3.968   8.347  1.0903 -0.1634 -0.2295
   98SAPS  C317 9868   4.557   4.080   8.453 -0.6538  0.0867  0.3254
   98SAPS  H17X 9869   4.485   3.997   8.469 -1.9303  0.2372 -3.6411
   98SAPS  H17Y 9870   4.490   4.168   8.445 -2.9426 -1.5242  0.7577
   98SAPS  C318 9871   4.642   4.107   8.575 -0.2905  0.7205 -0.4799
   98SAPS  H18X 9872   4.706   4.018   8.595  0.5200  1.0207 -1.6516
   98SAPS  H18Y 9873   4.582   4.111   8.669  2.7562  1.8041  1.5616
   98SAPS  H18Z 9874   4.692   4.206   8.566 -0.5572  0.7358 -2.0572
   99SAPS     N 9875   3.487   2.773   5.941  0.7329 -0.2478  0.2943
   99SAPS   HN1 9876   3.515   2.789   5.842 -0.4140 -2.4143 -0.4318
   99SAPS   HN2 9877   3.576   2.762   5.993  1.9920  0.0186 -1.7102
   99SAPS   HN3 9878   3.431   2.686   5.942 -1.6094  1.1439  0.2637
   99SAPS   C12 9879   3.397   2.872   6.007  0.1119  0.0167  0.2602
   99SAPS  H12A 9880   3.393   2.837   6.109 -1.4250  0.9546  0.5565
   99SAPS   C13 9881   3.447   3.019   6.006 -0.0882 -0.3265  0.4860
   99SAPS  O13A 9882   3.536   3.055   5.930 -0.0158 -0.3854  0.3859
   99SAPS  O13B 9883   3.395   3.102   6.084 -0.3575 -0.5123  1.1618
   99SAPS   C11 9884   3.263   2.857   5.923  0.0246 -0.3457  1.0126
   99SAPS  H11A 9885   3.288   2.885   5.819  0.3695 -0.7810  0.9717
   99SAPS  H11B 9886   3.184   2.931   5.948  0.0913  0.5309 -1.1631
   99SAPS     P 9887   3.069   2.683   5.901  0.2733 -0.1255  0.3693
   99SAPS   O13 9888   3.026   2.732   5.772  0.2110  0.2919  0.0787
   99SAPS   O14 9889   3.039   2.539   5.923 -0.5601  0.2198  0.2634
   99SAPS   O12 9890   3.220   2.718   5.916  0.2104 -0.0245  0.7536
   99SAPS   O11 9891   2.992   2.766   6.004  0.6572 -0.3293  0.1521
   99SAPS    C1 9892   3.030   2.798   6.136  0.0022  0.2868  0.7378
   99SAPS    HA 9893   3.139   2.805   6.154  0.3589  0.0961 -1.1119
   99SAPS    HB 9894   2.978   2.889   6.170 -1.3378  0.0834 -0.6270
   99SAPS    C2 9895   2.969   2.695   6.241  0.3775  0.0244  0.3460
   99SAPS    HS 9896   2.951   2.603   6.181 -1.0252  0.7490 -0.3982
   99SAPS   O21 9897   2.844   2.746   6.300  0.4777  0.3060 -0.0746
   99SAPS   C21 9898   2.729   2.673   6.283  0.2341  0.3117 -0.0195
   99SAPS   O22 9899   2.724   2.568   6.219  0.2748  0.0583  0.6885
   99SAPS   C22 9900   2.598   2.732   6.342  0.3913 -0.3735  0.0098
   99SAPS   H2R 9901   2.613   2.839   6.370 -0.0834 -0.0451 -0.9230
   99SAPS   H2S 9902   2.524   2.737   6.259 -0.1569 -2.0444  0.3596
   99SAPS    C3 9903   3.070   2.684   6.357  0.0010  0.3153 -0.2156
   99SAPS    HX 9904   3.102   2.788   6.378  0.9613 -0.2753  1.4377
   99SAPS    HY 9905   3.167   2.642   6.323 -0.4900 -0.1589 -1.0834
   99SAPS   O31 9906   3.008   2.626   6.479 -0.2649  0.3041 -1.2569
   99SAPS   C31 9907   3.030   2.500   6.502 -0.5896  0.4085 -0.4619
   99SAPS   O32 9908   3.086   2.421   6.426  0.3126 -0.6805  0.2583
   99SAPS   C32 9909   2.980   2.473   6.642  0.0340 -0.2347 -0.3674
   99SAPS   H2X 9910   2.871   2.491   6.638  0.1249  0.0546 -2.3284
   99SAPS   H2Y 9911   3.026   2.556   6.699  1.3130 -1.0585 -0.1487
   99SAPS   C23 9912   2.534   2.639   6.445  0.2318  0.2822 -0.3652
   99SAPS   H3R 9913   2.605   2.596   6.519 -0.1905  2.7740  1.6075
   99SAPS   H3S 9914   2.474   2.566   6.386 -1.0567  0.6868  0.4094
   99SAPS   C24 9915   2.443   2.719   6.539 -0.4464  0.8711 -0.4300
   99SAPS   H4R 9916   2.500   2.801   6.587 -0.2584 -0.3070  1.4530
   99SAPS   H4S 9917   2.425   2.654   6.627 -0.9917  0.6200 -0.7218
   99SAPS   C25 9918   2.313   2.779   6.494 -0.4278 -0.0545  0.0635
   99SAPS   H5R 9919   2.274   2.760   6.392  0.2328  1.5642 -0.5150
   99SAPS   C26 9920   2.233   2.854   6.575 -1.0771  0.1521 -0.4483
   99SAPS   H6R 9921   2.144   2.896   6.524 -0.2343 -0.2900 -2.3715
   99SAPS   C27 9922   2.250   2.891   6.718  0.0964  0.0448 -0.3888
   99SAPS   H7R 9923   2.182   2.977   6.736  0.5522 -0.0784  2.3031
   99SAPS   H7S 9924   2.350   2.934   6.738  0.4653 -0.9063 -0.1411
   99SAPS   C28 9925   2.231   2.772   6.817  0.5095 -0.8168  0.5250
   99SAPS   H8R 9926   2.186   2.682   6.773 -0.0556 -0.7665  0.9843
   99SAPS   C29 9927   2.257   2.776   6.948  0.1321 -0.0058 -0.3247
   99SAPS   H9R 9928   2.243   2.690   7.015  1.2557 -0.2188 -0.3525
   99SAPS  C210 9929   2.295   2.902   7.020  0.5057 -0.1022 -0.1823
   99SAPS  H10R 9930   2.208   2.958   7.061 -2.6821 -3.5106 -1.7247
   99SAPS  H10S 9931   2.341   2.965   6.941 -0.4665  0.1855 -0.5321
   99SAPS  C211 9932   2.407   2.889   7.120  1.1143  1.2187  0.0607
   99SAPS  H11R 9933   2.492   2.828   7.087  0.6068 -1.5951  3.3846
   99SAPS  C212 9934   2.404   2.934   7.244  0.6071  0.0511 -0.0063
   99SAPS  H12R 9935   2.491   2.938   7.310  0.6949 -0.0186 -0.1186
   99SAPS  C213 9936   2.293   3.020   7.309  0.5080  0.7633  0.2743
   99SAPS  H13R 9937   2.267   3.103   7.240 -0.1626  0.4306  0.1152
   99SAPS  H13S 9938   2.336   3.080   7.393 -1.1187  0.5350  1.3122
   99SAPS  C214 9939   2.157   2.964   7.362 -0.1206  0.0230  0.0333
   99SAPS  H14R 9940   2.142   2.857   7.341 -1.0578  0.4071 -1.4280
   99SAPS  C215 9941   2.056   3.040   7.406 -0.1858 -0.0028 -0.4363
   99SAPS  H15R 9942   1.963   2.988   7.435  0.0639 -0.0709  0.2647
   99SAPS  C216 9943   2.063   3.190   7.436  0.1611  0.1060 -0.3296
   99SAPS  H16R 9944   2.010   3.248   7.357 -1.3216 -0.3247  0.3126
   99SAPS  H16S 9945   2.166   3.231   7.441 -0.2351  1.2195 -0.8095
   99SAPS  C217 9946   1.993   3.212   7.571 -0.2965 -0.3186 -0.7842
   99SAPS  H17R 9947   1.908   3.141   7.581 -0.0176 -0.3362  2.5436
   99SAPS  H17S 9948   1.951   3.314   7.581 -1.4365 -0.7662 -0.8691
   99SAPS  C218 9949   2.077   3.177   7.696 -0.0179  0.1898  0.1700
   99SAPS  H18R 9950   2.172   3.233   7.703 -0.4625  1.0476 -0.5340
   99SAPS  H18S 9951   2.104   3.070   7.685  0.5556  0.4612 -1.3417
   99SAPS  C219 9952   2.012   3.202   7.835  0.5961  0.2911 -0.4687
   99SAPS  H19R 9953   1.984   3.310   7.843  0.5469  0.2321  0.2170
   99SAPS  H19S 9954   2.089   3.175   7.911  1.0167 -0.1186 -1.0377
   99SAPS  C220 9955   1.879   3.125   7.863 -0.0694  0.0866  0.2036
   99SAPS  H20R 9956   1.793   3.145   7.796  0.8315 -1.2570 -1.4304
   99SAPS  H20S 9957   1.852   3.140   7.970 -0.0073 -0.1089  0.2471
   99SAPS  H20T 9958   1.887   3.016   7.845 -3.5808 -0.0123 -1.6461
   99SAPS   C33 9959   3.027   2.344   6.713 -0.5007 -0.2271  0.0785
   99SAPS   H3X 9960   3.137   2.327   6.715 -0.4572  0.0792  0.5994
   99SAPS   H3Y 9961   2.982   2.256   6.662  0.7796 -1.4798  1.0317
   99SAPS   C34 9962   2.988   2.330   6.861 -0.5410  0.0602  0.9059
   99SAPS   H4X 9963   2.878   2.315   6.853 -0.4298  0.0124 -1.2677
   99SAPS   H4Y 9964   3.015   2.425   6.912  3.4494 -1.1481  1.3170
   99SAPS   C35 9965   3.044   2.196   6.921  0.1907  0.7416  0.9390
   99SAPS   H5X 9966   3.150   2.183   6.892 -0.4473  0.1374 -1.3507
   99SAPS   H5Y 9967   2.995   2.105   6.880  0.5403  0.1379  1.8189
   99SAPS   C36 9968   3.020   2.185   7.071 -0.3541 -0.2319 -0.3326
   99SAPS   H6X 9969   3.026   2.078   7.102 -1.3449  0.6121  3.3772
   99SAPS   H6Y 9970   2.914   2.220   7.077 -0.3603 -0.3190  0.1191
   99SAPS   C37 9971   3.100   2.280   7.169  0.2177  0.1707 -0.1766
   99SAPS   H7X 9972   3.131   2.377   7.124 -0.3131  1.5098  2.1763
   99SAPS   H7Y 9973   3.198   2.239   7.199  0.1582 -0.0016 -0.2179
   99SAPS   C38 9974   3.021   2.328   7.299 -0.0339  0.7579 -0.5248
   99SAPS   H8X 9975   2.916   2.356   7.276 -0.6401 -0.8353  0.1418
   99SAPS   H8Y 9976   3.059   2.431   7.312  2.3259  0.0450 -1.2329
   99SAPS   C39 9977   3.040   2.234   7.414 -0.2058  0.2235 -0.1120
   99SAPS   H9X 9978   3.037   2.284   7.513  0.9597 -0.3942  0.2442
   99SAPS   H9Y 9979   3.143   2.192   7.409 -0.2639  0.1882 -2.9330
   99SAPS  C310 9980   2.937   2.114   7.414 -0.4135 -0.1074  0.0702
   99SAPS  H10X 9981   2.948   2.049   7.325  3.2722  0.8897 -0.3449
   99SAPS  H10Y 9982   2.836   2.161   7.415 -0.0599  0.6671  1.0941
   99SAPS  C311 9983   2.950   2.025   7.540 -0.2654  0.0664  0.1700
   99SAPS  H11X 9984   3.039   1.959   7.525 -0.2402 -0.0813  0.9096
   99SAPS  H11Y 9985   2.861   1.958   7.544  0.0650 -0.3829  0.1528
   99SAPS  C312 9986   2.962   2.086   7.686  0.8603  0.4220 -0.0292
   99SAPS  H12X 9987   2.866   2.129   7.721 -0.0453 -2.0111  0.7220
   99SAPS  H12Y 9988   3.038   2.166   7.688  0.0323  1.2849 -1.4247
   99SAPS  C313 9989   2.989   1.972   7.781 -0.5278  0.4393 -0.1345
   99SAPS  H13X 9990   3.097   1.946   7.785  0.0079  2.5904  1.0759
   99SAPS  H13Y 9991   2.927   1.886   7.748  0.7267 -0.1988 -0.8692
   99SAPS  C314 9992   2.948   2.004   7.924 -0.2279  0.1876 -0.5289
   99SAPS  H14X 9993   2.962   1.910   7.981 -1.7740  0.5704  0.5380
   99SAPS  H14Y 9994   2.841   2.032   7.938  0.5209  2.0183  2.2098
   99SAPS  C315 9995   3.036   2.114   7.995 -0.2164 -0.1409 -0.4360
   99SAPS  H15X 9996   3.045   2.207   7.935 -1.8012 -0.7914 -1.7758
   99SAPS  H15Y 9997   3.137   2.068   8.006  0.3417  1.7230  4.7853
   99SAPS  C316 9998   2.965   2.150   8.128 -0.7421  0.3490 -0.2997
   99SAPS  H16X 9999   3.047   2.167   8.201  2.4873 -2.9454 -2.7591
   99SAPS  H16Y10000   2.908   2.066   8.172  1.6606 -1.7695 -0.9662
   99SAPS  C31710001   2.881   2.271   8.123  0.7467  1.0317  0.0385
   99SAPS  H17X10002   2.796   2.257   8.053  2.7517 -0.3916 -2.2725
   99SAPS  H17Y10003   2.936   2.352   8.071 -1.2902  1.4577 -1.6093
   99SAPS  C31810004   2.806   2.300   8.249  0.4436 -0.4527 -0.2461
   99SAPS  H18X10005   2.888   2.315   8.323  0.4226 -0.6103 -0.1914
   99SAPS  H18Y10006   2.729   2.227   8.282  1.2464 -0.8160  0.9071
   99SAPS  H18Z10007   2.753   2.397   8.233 -0.4079 -1.0076 -0.8526
  100SAPS     N10008   0.235   5.124   5.779 -0.0303  0.2012 -0.3087
  100SAPS   HN110009   0.184   5.131   5.688  0.2945 -0.9507 -0.5987
  100SAPS   HN210010   0.333   5.145   5.752  0.4233 -1.0976  0.2842
  100SAPS   HN310011   0.221   5.025   5.809  0.3811 -0.1600 -1.2928
  100SAPS   C1210012   0.160   5.199   5.886 -0.0536  0.2538 -0.4269
  100SAPS  H12A10013   0.212   5.188   5.980 -1.1137  0.3197  0.1809
  100SAPS   C1310014   0.143   5.351   5.871  0.4063  0.7512  0.2446
  100SAPS  O13A10015   0.166   5.403   5.758 -1.0478 -0.2153 -0.1583
  100SAPS  O13B10016   0.129   5.424   5.973  0.2128 -0.3398 -0.5167
  100SAPS   C1110017   0.023   5.135   5.900 -0.0037  0.0864 -0.1754
  100SAPS  H11A10018  -0.041   5.162   5.814  0.8892  1.9608 -0.3157
  100SAPS  H11B10019  -0.021   5.172   5.995 -0.3009 -3.0495  1.0135
  100SAPS     P10020  -0.042   4.882   5.977 -0.3725  0.1472 -0.2773
  100SAPS   O1310021  -0.168   4.879   5.907 -0.0430  0.7903  0.5950
  100SAPS   O1410022   0.042   4.762   5.984  0.6710  0.6122  0.5693
  100SAPS   O1210023   0.040   4.994   5.899 -0.1550  0.3042 -0.3907
  100SAPS   O1110024  -0.068   4.936   6.126 -0.7118 -0.0193 -0.1309
  100SAPS    C110025   0.038   4.962   6.221  0.3752 -0.4761 -0.0038
  100SAPS    HA10026   0.132   4.980   6.163  0.3018  1.3402  0.3898
  100SAPS    HB10027   0.016   5.047   6.288  0.9794 -1.0208  0.9193
  100SAPS    C210028   0.060   4.848   6.323 -0.3075  0.1361 -0.6574
  100SAPS    HS10029   0.079   4.749   6.276  0.5328 -0.6455  1.2280
  100SAPS   O2110030  -0.062   4.829   6.404 -0.0472 -0.3342  0.5210
  100SAPS   C2110031  -0.156   4.755   6.360  0.5685  0.3629 -0.0285
  100SAPS   O2210032  -0.157   4.692   6.255  0.4392  0.1040  0.1957
  100SAPS   C2210033  -0.263   4.767   6.466  1.1467  0.1856  0.4616
  100SAPS   H2R10034  -0.228   4.747   6.569  1.9628 -0.1148  0.1305
  100SAPS   H2S10035  -0.308   4.868   6.459  0.0353 -0.4123 -3.1388
  100SAPS    C310036   0.171   4.895   6.427  0.6304  0.9666  0.6585
  100SAPS    HX10037   0.128   4.964   6.503  1.1399  1.1067  0.8243
  100SAPS    HY10038   0.245   4.954   6.370  0.2238  0.0865 -0.8563
  100SAPS   O3110039   0.228   4.786   6.508  0.3567 -0.3036 -0.0070
  100SAPS   C3110040   0.308   4.704   6.435 -0.1630 -0.4868  0.1633
  100SAPS   O3210041   0.332   4.713   6.314  0.2896  0.4363 -0.5499
  100SAPS   C3210042   0.377   4.613   6.529  0.7122 -0.1931 -0.2759
  100SAPS   H2X10043   0.467   4.665   6.570 -0.7542  1.6042  0.8449
  100SAPS   H2Y10044   0.412   4.533   6.461 -0.5660 -1.7203  0.7807
  100SAPS   C2310045  -0.382   4.668   6.432 -0.3296 -0.3545 -0.0655
  100SAPS   H3R10046  -0.407   4.650   6.325 -2.8642  0.1705  0.3863
  100SAPS   H3S10047  -0.472   4.712   6.479  0.2010  0.1938  0.4541
  100SAPS   C2410048  -0.351   4.537   6.509  0.1305  0.2604  0.1432
  100SAPS   H4R10049  -0.256   4.489   6.477  0.1096 -0.1405  0.6791
  100SAPS   H4S10050  -0.429   4.462   6.481  0.3380  0.1564 -0.1591
  100SAPS   C2510051  -0.351   4.545   6.661 -0.2237 -0.4224 -0.1971
  100SAPS   H5R10052  -0.444   4.584   6.706  1.0945  0.9104  1.5318
  100SAPS   C2610053  -0.246   4.527   6.746 -0.3914 -0.0087 -0.3278
  100SAPS   H6R10054  -0.259   4.536   6.855  1.5385  0.4769 -0.0944
  100SAPS   C2710055  -0.110   4.479   6.724 -0.3875  0.3420  0.0279
  100SAPS   H7R10056  -0.081   4.444   6.623 -0.0242 -1.5458  0.7515
  100SAPS   H7S10057  -0.113   4.378   6.768 -0.5895  1.4471  2.7199
  100SAPS   C2810058  -0.001   4.557   6.785  0.0411 -0.6957 -0.4729
  100SAPS   H8R10059   0.033   4.634   6.715  0.3803 -1.1917 -0.8661
  100SAPS   C2910060   0.057   4.548   6.907 -0.2424 -0.8615  0.2124
  100SAPS   H9R10061   0.153   4.596   6.929  0.0195 -1.5198  0.5189
  100SAPS  C21010062   0.014   4.450   7.015 -0.1963 -0.1772 -1.0172
  100SAPS  H10R10063   0.108   4.434   7.071  0.5860  3.0568 -1.2215
  100SAPS  H10S10064  -0.013   4.349   6.976  0.8061 -1.0943  0.5630
  100SAPS  C21110065  -0.091   4.523   7.105 -0.4575  0.4015 -0.0643
  100SAPS  H11R10066  -0.156   4.595   7.053 -0.3686  1.3148  1.0617
  100SAPS  C21210067  -0.089   4.528   7.239  0.3531 -0.0438 -0.0746
  100SAPS  H12R10068  -0.158   4.588   7.300  2.5910  1.4550  1.0875
  100SAPS  C21310069  -0.004   4.430   7.321  0.9367  0.0681  0.6181
  100SAPS  H13R10070   0.042   4.344   7.269  2.0177  1.3640 -0.6476
  100SAPS  H13S10071  -0.063   4.381   7.402 -1.1734  1.2027 -0.1454
  100SAPS  C21410072   0.114   4.509   7.376  0.8796 -0.2471  0.2365
  100SAPS  H14R10073   0.198   4.530   7.309 -0.6671  1.3615 -1.2926
  100SAPS  C21510074   0.122   4.557   7.501  0.3327 -0.1661  0.3537
  100SAPS  H15R10075   0.217   4.604   7.530  0.7045 -1.2659  0.9731
  100SAPS  C21610076   0.014   4.541   7.608 -0.0157  0.0854 -0.6588
  100SAPS  H16R10077  -0.083   4.517   7.559  1.0476 -1.2732 -2.1961
  100SAPS  H16S10078   0.002   4.629   7.674 -1.2430  0.5838 -1.5004
  100SAPS  C21710079   0.051   4.421   7.701  0.4812 -1.1366 -0.2071
  100SAPS  H17R10080   0.143   4.453   7.754 -1.1139  0.7291  1.5991
  100SAPS  H17S10081   0.056   4.324   7.645 -2.0651 -0.9535 -0.8624
  100SAPS  C21810082  -0.051   4.409   7.814 -0.0852  0.4479  0.0591
  100SAPS  H18R10083  -0.152   4.391   7.772  0.5646 -1.0385 -0.9243
  100SAPS  H18S10084  -0.051   4.511   7.860 -0.2124  0.4861 -0.0240
  100SAPS  C21910085  -0.030   4.303   7.916  0.3124 -0.3414  0.1391
  100SAPS  H19R10086   0.062   4.331   7.972  0.1087 -0.1483  0.3840
  100SAPS  H19S10087  -0.014   4.205   7.867  1.4044 -1.5745  2.7449
  100SAPS  C22010088  -0.152   4.298   8.014  0.1170  0.6174  0.1062
  100SAPS  H20R10089  -0.248   4.296   7.958 -1.0230 -1.3041  1.9969
  100SAPS  H20S10090  -0.151   4.385   8.083 -0.9673  0.5959  0.1589
  100SAPS  H20T10091  -0.151   4.202   8.070 -0.0815  0.3761 -0.2986
  100SAPS   C3310092   0.290   4.559   6.643  0.1726  0.1058 -0.3838
  100SAPS   H3X10093   0.193   4.526   6.600  0.1175 -1.8902  1.1652
  100SAPS   H3Y10094   0.282   4.644   6.714 -1.9998  1.0860 -1.6880
  100SAPS   C3410095   0.335   4.435   6.705  0.1744  0.3181  0.1692
  100SAPS   H4X10096   0.346   4.366   6.618 -3.9646  0.5540 -0.7618
  100SAPS   H4Y10097   0.254   4.395   6.771 -0.8889 -0.4156 -1.5005
  100SAPS   C3510098   0.456   4.447   6.796 -0.1250 -0.3160  0.6279
  100SAPS   H5X10099   0.438   4.533   6.865  1.4507 -1.3358  2.4052
  100SAPS   H5Y10100   0.550   4.464   6.740  0.2950 -1.2104  1.0391
  100SAPS   C3610101   0.457   4.326   6.885  0.6633 -0.1705  0.0536
  100SAPS   H6X10102   0.461   4.231   6.826  0.5312 -1.0269  1.3816
  100SAPS   H6Y10103   0.368   4.328   6.952 -0.3843  0.6012 -1.3043
  100SAPS   C3710104   0.572   4.318   6.981  0.5976 -0.1081  0.0754
  100SAPS   H7X10105   0.664   4.320   6.920 -1.0780 -0.5492 -2.6600
  100SAPS   H7Y10106   0.573   4.224   7.040 -0.1786 -1.4063 -1.8940
  100SAPS   C3810107   0.561   4.431   7.091  0.3700  0.7362 -0.1941
  100SAPS   H8X10108   0.453   4.452   7.108  0.6633  2.4728 -0.3789
  100SAPS   H8Y10109   0.603   4.528   7.059  0.3639  1.1134  0.9004
  100SAPS   C3910110   0.610   4.396   7.234  0.3396  0.1995 -0.4686
  100SAPS   H9X10111   0.618   4.484   7.301  3.1484 -0.2980 -0.0203
  100SAPS   H9Y10112   0.711   4.353   7.215 -0.5670 -2.4473  0.2838
  100SAPS  C31010113   0.530   4.282   7.299  0.3308  0.0457  0.6349
  100SAPS  H10X10114   0.594   4.219   7.364 -1.4922 -0.2563  2.2639
  100SAPS  H10Y10115   0.492   4.218   7.216 -2.0877  1.6167  0.4121
  100SAPS  C31110116   0.414   4.339   7.390 -0.1982  0.1400 -0.1624
  100SAPS  H11X10117   0.343   4.258   7.416 -0.0005  0.5399  1.7765
  100SAPS  H11Y10118   0.368   4.414   7.322  1.4121  1.3592  0.0282
  100SAPS  C31210119   0.457   4.405   7.524  0.9542  0.4605 -0.1729
  100SAPS  H12X10120   0.371   4.468   7.554  2.2190  2.2547 -0.1072
  100SAPS  H12Y10121   0.539   4.479   7.507 -0.4245  2.6358  1.9251
  100SAPS  C31310122   0.491   4.308   7.635 -0.2475  0.4694  0.4499
  100SAPS  H13X10123   0.567   4.233   7.604  1.0358  1.7069  0.4927
  100SAPS  H13Y10124   0.396   4.255   7.658  0.2458 -1.6802 -2.0312
  100SAPS  C31410125   0.551   4.380   7.757  0.3904  0.2594  0.2721
  100SAPS  H14X10126   0.628   4.455   7.730  1.0029  0.0715  1.4565
  100SAPS  H14Y10127   0.592   4.305   7.828 -0.7857  0.3764  1.0999
  100SAPS  C31510128   0.447   4.455   7.844  0.4622  0.6931  0.1453
  100SAPS  H15X10129   0.364   4.384   7.864  2.0573 -1.7046 -1.1747
  100SAPS  H15Y10130   0.410   4.540   7.783  1.0203  0.6561 -0.2481
  100SAPS  C31610131   0.496   4.491   7.990  0.2181 -0.1398  0.2247
  100SAPS  H16X10132   0.411   4.549   8.030  0.2719 -0.4193  0.7460
  100SAPS  H16Y10133   0.587   4.556   7.993  0.0546  0.2582 -1.9052
  100SAPS  C31710134   0.516   4.372   8.078 -0.0201  0.0760  0.4748
  100SAPS  H17X10135   0.614   4.325   8.053  0.4254  0.1358  1.9892
  100SAPS  H17Y10136   0.433   4.300   8.063  0.3757 -0.0749 -1.0847
  100SAPS  C31810137   0.523   4.412   8.222 -0.0603 -1.0457 -0.9541
  100SAPS  H18X10138   0.525   4.327   8.293  1.0951  0.3725  0.8054
  100SAPS  H18Y10139   0.428   4.467   8.243 -0.4716 -1.0214 -2.7042
  100SAPS  H18Z10140   0.610   4.477   8.248 -1.3338 -0.2669  1.7199
  101OSM      N10141   6.121   5.428  10.730 -0.0198  0.0598  0.5670
  101OSM    C1510142   6.255   5.421  10.785 -0.1760  0.7041  0.6911
  101OSM   H15A10143   6.322   5.410  10.700  0.7850  0.2589  1.4793
  101OSM   H15B10144   6.267   5.333  10.847  0.2590  1.8798  2.3392
  101OSM   H15C10145   6.279   5.505  10.848 -0.3671 -0.4175  2.3175
  101OSM    C1410146   6.041   5.404  10.852 -0.2697 -0.2001 -0.2517
  101OSM   H14A10147   6.070   5.477  10.926  1.5073 -0.3011 -0.8015
  101OSM   H14B10148   6.066   5.304  10.887  1.0200  0.7850  1.8511
  101OSM   H14C10149   5.934   5.404  10.840 -0.4630 -1.5969  1.1582
  101OSM    C1310150   6.103   5.575  10.682  0.6929  0.2894 -0.3337
  101OSM   H13A10151   5.997   5.594  10.677  0.6288 -0.1763 -0.7650
  101OSM   H13B10152   6.138   5.584  10.580  0.2220 -0.1766 -0.5409
  101OSM   H13C10153   6.142   5.636  10.762  0.5349 -0.9147  0.6885
  101OSM    C1210154   6.095   5.329  10.618 -0.4900  0.0624  0.5376
  101OSM   H12A10155   6.163   5.344  10.536 -0.9213 -0.9020 -0.0088
  101OSM   H12B10156   5.995   5.353  10.583 -0.0147  0.7714 -0.4003
  101OSM    C1110157   6.095   5.178  10.654  0.3491 -0.1135 -0.0494
  101OSM   H11A10158   6.045   5.118  10.575  0.2841  0.6697 -0.6111
  101OSM   H11B10159   6.038   5.149  10.745 -0.0585 -2.3414 -0.9586
  101OSM      P10160   6.329   5.081  10.574 -0.0536  0.0546  0.2339
  101OSM    O1310161   6.474   5.115  10.604  0.0128  0.5452  0.6673
  101OSM    O1410162   6.297   4.944  10.543 -0.2538  0.3370  0.3738
  101OSM    O1110163   6.270   5.178  10.464  0.6801  0.5361  0.5784
  101OSM    O1210164   6.232   5.134  10.686 -0.0382 -0.6262 -0.6471
  101OSM    C1S10165   6.255   5.139  10.322  0.2502 -0.0645  0.3476
  101OSM    H1S10166   6.147   5.139  10.298  0.5387 -0.4087 -1.0719
  101OSM    H1T10167   6.288   5.035  10.299 -0.4016 -0.2049  0.0211
  101OSM     NF10168   6.263   5.232  10.095 -0.2608 -0.7084  0.0951
  101OSM    HNF10169   6.313   5.191  10.019  0.1609 -1.3503  0.7034
  101OSM    C2S10170   6.332   5.236  10.221  0.2650 -0.0584 -0.8326
  101OSM    H2S10171   6.322   5.338  10.265  1.1395  0.7473 -2.4249
  101OSM    C3S10172   6.490   5.214  10.226  0.7701  0.4910 -0.0103
  101OSM    H3S10173   6.511   5.106  10.214 -0.9235  0.1798 -0.3410
  101OSM     O310174   6.544   5.248  10.355 -0.4406  0.4990  0.2723
  101OSM    HO310175   6.462   5.255  10.405 -1.4315 -0.9968 -1.0507
  101OSM    C4S10176   6.537   5.303  10.116  0.2889  0.1582  0.2011
  101OSM    H4S10177   6.558   5.246  10.024  0.6717 -3.4983  2.3508
  101OSM    C5S10178   6.590   5.429  10.133 -0.3199  0.4371 -0.2294
  101OSM    H5S10179   6.597   5.468  10.236  0.4228  1.0340 -0.4959
  101OSM    C6S10180   6.643   5.515  10.024  0.0504 -0.5363  0.0175
  101OSM    H6S10181   6.734   5.570  10.055 -0.9412  2.0094 -1.2277
  101OSM    H6T10182   6.566   5.596  10.020 -1.0298 -1.3723  2.1442
  101OSM    C7S10183   6.667   5.461   9.879 -0.1870 -0.8787  0.3718
  101OSM    H7S10184   6.570   5.420   9.847  0.3767 -2.7836  0.9725
  101OSM    H7T10185   6.744   5.383   9.894  0.2141 -0.4138  0.7817
  101OSM    C8S10186   6.716   5.571   9.780  0.1374 -1.0963  0.0104
  101OSM    H8S10187   6.804   5.618   9.829 -0.0565 -0.2311 -0.4658
  101OSM    H8T10188   6.644   5.655   9.773  2.0976  0.6602  0.0330
  101OSM    C9S10189   6.756   5.527   9.638  0.1712  0.0990 -0.1073
  101OSM    H9S10190   6.673   5.526   9.564 -0.2972  1.3963  0.3825
  101OSM    H9T10191   6.797   5.425   9.657  0.3045  0.4107  1.3753
  101OSM   C10S10192   6.861   5.616   9.572  0.1173 -0.6667 -0.1745
  101OSM   H10S10193   6.939   5.621   9.651  0.3203 -0.6572 -0.3737
  101OSM   H10T10194   6.822   5.718   9.553  0.8194 -0.2483  0.5683
  101OSM   C11S10195   6.913   5.548   9.449 -0.1098  0.3282 -0.2617
  101OSM   H11S10196   6.836   5.487   9.397  0.0657  0.4713 -0.6942
  101OSM   H11T10197   6.983   5.469   9.484 -1.1044 -0.5695 -0.2552
  101OSM   C12S10198   6.986   5.645   9.350  0.5955 -0.4022 -1.2904
  101OSM   H12S10199   7.053   5.717   9.401 -3.3226  3.7941 -1.3489
  101OSM   H12T10200   6.906   5.696   9.292 -1.9012 -0.7367  1.5838
  101OSM   C13S10201   7.073   5.572   9.249  0.0292  0.2062  0.0304
  101OSM   H13S10202   7.011   5.492   9.204 -0.0119 -0.0806  0.5867
  101OSM   H13T10203   7.161   5.523   9.297  1.0012  1.0132 -0.8890
  101OSM   C14S10204   7.119   5.667   9.146 -0.4355  0.1594  0.5776
  101OSM   H14S10205   7.183   5.746   9.191 -0.3914 -0.1079  0.9889
  101OSM   H14T10206   7.032   5.721   9.104 -1.2678 -1.0085  0.7469
  101OSM   C15S10207   7.203   5.596   9.039 -0.2499  0.5094 -0.2621
  101OSM   H15S10208   7.239   5.499   9.078 -0.1705  0.3452 -0.7343
  101OSM   H15T10209   7.293   5.657   9.017  1.0670 -1.3705 -0.3192
  101OSM   C16S10210   7.124   5.590   8.909  0.2783  0.0023  0.0793
  101OSM   H16S10211   7.141   5.684   8.852  1.9728  0.0194  0.5650
  101OSM   H16T10212   7.021   5.583   8.950  1.1605  0.8726  2.6323
  101OSM   C17S10213   7.165   5.469   8.826  0.4620  0.7376 -0.1248
  101OSM   H17S10214   7.080   5.448   8.757 -0.4853 -1.5448  1.5954
  101OSM   H17T10215   7.162   5.377   8.888  0.2517  0.7794 -0.0698
  101OSM   C18S10216   7.295   5.484   8.751  0.6178  0.1930  0.4218
  101OSM   H18S10217   7.392   5.465   8.802  0.5420  0.0786  0.5229
  101OSM   H18T10218   7.290   5.585   8.704 -1.3911 -0.2635 -0.4329
  101OSM   H18U10219   7.291   5.414   8.666  0.4107 -0.2559  0.7964
  101OSM    C1F10220   6.137   5.279  10.082  0.4952  0.2654  0.1746
  101OSM     OF10221   6.083   5.340  10.174 -0.8135  0.4102  0.1604
  101OSM    C2F10222   6.071   5.275   9.947 -0.5623 -0.0760 -0.5018
  101OSM    H2F10223   6.146   5.310   9.873  0.2926  0.4014  0.5605
  101OSM    H2G10224   5.992   5.352   9.956  0.5887  1.0583  0.3125
  101OSM    C3F10225   6.024   5.130   9.910  0.7208 -0.2422 -0.7444
  101OSM    H3F10226   5.968   5.080   9.992 -1.2459  1.3792 -1.0263
  101OSM    H3G10227   6.121   5.077   9.898  0.8073 -0.4601  0.6991
  101OSM    C4F10228   5.939   5.113   9.777  0.1949 -0.1878 -0.1407
  101OSM    H4F10229   5.849   5.177   9.772  0.7488  0.6380  0.2867
  101OSM    H4G10230   5.907   5.007   9.767 -1.3334  0.4009 -2.1141
  101OSM    C5F10231   6.017   5.147   9.649  0.5431 -0.1630  0.6697
  101OSM    H5F10232   6.094   5.069   9.630  1.2093  1.0379 -1.9336
  101OSM    H5G10233   6.064   5.246   9.669  0.7687 -0.3985  1.3740
  101OSM    C6F10234   5.922   5.166   9.537  0.1547  0.7139 -0.2198
  101OSM    H6F10235   5.839   5.238   9.558 -0.2520  1.0357 -2.6524
  101OSM    H6G10236   5.876   5.065   9.531 -1.3022  1.2969  0.6308
  101OSM    C7F10237   5.993   5.207   9.408 -0.2608  0.3132  0.2765
  101OSM    H7F10238   6.045   5.116   9.371  0.9809  1.7799 -1.7908
  101OSM    H7G10239   6.070   5.287   9.417  1.5279 -1.4194  1.1298
  101OSM    C8F10240   5.899   5.237   9.286 -0.8778  0.2734  0.0620
  101OSM    H8F10241   5.835   5.317   9.330 -1.0342  0.0889  0.1688
  101OSM    H8G10242   5.828   5.157   9.258  1.7492 -2.0120 -0.5161
  101OSM    C9F10243   5.975   5.292   9.164  0.3859  0.4287  0.1116
  101OSM    H9F10244   6.021   5.390   9.183  0.9363  0.4784 -1.3728
  101OSM   C10F10245   5.999   5.234   9.044  0.1995 -0.5348  1.0863
  101OSM   H10F10246   6.056   5.289   8.968 -0.1131 -3.3061 -1.3440
  101OSM   C11F10247   5.942   5.110   8.977 -0.3386  0.0276 -0.4799
  101OSM   H11F10248   5.880   5.055   9.052  2.0050  0.8895  2.2750
  101OSM   H11G10249   6.024   5.039   8.953 -0.4816 -0.1481 -0.4612
  101OSM   C12F10250   5.858   5.148   8.850 -0.2233  0.6456  0.7276
  101OSM   H12F10251   5.795   5.236   8.873 -2.2063 -0.4301 -0.3492
  101OSM   H12G10252   5.786   5.065   8.832  3.0510 -1.9565 -1.6132
  101OSM   C13F10253   5.943   5.163   8.726  0.4746 -0.3692  0.2507
  101OSM   H13F10254   6.010   5.077   8.704 -1.0328 -0.8967 -2.9181
  101OSM   H13G10255   5.998   5.258   8.744 -0.9513  1.2386 -2.9322
  101OSM   C14F10256   5.874   5.176   8.584  0.7883  0.5781 -0.8777
  101OSM   H14F10257   5.807   5.265   8.591  0.3816  0.4030 -2.1957
  101OSM   H14G10258   5.816   5.082   8.586  1.0301  0.4423 -0.0326
  101OSM   C15F10259   5.978   5.187   8.472  0.2313 -0.7038 -0.3738
  101OSM   H15F10260   6.002   5.079   8.462 -0.9439 -1.1954  1.6035
  101OSM   H15G10261   6.060   5.251   8.513  0.1011  0.0690 -1.2853
  101OSM   C16F10262   5.911   5.252   8.353  0.0296 -0.1536  0.0082
  101OSM   H16F10263   5.921   5.362   8.364  1.6739 -0.3515  0.8298
  101OSM   H16G10264   5.803   5.228   8.349  0.2318 -1.3398  1.0554
  101OSM   C17F10265   5.980   5.217   8.212  0.2658 -0.0991  0.1512
  101OSM   H17F10266   5.912   5.257   8.134  0.3644  0.2946  0.2663
  101OSM   H17G10267   5.965   5.107   8.204 -0.4705 -0.0308  0.5470
  101OSM   C18F10268   6.123   5.249   8.191 -0.2278  1.1678  0.2835
  101OSM   H18F10269   6.140   5.348   8.239  3.0284  0.1498  1.4942
  101OSM   H18G10270   6.156   5.240   8.085 -0.1586 -0.0892  0.4036
  101OSM   H18H10271   6.181   5.177   8.252 -0.3700 -0.5526 -1.5186
  102OSM      N10272   0.225   3.931  10.661 -0.0753 -0.0139  0.4290
  102OSM    C1510273   0.382   3.924  10.656 -0.3887 -0.2454  0.1948
  102OSM   H15A10274   0.433   3.912  10.750  0.8076  2.3216 -0.0460
  102OSM   H15B10275   0.425   4.005  10.598 -1.5189  0.5546  0.4382
  102OSM   H15C10276   0.415   3.838  10.600 -0.0585 -0.1304  0.2142
  102OSM    C1410277   0.172   3.849  10.766 -0.0997  0.7906 -0.6617
  102OSM   H14A10278   0.216   3.876  10.861 -1.5690 -1.6120  0.8239
  102OSM   H14B10279   0.188   3.743  10.750  1.2356  0.5413  1.8002
  102OSM   H14C10280   0.066   3.860  10.784 -0.0829  1.9250 -1.1788
  102OSM    C1310281   0.183   4.074  10.686  0.3676 -0.3995  0.6307
  102OSM   H13A10282   0.207   4.136  10.601  3.9407  0.8519  2.3307
  102OSM   H13B10283   0.241   4.115  10.767  2.4490  0.8952 -1.3936
  102OSM   H13C10284   0.080   4.092  10.712  0.7359  2.4989  0.3926
  102OSM    C1210285   0.173   3.893  10.519 -0.9072 -0.1243 -0.3282
  102OSM   H12A10286   0.220   3.967  10.457 -0.2862  0.5137  0.8581
  102OSM   H12B10287   0.067   3.914  10.512 -0.7427  0.8804  0.0469
  102OSM    C1110288   0.213   3.756  10.450  0.0180  0.5352 -0.2850
  102OSM   H11A10289   0.323   3.742  10.453  0.0774  1.1278  2.1406
  102OSM   H11B10290   0.183   3.759  10.343  1.4786 -1.2989 -0.8088
  102OSM      P10291  -0.011   3.630  10.513  0.2361  0.2885  0.0224
  102OSM    O1310292  -0.057   3.502  10.570 -0.7303  0.1626 -0.2653
  102OSM    O1410293  -0.075   3.746  10.574  0.1767 -0.2407  0.5565
  102OSM    O1110294  -0.050   3.631  10.359  0.0826  0.3062 -0.2332
  102OSM    O1210295   0.150   3.641  10.509  0.2057  0.6903  0.5853
  102OSM    C1S10296  -0.188   3.655  10.329 -0.2868  0.0853  0.7316
  102OSM    H1S10297  -0.223   3.749  10.377 -2.9014  0.4246 -1.5235
  102OSM    H1T10298  -0.255   3.568  10.347 -0.6677 -0.1155 -1.3928
  102OSM     NF10299  -0.344   3.741  10.164  0.4345 -0.3564  0.4218
  102OSM    HNF10300  -0.413   3.686  10.119 -0.9817  0.5592  1.4080
  102OSM    C2S10301  -0.210   3.699  10.181  0.1321 -0.6725  0.1342
  102OSM    H2S10302  -0.139   3.785  10.177 -2.6083  1.7866  0.6090
  102OSM    C3S10303  -0.166   3.597  10.074  0.1318  0.0079  0.0286
  102OSM    H3S10304  -0.231   3.508  10.086  1.2248 -0.7380  0.5862
  102OSM     O310305  -0.039   3.530  10.098  0.1673 -0.7557 -0.0075
  102OSM    HO310306   0.002   3.577  10.171  1.5956  0.2650 -1.3991
  102OSM    C4S10307  -0.176   3.660   9.940 -0.7248  0.1520 -0.0287
  102OSM    H4S10308  -0.279   3.652   9.902 -2.0106 -1.0949  3.2818
  102OSM    C5S10309  -0.070   3.727   9.885 -0.0002  0.3812 -0.0470
  102OSM    H5S10310   0.024   3.745   9.940  0.9228 -0.2378 -1.3645
  102OSM    C6S10311  -0.080   3.798   9.755  0.1314  0.1777  0.6582
  102OSM    H6S10312   0.018   3.778   9.707  0.3017  1.2247  0.5246
  102OSM    H6T10313  -0.094   3.907   9.775 -1.3290 -0.0804  1.1673
  102OSM    C7S10314  -0.175   3.739   9.652 -0.3741 -0.3138  0.8870
  102OSM    H7S10315  -0.283   3.756   9.672 -0.7630 -1.1528 -0.3994
  102OSM    H7T10316  -0.155   3.630   9.643 -0.2916 -0.2959  0.8543
  102OSM    C8S10317  -0.153   3.797   9.512  0.7549 -0.1161 -0.1592
  102OSM    H8S10318  -0.140   3.907   9.528 -1.9993  0.7020 -2.6660
  102OSM    H8T10319  -0.246   3.784   9.453  0.3017  0.2020  0.4684
  102OSM    C9S10320  -0.046   3.734   9.438 -1.2488  0.0477  0.1817
  102OSM    H9S10321  -0.057   3.627   9.412  0.5629 -0.5873  1.7816
  102OSM    H9T10322   0.042   3.735   9.506 -1.8358 -0.7644  0.9752
  102OSM   C10S10323  -0.004   3.809   9.307 -0.6781 -0.2258  0.0036
  102OSM   H10S10324   0.099   3.776   9.283 -0.4732  0.7632 -0.5284
  102OSM   H10T10325   0.003   3.917   9.333  1.7006 -0.4742  0.6594
  102OSM   C11S10326  -0.088   3.787   9.187 -0.5436  0.2408 -0.0693
  102OSM   H11S10327  -0.188   3.834   9.195 -0.8642 -0.6157  1.2535
  102OSM   H11T10328  -0.115   3.679   9.180 -1.1192  0.3757  0.0085
  102OSM   C12S10329  -0.016   3.819   9.056 -0.1760 -0.4943  0.1534
  102OSM   H12S10330   0.075   3.756   9.050 -1.3561 -2.1115 -2.7558
  102OSM   H12T10331   0.005   3.929   9.052  0.5186 -0.6118  0.3763
  102OSM   C13S10332  -0.096   3.782   8.931  0.4824  0.0779  0.2113
  102OSM   H13S10333  -0.175   3.860   8.924  0.3714 -0.1813 -3.0258
  102OSM   H13T10334  -0.144   3.682   8.941  0.5075  0.0840  0.3918
  102OSM   C14S10335  -0.012   3.763   8.810  0.4510  0.2685  0.7020
  102OSM   H14S10336   0.072   3.694   8.831 -1.1133 -2.4796 -1.3915
  102OSM   H14T10337   0.009   3.865   8.771 -0.5352  0.4185  0.5340
  102OSM   C15S10338  -0.092   3.690   8.688  0.1182 -0.0871 -0.3684
  102OSM   H15S10339  -0.168   3.764   8.656 -1.0340 -1.4616 -0.9145
  102OSM   H15T10340  -0.139   3.597   8.728  0.3827 -0.2067 -0.3338
  102OSM   C16S10341  -0.005   3.663   8.567 -0.4018  0.2921  0.4267
  102OSM   H16S10342   0.078   3.592   8.590 -0.1809  0.3805 -0.0835
  102OSM   H16T10343   0.036   3.758   8.526 -1.2807 -0.3716 -2.2010
  102OSM   C17S10344  -0.078   3.586   8.453  0.5418 -0.2387  0.0852
  102OSM   H17S10345  -0.139   3.498   8.484  0.5943  0.2747  1.8015
  102OSM   H17T10346  -0.001   3.539   8.389 -0.4143 -1.5086 -0.1716
  102OSM   C18S10347  -0.155   3.673   8.356 -0.1755 -0.5721 -0.4339
  102OSM   H18S10348  -0.085   3.755   8.327  0.5751 -1.0238  0.0650
  102OSM   H18T10349  -0.236   3.721   8.415  0.6324 -0.5300  0.6668
  102OSM   H18U10350  -0.203   3.632   8.265 -2.6441  4.2835 -1.6607
  102OSM    C1F10351  -0.394   3.862  10.201  0.2838 -0.1049  0.2492
  102OSM     OF10352  -0.322   3.939  10.258  0.0243  0.3322 -0.4809
  102OSM    C2F10353  -0.536   3.903  10.175  0.0128  0.4580  0.1753
  102OSM    H2F10354  -0.597   3.883  10.266  0.5693  0.3361  0.5269
  102OSM    H2G10355  -0.582   3.841  10.095 -1.3526  1.8613 -0.1874
  102OSM    C3F10356  -0.551   4.044  10.125 -0.0092 -0.6751  0.0166
  102OSM    H3F10357  -0.509   4.108  10.205 -0.2528  0.2339 -0.5672
  102OSM    H3G10358  -0.659   4.067  10.111  0.0045 -1.6362 -2.1614
  102OSM    C4F10359  -0.470   4.090  10.000 -0.9024  0.0289 -0.1833
  102OSM    H4F10360  -0.367   4.049   9.994 -1.1481 -0.4411 -1.4640
  102OSM    H4G10361  -0.458   4.200  10.002 -1.8496  0.1353  1.2305
  102OSM    C5F10362  -0.544   4.047   9.879  0.1821  0.2931 -0.7254
  102OSM    H5F10363  -0.651   4.074   9.885  0.2445  0.1731  2.5138
  102OSM    H5G10364  -0.556   3.936   9.874 -0.9273  0.4167 -0.9839
  102OSM    C6F10365  -0.482   4.083   9.747  0.6819 -0.2500  0.0768
  102OSM    H6F10366  -0.371   4.090   9.740  0.7821 -1.1719  0.5040
  102OSM    H6G10367  -0.519   4.186   9.728 -0.3589 -1.0741 -2.8096
  102OSM    C7F10368  -0.522   3.987   9.633  0.1603 -0.1027 -0.7425
  102OSM    H7F10369  -0.489   3.884   9.660  0.1619 -0.4272 -1.9189
  102OSM    H7G10370  -0.474   4.023   9.539 -1.1470  1.7367 -0.7601
  102OSM    C8F10371  -0.673   3.978   9.609  0.5893 -0.5388  0.2793
  102OSM    H8F10372  -0.732   3.949   9.699  0.7079  1.4110  1.0317
  102OSM    H8G10373  -0.694   3.898   9.535 -1.5837  1.4852 -1.4662
  102OSM    C9F10374  -0.719   4.115   9.564  1.0139 -0.2725  0.7601
  102OSM    H9F10375  -0.707   4.194   9.639 -2.3466 -0.3253  1.5249
  102OSM   C10F10376  -0.765   4.141   9.432 -0.0972  0.5096  0.3951
  102OSM   H10F10377  -0.790   4.246   9.410 -2.5460 -0.6122 -2.9516
  102OSM   C11F10378  -0.765   4.043   9.318  0.6626  0.7584 -0.3472
  102OSM   H11F10379  -0.871   4.021   9.291  0.0927  0.6378  1.8449
  102OSM   H11G10380  -0.718   3.945   9.338  1.1203  1.3157  1.4143
  102OSM   C12F10381  -0.704   4.085   9.187 -0.0761 -0.4884  0.2387
  102OSM   H12F10382  -0.600   4.117   9.211  0.4754 -2.6944  1.0690
  102OSM   H12G10383  -0.764   4.169   9.145  0.7453 -0.5017 -1.0080
  102OSM   C13F10384  -0.704   3.975   9.083 -0.8280 -0.2890 -0.5298
  102OSM   H13F10385  -0.809   3.946   9.065 -1.8218  1.9756  1.0728
  102OSM   H13G10386  -0.646   3.885   9.111  0.8543  0.5687 -1.1082
  102OSM   C14F10387  -0.636   4.011   8.946 -0.6697 -1.2314  0.7297
  102OSM   H14F10388  -0.540   4.066   8.960 -1.7693  0.1040  3.7581
  102OSM   H14G10389  -0.697   4.090   8.896 -1.3524 -2.0615  0.2236
  102OSM   C15F10390  -0.616   3.895   8.852 -0.4527  0.0301 -0.6887
  102OSM   H15F10391  -0.718   3.868   8.815 -0.8225  0.7895 -0.2577
  102OSM   H15G10392  -0.568   3.810   8.905  1.3339  0.6849 -1.2119
  102OSM   C16F10393  -0.524   3.938   8.736 -0.8374  0.3885  0.1178
  102OSM   H16F10394  -0.416   3.954   8.756 -0.9858  0.2420  1.1074
  102OSM   H16G10395  -0.558   4.040   8.710 -0.2198 -0.0403 -2.6098
  102OSM   C17F10396  -0.536   3.850   8.606 -0.4205  0.5300 -0.5635
  102OSM   H17F10397  -0.640   3.813   8.609 -0.4636  0.6948  0.3400
  102OSM   H17G10398  -0.472   3.760   8.613 -0.2557  0.5516 -1.6566
  102OSM   C18F10399  -0.504   3.932   8.481  0.1725  0.1805 -0.7891
  102OSM   H18F10400  -0.573   4.017   8.467  2.3173  2.2444  0.3672
  102OSM   H18G10401  -0.506   3.862   8.394 -0.7534 -1.7029  0.6749
  102OSM   H18H10402  -0.399   3.969   8.476 -0.6302  2.4577 -3.2783
  103OSM      N10403   1.028   5.814  10.616 -0.3819  0.4847  0.0608
  103OSM    C1510404   0.975   5.923  10.524  0.3303  0.3181  0.5743
  103OSM   H15A10405   0.871   5.904  10.501  0.0034  0.0484  2.1418
  103OSM   H15B10406   1.036   5.919  10.435 -0.0614 -2.1984  0.3451
  103OSM   H15C10407   0.995   6.022  10.562 -1.7002  0.4781  1.3640
  103OSM    C1410408   0.954   5.834  10.753 -1.0270  1.3188  0.3917
  103OSM   H14A10409   0.994   5.930  10.781  1.1076  0.5337  0.2523
  103OSM   H14B10410   1.003   5.767  10.822 -0.3911  1.0336 -0.3266
  103OSM   H14C10411   0.847   5.824  10.742 -0.7485 -3.0280 -0.0962
  103OSM    C1310412   1.001   5.677  10.555 -0.2891 -0.1739 -0.7952
  103OSM   H13A10413   1.068   5.670  10.471  0.7954 -0.0844  0.0264
  103OSM   H13B10414   0.898   5.673  10.522 -0.3134 -0.6817 -0.6728
  103OSM   H13C10415   1.018   5.596  10.625 -1.1935  3.2489  3.9126
  103OSM    C1210416   1.178   5.845  10.639  0.1858  0.1695  0.3097
  103OSM   H12A10417   1.212   5.765  10.704 -2.2455 -0.7447  0.5810
  103OSM   H12B10418   1.192   5.940  10.689  0.7788  0.1005  0.2744
  103OSM    C1110419   1.273   5.877  10.524  0.8253  0.3933 -0.5025
  103OSM   H11A10420   1.248   5.814  10.436 -0.6641  2.0084 -1.2970
  103OSM   H11B10421   1.377   5.852  10.554  0.2673  1.0149  2.1893
  103OSM      P10422   1.329   6.123  10.526 -0.5956 -0.3536  0.0926
  103OSM    O1310423   1.306   6.243  10.441 -0.3690  0.2018  0.3622
  103OSM    O1410424   1.315   6.135  10.673 -0.1121  0.4079 -0.0507
  103OSM    O1110425   1.477   6.075  10.497 -0.0394 -0.1874 -0.9433
  103OSM    O1210426   1.246   6.003  10.479 -0.3092 -0.8163  0.7054
  103OSM    C1S10427   1.522   6.040  10.368 -0.0182 -0.2963 -1.0752
  103OSM    H1S10428   1.438   6.051  10.296 -1.2061  0.4320  0.3658
  103OSM    H1T10429   1.560   5.935  10.366 -0.9458 -0.8011  1.9927
  103OSM     NF10430   1.688   6.113  10.202 -0.3502  0.4871 -0.0085
  103OSM    HNF10431   1.764   6.050  10.213  0.8926  2.0773  1.1055
  103OSM    C2S10432   1.635   6.147  10.322 -0.4584  0.7059 -0.3041
  103OSM    H2S10433   1.595   6.251  10.321  1.6370  1.6127  1.7280
  103OSM    C3S10434   1.745   6.154  10.432 -0.0704 -0.0805 -0.2772
  103OSM    H3S10435   1.781   6.055  10.467  0.7391 -0.2039 -1.3958
  103OSM     O310436   1.693   6.225  10.546  0.0209  0.1357  0.6188
  103OSM    HO310437   1.602   6.192  10.548  0.7867 -2.1285  3.0644
  103OSM    C4S10438   1.868   6.239  10.382  0.1619  0.1844 -0.0004
  103OSM    H4S10439   1.846   6.341  10.349 -2.3600 -0.3378 -0.1522
  103OSM    C5S10440   1.983   6.176  10.352 -0.2434 -0.7257  0.4992
  103OSM    H5S10441   1.991   6.068  10.372 -1.1045 -1.0881 -0.9421
  103OSM    C6S10442   2.095   6.238  10.274 -0.9459 -0.2739 -1.2477
  103OSM    H6S10443   2.192   6.225  10.327 -0.4734  0.9668 -1.7609
  103OSM    H6T10444   2.079   6.348  10.263  2.0502  0.1127 -2.7198
  103OSM    C7S10445   2.098   6.153  10.154 -0.5181  0.0383 -0.6689
  103OSM    H7S10446   2.008   6.173  10.093  1.0702  2.4616 -2.4607
  103OSM    H7T10447   2.111   6.047  10.183  0.0036  0.0192 -0.9562
  103OSM    C8S10448   2.216   6.188  10.058 -0.3285 -0.5752 -0.2072
  103OSM    H8S10449   2.305   6.190  10.125  0.7421 -0.2379 -1.5828
  103OSM    H8T10450   2.210   6.294  10.026 -0.9866 -1.4681 -3.3478
  103OSM    C9S10451   2.235   6.084   9.947  0.4494  0.1039 -0.2632
  103OSM    H9S10452   2.248   5.988  10.001  1.5927  1.3419  1.7937
  103OSM    H9T10453   2.323   6.112   9.885  1.9166  3.0620  2.8129
  103OSM   C10S10454   2.124   6.079   9.842 -0.0431  0.2034 -0.8658
  103OSM   H10S10455   2.082   6.181   9.826 -2.3192 -0.7862 -1.5761
  103OSM   H10T10456   2.047   6.011   9.884 -1.0892  0.0875 -2.8296
  103OSM   C11S10457   2.178   6.027   9.707 -0.3748  0.2824 -0.9442
  103OSM   H11S10458   2.228   5.930   9.729 -0.3730  0.6993  1.1240
  103OSM   H11T10459   2.254   6.098   9.670 -0.1289  1.0781  0.9584
  103OSM   C12S10460   2.069   5.998   9.606 -0.8065 -0.7586 -0.1150
  103OSM   H12S10461   2.004   6.087   9.593  0.8753  0.2246 -2.7528
  103OSM   H12T10462   2.010   5.911   9.644 -0.8782  0.5045  2.9359
  103OSM   C13S10463   2.138   5.982   9.477 -0.0269 -0.3253  0.4273
  103OSM   H13S10464   2.205   5.892   9.480 -0.6155 -0.7660  3.0549
  103OSM   H13T10465   2.197   6.073   9.452 -1.7028  0.3609 -1.1663
  103OSM   C14S10466   2.038   5.965   9.357  0.5240 -0.1868 -0.4238
  103OSM   H14S10467   1.968   6.050   9.347  1.7774  0.7522 -1.5504
  103OSM   H14T10468   1.995   5.862   9.362 -0.3008  0.1392 -0.7642
  103OSM   C15S10469   2.105   5.978   9.224  0.5931  0.2653  0.8582
  103OSM   H15S10470   2.207   5.934   9.225  0.1378 -0.8045  2.3280
  103OSM   H15T10471   2.116   6.083   9.188 -0.5388 -0.1225 -0.6935
  103OSM   C16S10472   2.041   5.907   9.093  0.5730  0.5686  0.9330
  103OSM   H16S10473   2.033   5.800   9.124 -1.4367  1.0194  2.1694
  103OSM   H16T10474   2.113   5.914   9.009  0.1561  1.4164  0.6377
  103OSM   C17S10475   1.900   5.957   9.057  0.4629  0.3226  0.6224
  103OSM   H17S10476   1.919   6.066   9.042  1.8480 -0.1961 -1.8663
  103OSM   H17T10477   1.834   5.943   9.145  0.5726 -4.2297  0.1832
  103OSM   C18S10478   1.845   5.904   8.923  0.4790 -0.1690 -0.1118
  103OSM   H18S10479   1.914   5.949   8.848 -0.1151  1.4325  0.2581
  103OSM   H18T10480   1.747   5.951   8.901  0.9244  1.3834  1.0058
  103OSM   H18U10481   1.845   5.795   8.903 -0.3856  0.1351 -2.0317
  103OSM    C1F10482   1.623   6.123  10.085  0.0533  0.5156 -0.0982
  103OSM     OF10483   1.511   6.170  10.085  0.0577  0.1079 -0.1751
  103OSM    C2F10484   1.688   6.065   9.961  0.0968 -0.1227  0.5831
  103OSM    H2F10485   1.751   5.977   9.983 -0.5250 -1.8084 -3.5755
  103OSM    H2G10486   1.759   6.135   9.912  0.7542 -1.5680 -0.5699
  103OSM    C3F10487   1.583   6.002   9.864 -1.1579 -0.5047  0.0873
  103OSM    H3F10488   1.531   6.091   9.822 -1.6274 -0.3239  1.0255
  103OSM    H3G10489   1.504   5.937   9.907 -1.7602 -0.2215 -0.5643
  103OSM    C4F10490   1.645   5.917   9.753 -0.5119  0.0058 -0.3149
  103OSM    H4F10491   1.708   5.839   9.800 -2.4785  0.9781  4.5150
  103OSM    H4G10492   1.713   5.973   9.686  1.5805 -0.4421  1.3365
  103OSM    C5F10493   1.542   5.847   9.661  0.3953 -0.2129 -0.2615
  103OSM    H5F10494   1.482   5.929   9.616  0.2081 -0.2082 -0.0028
  103OSM    H5G10495   1.478   5.769   9.706 -1.6247  0.3845 -1.9645
  103OSM    C6F10496   1.614   5.793   9.536 -1.3314  0.5367 -0.2463
  103OSM    H6F10497   1.685   5.714   9.568 -1.4187  0.7575  0.5083
  103OSM    H6G10498   1.674   5.873   9.488  2.3574 -0.9001  1.6406
  103OSM    C7F10499   1.510   5.745   9.430 -0.3742 -0.1958  0.3418
  103OSM    H7F10500   1.440   5.831   9.422  1.3912  1.1405 -2.1851
  103OSM    H7G10501   1.449   5.659   9.464 -0.4838 -0.9216 -1.5865
  103OSM    C8F10502   1.570   5.718   9.290 -0.3190 -0.1996  0.3032
  103OSM    H8F10503   1.638   5.805   9.275 -3.3289  2.1236 -0.8047
  103OSM    H8G10504   1.484   5.725   9.221  0.4962  3.6964 -0.5583
  103OSM    C9F10505   1.646   5.585   9.303 -0.4554  0.7618 -0.2444
  103OSM    H9F10506   1.694   5.555   9.397  0.9836  2.1305 -0.4871
  103OSM   C10F10507   1.666   5.497   9.200 -0.2920 -0.0266  0.0789
  103OSM   H10F10508   1.728   5.408   9.218  0.2297 -0.0392 -1.5700
  103OSM   C11F10509   1.614   5.504   9.055 -0.3349 -0.4592 -0.4609
  103OSM   H11F10510   1.538   5.585   9.048 -2.2423 -2.2769 -2.2003
  103OSM   H11G10511   1.551   5.415   9.032 -0.0320 -0.4267 -1.4437
  103OSM   C12F10512   1.725   5.515   8.944  0.6000 -0.7260  0.1554
  103OSM   H12F10513   1.786   5.422   8.937  0.4986 -0.8593  0.9579
  103OSM   H12G10514   1.793   5.594   8.981 -0.9962  1.1157 -0.7040
  103OSM   C13F10515   1.671   5.552   8.816  0.0045 -0.1392  0.1936
  103OSM   H13F10516   1.580   5.497   8.784  0.4314  0.3966 -2.1036
  103OSM   H13G10517   1.624   5.652   8.824 -0.1722  0.2037 -3.3645
  103OSM   C14F10518   1.793   5.568   8.719 -0.3786 -0.0903  0.1583
  103OSM   H14F10519   1.848   5.473   8.703  1.1835  1.0134 -1.2229
  103OSM   H14G10520   1.868   5.626   8.777  0.5184 -0.8181 -0.2699
  103OSM   C15F10521   1.759   5.644   8.595  0.5410 -0.4289 -0.0400
  103OSM   H15F10522   1.701   5.730   8.635 -2.4736 -1.6822 -1.3824
  103OSM   H15G10523   1.684   5.590   8.533  1.4504  2.2690 -3.7919
  103OSM   C16F10524   1.874   5.682   8.509  0.0098  0.2963 -0.1460
  103OSM   H16F10525   1.924   5.594   8.462 -1.0185  1.0707 -2.9332
  103OSM   H16G10526   1.945   5.745   8.565 -0.8618  0.5530  0.6946
  103OSM   C17F10527   1.838   5.779   8.401  1.0116  0.6725  0.4256
  103OSM   H17F10528   1.752   5.843   8.432  0.4312 -0.4037  1.1336
  103OSM   H17G10529   1.801   5.723   8.312 -0.7033  3.0341 -0.4320
  103OSM   C18F10530   1.956   5.857   8.351  0.0103 -0.9859  0.6672
  103OSM   H18F10531   2.020   5.796   8.284 -0.9969 -0.5781 -0.7113
  103OSM   H18G10532   2.007   5.909   8.435  0.0831 -1.0888  0.6863
  103OSM   H18H10533   1.917   5.941   8.288  2.8123  1.2929  1.7674
  104OSM      N10534   4.433   5.748  10.895 -0.7975  0.0417 -0.3378
  104OSM    C1510535   4.459   5.772  11.042 -0.5707 -0.1696 -0.0800
  104OSM   H15A10536   4.497   5.872  11.055 -3.3081  1.0001 -0.2572
  104OSM   H15B10537   4.527   5.701  11.086 -0.8465 -0.0867  0.4921
  104OSM   H15C10538   4.364   5.771  11.093 -1.1902  3.1527 -0.8964
  104OSM    C1410539   4.353   5.621  10.882  0.0525  0.0108  0.2169
  104OSM   H14A10540   4.250   5.648  10.898  0.4304  2.7449 -1.2807
  104OSM   H14B10541   4.388   5.553  10.959  0.1930 -1.9505 -1.5159
  104OSM   H14C10542   4.365   5.589  10.780 -0.0383  3.0348 -0.8516
  104OSM    C1310543   4.364   5.862  10.833  0.1720  0.4058 -0.1025
  104OSM   H13A10544   4.419   5.955  10.835  2.7357 -1.0483  0.0539
  104OSM   H13B10545   4.274   5.885  10.889  1.7541  2.1088  1.9390
  104OSM   H13C10546   4.354   5.846  10.727  2.5932 -3.3676  0.0559
  104OSM    C1210547   4.562   5.733  10.827 -0.2625  0.4124  1.2609
  104OSM   H12A10548   4.614   5.644  10.860 -0.2455  0.1884  0.6430
  104OSM   H12B10549   4.620   5.822  10.846 -0.7914  1.2582 -0.8139
  104OSM    C1110550   4.563   5.726  10.667  0.1915  0.2344  0.5471
  104OSM   H11A10551   4.672   5.725  10.645  0.2608 -1.5965  0.7937
  104OSM   H11B10552   4.519   5.821  10.631  0.5155 -0.2551 -1.2510
  104OSM      P10553   4.577   5.491  10.569  0.8345  0.5140 -0.1743
  104OSM    O1310554   4.701   5.484  10.654 -0.1132 -0.1607  0.3960
  104OSM    O1410555   4.493   5.367  10.561  0.2559 -0.5876 -0.1213
  104OSM    O1110556   4.628   5.525  10.428 -0.2094 -0.6782 -0.2702
  104OSM    O1210557   4.488   5.613  10.606  0.4431  0.2176 -0.0840
  104OSM    C1S10558   4.565   5.614  10.340 -0.0384 -0.5067  0.2404
  104OSM    H1S10559   4.588   5.718  10.372 -0.2129 -0.3803 -0.0368
  104OSM    H1T10560   4.455   5.598  10.342  0.1277 -1.9806 -0.9294
  104OSM     NF10561   4.564   5.705  10.114 -0.0663  0.2172 -0.2518
  104OSM    HNF10562   4.494   5.681  10.047  0.3208 -0.5601 -0.3873
  104OSM    C2S10563   4.618   5.594  10.194 -0.1972  0.0736 -0.1468
  104OSM    H2S10564   4.729   5.606  10.197 -0.2005  0.2115  2.9001
  104OSM    C3S10565   4.599   5.443  10.154  0.2458  0.7861  1.2971
  104OSM    H3S10566   4.496   5.410  10.177  1.1004 -3.0565  0.2714
  104OSM     O310567   4.667   5.355  10.236  0.3205 -0.6123 -0.3049
  104OSM    HO310568   4.682   5.411  10.312  1.2420  2.2019 -2.3574
  104OSM    C4S10569   4.639   5.435  10.005  0.4699 -0.3076  0.4895
  104OSM    H4S10570   4.557   5.465   9.938  1.0926  0.0987 -0.1149
  104OSM    C5S10571   4.757   5.401   9.952 -0.0631  0.2983  0.3929
  104OSM    H5S10572   4.840   5.375  10.019  0.4288  0.4909 -0.1433
  104OSM    C6S10573   4.787   5.379   9.801  0.8810 -0.3107 -0.0290
  104OSM    H6S10574   4.823   5.274   9.795 -0.0219 -0.5988 -0.6481
  104OSM    H6T10575   4.874   5.440   9.770  0.9895 -0.2927  0.3062
  104OSM    C7S10576   4.682   5.403   9.686 -0.4490  0.5560  0.4298
  104OSM    H7S10577   4.654   5.510   9.697  0.0171  0.6647  0.5638
  104OSM    H7T10578   4.595   5.334   9.694  0.6696 -0.7723  1.8893
  104OSM    C8S10579   4.751   5.377   9.558 -0.0383  0.7274 -0.2446
  104OSM    H8S10580   4.769   5.271   9.530 -0.9710  1.1765 -2.8429
  104OSM    H8T10581   4.851   5.424   9.547  0.4276 -0.3033 -0.6089
  104OSM    C9S10582   4.662   5.421   9.443  0.8255 -1.0257  0.5403
  104OSM    H9S10583   4.615   5.521   9.461 -1.2771 -2.0167  0.8807
  104OSM    H9T10584   4.565   5.368   9.441  0.2078  0.0673  0.2819
  104OSM   C10S10585   4.722   5.413   9.303  0.0682  0.0688 -0.3879
  104OSM   H10S10586   4.745   5.305   9.292 -1.2929 -0.9504  4.3213
  104OSM   H10T10587   4.811   5.479   9.309  0.9581 -0.9369 -1.9565
  104OSM   C11S10588   4.639   5.459   9.182  0.3575 -0.6388 -0.4403
  104OSM   H11S10589   4.562   5.381   9.161  0.9407 -1.4577  0.3653
  104OSM   H11T10590   4.707   5.474   9.096  0.3713  1.4051 -0.1221
  104OSM   C12S10591   4.562   5.593   9.192  0.3505  0.9358 -0.2411
  104OSM   H12S10592   4.643   5.664   9.219  0.8725  1.8078 -3.6234
  104OSM   H12T10593   4.483   5.588   9.271 -0.9927  3.1599 -1.3598
  104OSM   C13S10594   4.490   5.625   9.064  0.7736  0.4344  0.1162
  104OSM   H13S10595   4.444   5.726   9.070  0.3716  0.2665 -0.0847
  104OSM   H13T10596   4.415   5.544   9.050  0.2053  1.2758 -2.0317
  104OSM   C14S10597   4.579   5.629   8.940  0.4407 -0.2216 -0.1606
  104OSM   H14S10598   4.518   5.660   8.852 -0.7158 -0.6024  0.4924
  104OSM   H14T10599   4.615   5.526   8.918  1.8859  0.7471 -2.8027
  104OSM   C15S10600   4.702   5.726   8.951  0.1271  0.1801 -0.0369
  104OSM   H15S10601   4.765   5.708   9.040 -0.5587 -2.7234 -0.0563
  104OSM   H15T10602   4.657   5.828   8.956 -0.2935 -0.0109  0.1301
  104OSM   C16S10603   4.777   5.720   8.823  0.8130  0.6774  0.2781
  104OSM   H16S10604   4.697   5.731   8.747  0.6722  0.8595  0.4497
  104OSM   H16T10605   4.829   5.622   8.815 -0.6440 -0.3383  2.3067
  104OSM   C17S10606   4.893   5.815   8.811 -0.1789 -0.1178  0.0623
  104OSM   H17S10607   4.977   5.784   8.877  0.6149  1.1025 -0.3354
  104OSM   H17T10608   4.848   5.908   8.853 -0.1543 -0.9856  2.1394
  104OSM   C18S10609   4.941   5.825   8.664 -0.5055  0.1519  0.2992
  104OSM   H18S10610   4.880   5.893   8.602 -0.8198 -1.7737 -1.6230
  104OSM   H18T10611   4.931   5.725   8.617 -0.2819 -0.5648  1.7100
  104OSM   H18U10612   5.050   5.845   8.658 -0.0402 -2.1333  0.0370
  104OSM    C1F10613   4.620   5.827  10.121 -0.3106  0.4077 -0.4763
  104OSM     OF10614   4.711   5.844  10.201 -0.0892 -0.1403  0.0441
  104OSM    C2F10615   4.576   5.935  10.028  0.4093 -0.8816 -0.5645
  104OSM    H2F10616   4.466   5.923  10.017  0.3372  1.3041 -3.2315
  104OSM    H2G10617   4.623   5.914   9.930  2.5656  2.3758 -0.3625
  104OSM    C3F10618   4.612   6.082  10.071 -0.3546 -0.4678 -0.5989
  104OSM    H3F10619   4.719   6.075  10.098 -0.0562  1.9326 -1.0027
  104OSM    H3G10620   4.559   6.108  10.165  1.1746  0.1691  0.1184
  104OSM    C4F10621   4.596   6.199   9.968 -0.0432 -0.9292 -0.0863
  104OSM    H4F10622   4.675   6.274   9.991 -1.5127  1.0639 -1.1318
  104OSM    H4G10623   4.499   6.253   9.966  0.4350 -0.0485 -0.7220
  104OSM    C5F10624   4.610   6.145   9.828  0.4043  0.4345  0.0465
  104OSM    H5F10625   4.510   6.099   9.815  0.4768  0.2871  0.0141
  104OSM    H5G10626   4.688   6.067   9.831 -0.9597 -0.9473  1.3621
  104OSM    C6F10627   4.640   6.257   9.732  0.5529  0.3571 -0.1256
  104OSM    H6F10628   4.720   6.328   9.762 -0.2774  1.3836 -0.2843
  104OSM    H6G10629   4.547   6.317   9.732  0.7500  0.7844 -2.9297
  104OSM    C7F10630   4.666   6.217   9.595  0.5125  0.0442  0.2371
  104OSM    H7F10631   4.590   6.149   9.551  0.1607  0.9118 -0.5485
  104OSM    H7G10632   4.764   6.165   9.582  1.1688  1.0249  1.1070
  104OSM    C8F10633   4.663   6.350   9.502  0.4229 -0.5202  0.8340
  104OSM    H8F10634   4.730   6.430   9.539 -0.8911  2.1421 -2.0911
  104OSM    H8G10635   4.558   6.375   9.528  0.3189 -1.7780  1.7144
  104OSM    C9F10636   4.680   6.330   9.354 -0.4129  0.2594 -0.4340
  104OSM    H9F10637   4.714   6.227   9.335 -0.7313 -0.2996  1.7337
  104OSM   C10F10638   4.642   6.422   9.265  0.0764  0.3197  0.5637
  104OSM   H10F10639   4.662   6.392   9.161  0.2039  1.3341  0.2934
  104OSM   C11F10640   4.581   6.556   9.284  0.2750 -0.5241 -0.1176
  104OSM   H11F10641   4.627   6.634   9.220 -0.5959 -0.1765 -0.3307
  104OSM   H11G10642   4.613   6.600   9.381  0.8534  1.2246 -1.0680
  104OSM   C12F10643   4.427   6.549   9.277 -0.0194 -0.0422  0.6030
  104OSM   H12F10644   4.396   6.649   9.313  1.1709 -0.0018  1.6036
  104OSM   H12G10645   4.402   6.462   9.342  1.1508 -2.4868 -1.9907
  104OSM   C13F10646   4.367   6.520   9.137 -0.1689  0.8368 -0.1840
  104OSM   H13F10647   4.266   6.473   9.147  0.6151 -1.0255 -0.5691
  104OSM   H13G10648   4.431   6.450   9.079 -1.1092  0.2074 -0.4819
  104OSM   C14F10649   4.360   6.656   9.063 -0.3369 -0.2760 -0.3882
  104OSM   H14F10650   4.437   6.729   9.096 -2.2929  1.8369 -0.2117
  104OSM   H14G10651   4.263   6.706   9.085  0.7458  1.9166 -0.2407
  104OSM   C15F10652   4.365   6.644   8.908  0.4893  0.2168  0.7184
  104OSM   H15F10653   4.267   6.603   8.874  1.3972 -0.3932 -1.3307
  104OSM   H15G10654   4.444   6.568   8.890 -0.7653 -0.7866 -0.9147
  104OSM   C16F10655   4.395   6.784   8.850  0.8153 -0.2302  0.5222
  104OSM   H16F10656   4.474   6.843   8.903  0.6415  2.6658 -2.1692
  104OSM   H16G10657   4.302   6.844   8.854  0.5622 -0.6612  1.2447
  104OSM   C17F10658   4.434   6.771   8.703  0.4120 -0.0776 -0.2596
  104OSM   H17F10659   4.350   6.728   8.644  0.1824  2.7291 -2.1529
  104OSM   H17G10660   4.525   6.709   8.690  0.7089 -0.5364  3.1049
  104OSM   C18F10661   4.459   6.906   8.634 -0.4196 -0.3776  0.2540
  104OSM   H18F10662   4.378   6.979   8.658 -0.5434 -0.8821  1.3955
  104OSM   H18G10663   4.462   6.889   8.524 -1.2086 -1.9594  0.4542
  104OSM   H18H10664   4.556   6.943   8.672 -0.0333  0.0283 -1.0783
  105OSM      N10665   5.022   4.343  11.173 -1.2187  0.7335  0.2859
  105OSM    C1510666   5.168   4.324  11.132 -0.7478 -0.9536 -1.1956
  105OSM   H15A10667   5.202   4.222  11.122  2.3858 -0.2162  0.4587
  105OSM   H15B10668   5.242   4.370  11.197 -0.3004 -2.9010 -0.2563
  105OSM   H15C10669   5.186   4.368  11.035 -1.0258  2.4363  0.1311
  105OSM    C1410670   5.000   4.265  11.298 -0.1588  0.2494 -0.1976
  105OSM   H14A10671   5.052   4.297  11.387 -1.8055 -0.6359  1.1677
  105OSM   H14B10672   5.024   4.160  11.291 -0.5700  0.0930  0.6026
  105OSM   H14C10673   4.896   4.263  11.330 -0.4371  1.8683 -0.9110
  105OSM    C1310674   4.992   4.489  11.193 -0.4215  0.0022 -0.4347
  105OSM   H13A10675   5.036   4.526  11.284  2.2790 -1.2915 -1.1046
  105OSM   H13B10676   4.887   4.495  11.219 -0.0112  1.6245  1.0081
  105OSM   H13C10677   5.010   4.552  11.107 -3.7716  3.2628  0.9978
  105OSM    C1210678   4.929   4.284  11.071 -0.7136  0.7026  0.3622
  105OSM   H12A10679   4.828   4.269  11.107 -1.3963  0.0621 -1.6622
  105OSM   H12B10680   4.971   4.191  11.036 -1.3001  0.8171 -0.6831
  105OSM    C1110681   4.919   4.355  10.930 -0.1898  0.8956 -0.3004
  105OSM   H11A10682   4.852   4.289  10.871 -0.0742 -1.1810  1.7390
  105OSM   H11B10683   5.021   4.340  10.889  0.7205 -1.1203  2.4043
  105OSM      P10684   4.736   4.541  10.947 -0.3603  0.0086 -0.3693
  105OSM    O1310685   4.667   4.473  11.060 -0.0953  0.2149 -0.1057
  105OSM    O1410686   4.736   4.689  10.955 -0.4109 -0.4614 -0.0138
  105OSM    O1110687   4.673   4.498  10.806 -0.5495  0.0010  0.3046
  105OSM    O1210688   4.891   4.496  10.927  0.4851 -0.1790 -0.0048
  105OSM    C1S10689   4.667   4.590  10.698  0.2948  0.3480  0.3245
  105OSM    H1S10690   4.713   4.689  10.719  0.6844  0.4769 -1.0737
  105OSM    H1T10691   4.561   4.614  10.676  0.5218  1.3623  0.2814
  105OSM     NF10692   4.768   4.638  10.475  0.4674  0.0021 -0.4219
  105OSM    HNF10693   4.705   4.662  10.402 -1.7434 -0.4166  1.2486
  105OSM    C2S10694   4.729   4.532  10.564 -0.3593 -0.0104  0.4453
  105OSM    H2S10695   4.821   4.478  10.596  0.0171  0.0158 -0.5563
  105OSM    C3S10696   4.635   4.427  10.508  0.1929 -0.5936 -0.2654
  105OSM    H3S10697   4.547   4.480  10.464  0.7162  0.5667  0.0339
  105OSM     O310698   4.593   4.332  10.608  0.2224  0.4828 -0.3191
  105OSM    HO310699   4.620   4.375  10.690 -0.4761  0.4100 -0.0451
  105OSM    C4S10700   4.699   4.360  10.388 -0.6143  0.9502  1.3335
  105OSM    H4S10701   4.808   4.368  10.378 -0.4098 -2.5768 -0.5941
  105OSM    C5S10702   4.626   4.310  10.284 -0.0726 -0.7373  0.6619
  105OSM    H5S10703   4.518   4.327  10.291  0.2242  0.5100  3.7317
  105OSM    C6S10704   4.683   4.280  10.144 -0.0978  0.0362 -0.3025
  105OSM    H6S10705   4.625   4.340  10.071  3.2416  3.2561 -0.5939
  105OSM    H6T10706   4.674   4.171  10.124 -0.8054 -0.2043  1.2117
  105OSM    C7S10707   4.832   4.314  10.102 -0.2338  0.0485  0.7168
  105OSM    H7S10708   4.909   4.274  10.172  0.7527 -0.0924 -0.4025
  105OSM    H7T10709   4.852   4.423  10.093  3.0404 -0.4667  0.3504
  105OSM    C8S10710   4.866   4.261   9.965 -0.2390  1.0534 -1.0408
  105OSM    H8S10711   4.811   4.168   9.939  2.8680 -0.8067 -1.5358
  105OSM    H8T10712   4.971   4.225   9.954 -0.5930 -0.5764  0.5175
  105OSM    C9S10713   4.823   4.353   9.848  0.6454  0.6947 -0.3108
  105OSM    H9S10714   4.860   4.455   9.872 -1.0546  1.5736 -1.2729
  105OSM    H9T10715   4.712   4.358   9.853  0.6318 -0.1147  0.5641
  105OSM   C10S10716   4.874   4.291   9.715  0.6336  0.2449  0.1229
  105OSM   H10S10717   4.859   4.181   9.707  2.0522  0.0041  0.6003
  105OSM   H10T10718   4.984   4.292   9.703  0.4567 -0.6144 -1.8884
  105OSM   C11S10719   4.815   4.370   9.596  0.2509  1.0269 -0.3209
  105OSM   H11S10720   4.857   4.472   9.611  0.2149  1.0359 -0.2837
  105OSM   H11T10721   4.706   4.380   9.613  0.0107 -0.5482 -0.8164
  105OSM   C12S10722   4.830   4.307   9.458  0.5808  0.0941 -0.1615
  105OSM   H12S10723   4.935   4.277   9.433 -0.0526  0.4255 -3.8711
  105OSM   H12T10724   4.810   4.389   9.386  1.1528 -0.4752 -0.9936
  105OSM   C13S10725   4.720   4.206   9.415 -0.1479  0.3763 -0.2569
  105OSM   H13S10726   4.621   4.256   9.419 -0.4509 -0.2871  0.7786
  105OSM   H13T10727   4.723   4.141   9.505  1.2106  1.3233  0.4190
  105OSM   C14S10728   4.733   4.135   9.277  0.1160 -0.3096 -0.5801
  105OSM   H14S10729   4.667   4.046   9.277  1.0569 -1.1110 -3.5233
  105OSM   H14T10730   4.840   4.106   9.261  0.3568  0.8836 -1.2525
  105OSM   C15S10731   4.702   4.233   9.160  0.0897  0.3470 -0.0122
  105OSM   H15S10732   4.768   4.321   9.181  1.6993  0.5431 -4.7669
  105OSM   H15T10733   4.593   4.251   9.172  0.0621 -0.6339  1.4246
  105OSM   C16S10734   4.737   4.173   9.027 -0.5547 -0.0491 -0.0448
  105OSM   H16S10735   4.680   4.081   9.003 -0.7503  0.1428 -0.3321
  105OSM   H16T10736   4.844   4.146   9.038  0.2255  2.6174 -0.3135
  105OSM   C17S10737   4.726   4.273   8.914 -0.7535  0.0129 -0.0237
  105OSM   H17S10738   4.742   4.218   8.819  0.1519  1.6910 -0.8886
  105OSM   H17T10739   4.810   4.344   8.908 -0.4947 -0.1989  0.8937
  105OSM   C18S10740   4.598   4.353   8.906 -0.0310 -0.1582  0.5067
  105OSM   H18S10741   4.574   4.386   8.803 -0.6224 -0.7046  0.4667
  105OSM   H18T10742   4.606   4.436   8.979 -2.2327  0.0718  0.5551
  105OSM   H18U10743   4.509   4.295   8.940 -1.0806  1.3183  0.4111
  105OSM    C1F10744   4.861   4.725  10.515  0.2343  0.7702 -0.1105
  105OSM     OF10745   4.942   4.687  10.602 -0.4347  0.4783 -0.1201
  105OSM    C2F10746   4.867   4.855  10.445  0.2774 -0.0617 -0.0626
  105OSM    H2F10747   4.819   4.939  10.499  1.6539 -0.4970  1.9496
  105OSM    H2G10748   4.809   4.836  10.352 -1.2106  0.4815  0.7204
  105OSM    C3F10749   5.014   4.898  10.412 -0.4078 -0.4676 -0.2300
  105OSM    H3F10750   5.043   4.844  10.319 -0.5752  0.4660 -0.8372
  105OSM    H3G10751   5.076   4.889  10.504 -0.0028  1.6351 -0.2492
  105OSM    C4F10752   5.005   5.047  10.365  0.5756 -0.3035 -0.1075
  105OSM    H4F10753   5.113   5.070  10.351  0.5426 -0.2513 -0.2714
  105OSM    H4G10754   4.959   5.100  10.451 -0.7429 -2.2434  0.4585
  105OSM    C5F10755   4.927   5.077  10.235 -0.2837 -0.1198  0.1303
  105OSM    H5F10756   4.934   5.186  10.216 -0.2598 -0.3985 -1.6487
  105OSM    H5G10757   4.819   5.053  10.244 -0.1334 -1.2966 -0.8741
  105OSM    C6F10758   4.971   4.999  10.114 -0.3901  0.1910  0.2340
  105OSM    H6F10759   4.981   4.891  10.138  1.8717  0.5388  1.1492
  105OSM    H6G10760   5.070   5.044  10.091 -1.5818  1.6014 -2.6987
  105OSM    C7F10761   4.886   5.024   9.987  0.3231  0.0443 -0.5383
  105OSM    H7F10762   4.894   5.129   9.951 -1.3202  0.4499  0.1751
  105OSM    H7G10763   4.776   5.012   9.998 -0.0191  1.0135 -2.4083
  105OSM    C8F10764   4.947   4.946   9.868  0.6588 -0.2314 -0.0584
  105OSM    H8F10765   4.874   4.969   9.788 -2.7106  2.2557  3.3991
  105OSM    H8G10766   4.950   4.838   9.893  2.0073  0.1310  1.5572
  105OSM    C9F10767   5.087   4.980   9.829 -0.8708  0.3028 -0.6081
  105OSM    H9F10768   5.163   4.942   9.899  0.5303  1.3734 -1.4765
  105OSM   C10F10769   5.133   5.045   9.719 -0.1777 -1.2177 -0.9885
  105OSM   H10F10770   5.241   5.058   9.701 -0.7416  3.3662 -2.3702
  105OSM   C11F10771   5.052   5.098   9.617  0.2209  0.3549 -0.0391
  105OSM   H11F10772   5.001   5.196   9.628 -1.5731 -0.5768  0.4741
  105OSM   H11G10773   4.966   5.029   9.603  1.1183 -0.5106 -1.5126
  105OSM   C12F10774   5.113   5.116   9.479 -1.0474  0.3695  0.4845
  105OSM   H12F10775   5.190   5.194   9.463  0.7907 -1.8163 -2.5648
  105OSM   H12G10776   5.032   5.124   9.403 -0.1832  0.9511 -0.4113
  105OSM   C13F10777   5.196   4.998   9.434  0.2822 -0.1963  0.1938
  105OSM   H13F10778   5.139   4.903   9.425 -0.6948  0.5624 -3.1120
  105OSM   H13G10779   5.270   4.986   9.516 -1.0607  3.6861  2.1730
  105OSM   C14F10780   5.271   5.013   9.301  0.4884 -0.3058 -0.1542
  105OSM   H14F10781   5.354   4.941   9.291 -0.4530 -1.6744  1.3036
  105OSM   H14G10782   5.326   5.109   9.297  0.1661  0.0157  1.8378
  105OSM   C15F10783   5.173   4.991   9.176  0.1843 -0.2798 -1.3053
  105OSM   H15F10784   5.097   5.071   9.192  1.0366 -0.0504  2.5927
  105OSM   H15G10785   5.124   4.894   9.195 -0.0103 -0.0884 -0.8103
  105OSM   C16F10786   5.259   5.000   9.043  0.0021 -0.1899  0.0074
  105OSM   H16F10787   5.190   4.966   8.962  0.3666  0.9206 -0.7857
  105OSM   H16G10788   5.344   4.931   9.065  0.2367  0.5368  1.5078
  105OSM   C17F10789   5.324   5.138   9.018  0.3826  0.2433 -0.0183
  105OSM   H17F10790   5.395   5.175   9.095  1.2390  1.8732 -1.5049
  105OSM   H17G10791   5.237   5.207   9.023 -0.8006 -1.2679  0.7330
  105OSM   C18F10792   5.386   5.143   8.878 -0.1269 -0.1543 -0.0982
  105OSM   H18F10793   5.300   5.135   8.809  0.2102 -0.0192 -0.5349
  105OSM   H18G10794   5.449   5.055   8.851  0.9111  0.0691  1.4405
  105OSM   H18H10795   5.443   5.236   8.859 -0.6622  0.5281  1.4243
  106OSM      N10796   6.314   3.768  10.834  0.2287 -0.2159 -0.0509
  106OSM    C1510797   6.444   3.693  10.853  0.0439  0.5228  0.2266
  106OSM   H15A10798   6.440   3.590  10.822  1.0130  0.3648  0.5708
  106OSM   H15B10799   6.477   3.686  10.956  0.4115 -2.5273  0.0088
  106OSM   H15C10800   6.526   3.743  10.804  0.4299 -0.5222 -0.2173
  106OSM    C1410801   6.200   3.679  10.883  0.6148 -0.1383  0.3270
  106OSM   H14A10802   6.181   3.599  10.812 -1.0232 -2.0343  2.7283
  106OSM   H14B10803   6.117   3.736  10.920 -0.0709 -1.2433  0.5497
  106OSM   H14C10804   6.227   3.627  10.974 -0.1979  0.1819  0.7581
  106OSM    C1310805   6.316   3.888  10.922  0.6224  0.5984  0.0846
  106OSM   H13A10806   6.228   3.949  10.910  1.0714  0.9197 -1.9758
  106OSM   H13B10807   6.411   3.940  10.915  2.1333 -1.9247  0.4695
  106OSM   H13C10808   6.303   3.862  11.026  0.0903  0.8566  0.0857
  106OSM    C1210809   6.296   3.808  10.689  0.0737  1.1300  0.2144
  106OSM   H12A10810   6.366   3.888  10.671 -0.5103  1.5187 -0.3786
  106OSM   H12B10811   6.196   3.847  10.681 -0.1031  0.4119 -1.6158
  106OSM    C1110812   6.308   3.698  10.580 -0.9964  0.1164 -0.1208
  106OSM   H11A10813   6.401   3.642  10.602 -0.4695  0.7257 -0.7656
  106OSM   H11B10814   6.320   3.758  10.488 -3.3074  1.3233  0.2716
  106OSM      P10815   6.207   3.462  10.580 -0.3114 -0.1619 -0.2873
  106OSM    O1310816   6.300   3.424  10.691  0.6070  0.2867  0.3830
  106OSM    O1410817   6.072   3.400  10.578 -0.4577 -0.3979  0.7478
  106OSM    O1110818   6.280   3.440  10.447 -0.2817 -0.5183  0.5691
  106OSM    O1210819   6.187   3.619  10.572  0.7101  0.1739 -0.1985
  106OSM    C1S10820   6.223   3.371  10.333 -0.1200  0.0423  0.2286
  106OSM    H1S10821   6.164   3.438  10.267 -2.1067 -1.3939  0.4436
  106OSM    H1T10822   6.167   3.281  10.366 -0.7029  0.7075  1.0837
  106OSM     NF10823   6.286   3.306  10.106  0.7894 -0.8013 -0.0601
  106OSM    HNF10824   6.271   3.213  10.072  0.0790 -0.3164 -1.1326
  106OSM    C2S10825   6.339   3.326  10.239  0.0022 -0.5571  0.1905
  106OSM    H2S10826   6.412   3.409  10.228 -0.8864  0.1709 -0.3563
  106OSM    C3S10827   6.406   3.207  10.305  0.7979 -1.3875 -0.2436
  106OSM    H3S10828   6.332   3.128  10.327 -0.3014 -0.4210 -0.3785
  106OSM     O310829   6.456   3.237  10.438 -0.5748 -0.6501  0.5004
  106OSM    HO310830   6.417   3.325  10.446  1.4119  0.3327  0.0555
  106OSM    C4S10831   6.526   3.161  10.228 -0.7074  0.2072 -0.0021
  106OSM    H4S10832   6.616   3.224  10.230  0.0095 -0.7612 -0.5720
  106OSM    C5S10833   6.533   3.043  10.161  0.2372  0.2187  0.0051
  106OSM    H5S10834   6.455   2.966  10.170 -0.7341  1.1218 -0.4218
  106OSM    C6S10835   6.648   2.995  10.090  0.5072  0.4062 -0.4825
  106OSM    H6S10836   6.650   2.884  10.083  0.7665  0.2661  1.3170
  106OSM    H6T10837   6.747   3.008  10.139  1.3576 -1.3835 -1.5973
  106OSM    C7S10838   6.653   3.048   9.944 -0.0138 -0.1373 -0.7709
  106OSM    H7S10839   6.740   2.997   9.897 -0.3550  0.3942 -2.0248
  106OSM    H7T10840   6.676   3.157   9.939 -0.2618 -0.0147  0.3756
  106OSM    C8S10841   6.524   3.019   9.868 -0.5555  0.2873 -0.0424
  106OSM    H8S10842   6.443   3.080   9.914  0.1448  1.9245 -0.8568
  106OSM    H8T10843   6.493   2.914   9.883 -1.3526  0.5974  0.6074
  106OSM    C9S10844   6.546   3.041   9.715  0.1659 -0.4409 -1.2194
  106OSM    H9S10845   6.617   2.968   9.670 -0.3507 -1.1988 -0.8368
  106OSM    H9T10846   6.580   3.146   9.701  0.2611  0.0019  1.7791
  106OSM   C10S10847   6.410   3.042   9.640  0.5674  0.0926  0.0441
  106OSM   H10S10848   6.340   3.113   9.689  0.1354 -1.1853  1.3516
  106OSM   H10T10849   6.368   2.939   9.644  0.1798  0.2805  1.1626
  106OSM   C11S10850   6.440   3.083   9.497  0.6397  0.7764  0.8362
  106OSM   H11S10851   6.521   3.015   9.463  0.0397  0.6984 -0.4727
  106OSM   H11T10852   6.482   3.185   9.503  1.4971  0.5221 -0.5044
  106OSM   C12S10853   6.311   3.082   9.406 -0.1416  0.3649 -0.0497
  106OSM   H12S10854   6.253   3.164   9.454  0.9544  0.4623  1.1747
  106OSM   H12T10855   6.255   2.987   9.416 -1.2134  1.1491  1.9827
  106OSM   C13S10856   6.355   3.116   9.257  0.0062  0.4029 -0.0445
  106OSM   H13S10857   6.452   3.064   9.239 -0.2009 -0.5267  1.3296
  106OSM   H13T10858   6.356   3.226   9.243  0.6210  0.4190  0.0787
  106OSM   C14S10859   6.250   3.076   9.155 -0.1115  0.4040  0.4079
  106OSM   H14S10860   6.155   3.134   9.159  0.7110  2.1609 -2.5938
  106OSM   H14T10861   6.220   2.972   9.179  1.3968  0.3763  2.3980
  106OSM   C15S10862   6.322   3.079   9.010  0.5595 -0.0795 -0.1644
  106OSM   H15S10863   6.417   3.021   9.007  0.4898 -0.2462  0.5582
  106OSM   H15T10864   6.351   3.182   8.982  3.1870 -1.2878 -2.3708
  106OSM   C16S10865   6.214   3.042   8.903 -0.8528 -0.1085  0.3630
  106OSM   H16S10866   6.131   3.110   8.931 -1.0721 -1.5302  3.7220
  106OSM   H16T10867   6.186   2.934   8.908 -2.8131  0.2532 -1.4366
  106OSM   C17S10868   6.263   3.077   8.762 -0.3667 -0.1243 -1.0723
  106OSM   H17S10869   6.364   3.041   8.734  1.5780  2.9588  1.3550
  106OSM   H17T10870   6.281   3.186   8.774 -0.2653  0.1107 -2.9828
  106OSM   C18S10871   6.169   3.041   8.646  0.4196  0.3856  0.7723
  106OSM   H18S10872   6.060   3.060   8.660  0.0171  0.3343 -1.8412
  106OSM   H18T10873   6.171   2.934   8.618  0.6262  0.5115  0.2986
  106OSM   H18U10874   6.200   3.111   8.566 -0.6454 -0.7603 -0.7052
  106OSM    C1F10875   6.254   3.406  10.020 -0.3514  0.0082 -0.2714
  106OSM     OF10876   6.248   3.523  10.056  0.1559 -0.5360 -0.9101
  106OSM    C2F10877   6.240   3.367   9.875 -0.3685  0.5205 -0.2262
  106OSM    H2F10878   6.147   3.307   9.865  1.4184 -2.6456  0.4925
  106OSM    H2G10879   6.319   3.297   9.841 -1.4388  0.4588 -2.7558
  106OSM    C3F10880   6.241   3.483   9.771  0.7663 -0.2017 -0.1940
  106OSM    H3F10881   6.338   3.537   9.772  0.3479  0.5494  1.1373
  106OSM    H3G10882   6.157   3.553   9.785 -2.1195 -3.4540  0.2518
  106OSM    C4F10883   6.218   3.427   9.629  0.3057  0.1848  0.5731
  106OSM    H4F10884   6.124   3.368   9.642  0.4221 -0.0928  0.1644
  106OSM    H4G10885   6.303   3.364   9.597 -0.2679 -0.6424  0.6446
  106OSM    C5F10886   6.207   3.540   9.521  0.1096  0.1257 -0.8979
  106OSM    H5F10887   6.305   3.592   9.518  0.1977 -0.0292 -0.6598
  106OSM    H5G10888   6.128   3.608   9.562  1.4945  0.8294  0.7149
  106OSM    C6F10889   6.163   3.486   9.386 -0.0784 -0.4134  0.0577
  106OSM    H6F10890   6.054   3.464   9.395 -0.0310 -0.9462 -0.6089
  106OSM    H6G10891   6.225   3.396   9.364  0.5971 -0.3792  1.6577
  106OSM    C7F10892   6.186   3.581   9.265  0.7461  0.6532 -0.1559
  106OSM    H7F10893   6.170   3.688   9.292 -1.2109  0.2943  0.2620
  106OSM    H7G10894   6.109   3.551   9.191 -0.2728 -0.9771  1.4706
  106OSM    C8F10895   6.322   3.554   9.194  0.4117 -0.0520 -0.0674
  106OSM    H8F10896   6.324   3.443   9.191 -0.8119 -0.0741 -0.6427
  106OSM    H8G10897   6.403   3.576   9.267 -0.8441 -0.6324  1.5586
  106OSM    C9F10898   6.363   3.617   9.070  0.2050 -0.1743  0.3049
  106OSM    H9F10899   6.393   3.719   9.096 -1.1882  0.3412 -0.0227
  106OSM   C10F10900   6.342   3.573   8.940  0.1162 -0.2623  0.4542
  106OSM   H10F10901   6.370   3.644   8.861 -2.5121 -1.8072 -2.0531
  106OSM   C11F10902   6.268   3.446   8.896  0.4577 -0.0388  0.2561
  106OSM   H11F10903   6.222   3.383   8.975 -2.6407 -0.6046 -1.8540
  106OSM   H11G10904   6.340   3.397   8.828  0.5537  2.2462 -1.4015
  106OSM   C12F10905   6.137   3.489   8.825 -0.6888 -0.3679 -0.2713
  106OSM   H12F10906   6.175   3.563   8.752  0.8118  1.0897  1.8561
  106OSM   H12G10907   6.058   3.542   8.884  1.5584 -0.3718  3.0198
  106OSM   C13F10908   6.075   3.377   8.749 -0.1998 -0.5023 -1.1290
  106OSM   H13F10909   6.021   3.309   8.819  0.9515  1.0635  1.4136
  106OSM   H13G10910   6.150   3.312   8.698  0.2331  0.8547 -2.2752
  106OSM   C14F10911   5.973   3.426   8.642  0.0995 -0.8531  0.1439
  106OSM   H14F10912   6.012   3.519   8.596  0.8828 -0.7177  1.0503
  106OSM   H14G10913   5.873   3.452   8.681 -0.2213 -1.5495 -0.2070
  106OSM   C15F10914   5.961   3.325   8.523  0.3996  0.0298  0.2067
  106OSM   H15F10915   5.922   3.228   8.562 -1.2668 -0.9475 -3.4492
  106OSM   H15G10916   6.065   3.309   8.488  0.1768 -1.6757  0.2205
  106OSM   C16F10917   5.875   3.373   8.400 -0.6871  0.1655  0.5999
  106OSM   H16F10918   5.927   3.447   8.335 -1.4697  0.2760  0.0908
  106OSM   H16G10919   5.780   3.410   8.443 -1.3590 -0.1097 -0.5766
  106OSM   C17F10920   5.854   3.257   8.301  0.5627  0.2659  0.0603
  106OSM   H17F10921   5.941   3.226   8.239  1.2107  0.1544  1.0015
  106OSM   H17G10922   5.781   3.292   8.225  0.2352 -1.3199 -0.3926
  106OSM   C18F10923   5.787   3.138   8.368  0.0934 -0.1347 -0.0297
  106OSM   H18F10924   5.694   3.169   8.421 -0.1567  1.7643 -1.4487
  106OSM   H18G10925   5.862   3.082   8.427  1.0101  0.1662 -0.8769
  106OSM   H18H10926   5.763   3.075   8.280  1.0804 -1.3909  0.5812
  107OSM      N10927   1.188   6.471  10.820  0.4380  0.1533 -0.2816
  107OSM    C1510928   1.067   6.408  10.875 -0.7376 -0.2850  0.0119
  107OSM   H15A10929   0.980   6.471  10.878 -0.5105  0.1705 -1.8570
  107OSM   H15B10930   1.085   6.367  10.973  2.5337 -0.2320 -0.4411
  107OSM   H15C10931   1.032   6.327  10.812  0.7753  0.6324 -2.1176
  107OSM    C1410932   1.202   6.610  10.880 -0.1672 -0.6918 -0.3445
  107OSM   H14A10933   1.293   6.656  10.845 -0.7815 -0.2396 -1.3813
  107OSM   H14B10934   1.192   6.619  10.987  0.3058  0.7844 -0.4114
  107OSM   H14C10935   1.132   6.679  10.837  0.3339  0.0505  0.0139
  107OSM    C1310936   1.306   6.387  10.850 -0.1313  0.1412  0.0789
  107OSM   H13A10937   1.393   6.437  10.809 -0.6987  0.2716 -1.0005
  107OSM   H13B10938   1.298   6.295  10.795 -1.4574  1.9242 -2.9598
  107OSM   H13C10939   1.330   6.378  10.955  1.8858  1.7603 -0.1675
  107OSM    C1210940   1.181   6.473  10.674  0.1106  0.0745  0.1183
  107OSM   H12A10941   1.087   6.517  10.647 -0.2986 -0.1551  1.1395
  107OSM   H12B10942   1.171   6.369  10.646 -2.4176  0.9673 -2.8819
  107OSM    C1110943   1.294   6.539  10.589  0.3970 -0.3629 -0.1238
  107OSM   H11A10944   1.276   6.519  10.481  0.6686 -1.5482  0.0343
  107OSM   H11B10945   1.392   6.493  10.610  0.6028 -2.0862 -4.0069
  107OSM      P10946   1.191   6.779  10.562 -0.3251  0.1164 -0.0977
  107OSM    O1310947   1.082   6.700  10.495  0.5952 -0.2958 -0.1846
  107OSM    O1410948   1.164   6.889  10.656 -0.1426 -0.2670 -0.5017
  107OSM    O1110949   1.268   6.841  10.439 -0.4876  0.4178 -0.4210
  107OSM    O1210950   1.296   6.678  10.631 -0.7255 -0.4357 -0.0151
  107OSM    C1S10951   1.308   6.772  10.317 -0.1758  0.4647 -0.1470
  107OSM    H1S10952   1.230   6.704  10.275  1.5704 -0.8360 -1.4303
  107OSM    H1T10953   1.394   6.706  10.341 -0.8811 -0.7369 -0.7842
  107OSM     NF10954   1.381   6.760  10.081  0.3783  0.4410  0.2021
  107OSM    HNF10955   1.476   6.753  10.050  0.6673  0.7800  0.9804
  107OSM    C2S10956   1.346   6.851  10.189 -0.0500 -0.7899  0.5320
  107OSM    H2S10957   1.256   6.910  10.164  1.0318  0.8445  0.3012
  107OSM    C3S10958   1.461   6.953  10.228  0.2740 -0.2386 -0.4791
  107OSM    H3S10959   1.547   6.894  10.266 -0.9704 -1.7230  0.1734
  107OSM     O310960   1.424   7.034  10.345  0.4636  0.4721 -0.1915
  107OSM    HO310961   1.350   6.988  10.385 -0.7246  1.9303 -0.6175
  107OSM    C4S10962   1.515   7.036  10.114  0.0245 -0.7672  0.0806
  107OSM    H4S10963   1.609   6.996  10.073  0.6654  1.6748 -1.0148
  107OSM    C5S10964   1.449   7.141  10.057 -0.1106 -0.2885  0.5227
  107OSM    H5S10965   1.358   7.171  10.111 -1.1279 -2.0001 -0.1291
  107OSM    C6S10966   1.488   7.219   9.933  0.0802  0.0441  0.0139
  107OSM    H6S10967   1.543   7.313   9.958 -0.2097  0.1538  0.2455
  107OSM    H6T10968   1.395   7.247   9.879  0.0401 -0.6862 -0.3088
  107OSM    C7S10969   1.589   7.142   9.838 -0.3773  0.2049 -0.4031
  107OSM    H7S10970   1.537   7.050   9.804 -1.2606  0.5130  0.0669
  107OSM    H7T10971   1.681   7.112   9.893  0.3804  0.2729 -1.5981
  107OSM    C8S10972   1.630   7.233   9.719 -0.4277  0.0533  0.5759
  107OSM    H8S10973   1.685   7.325   9.749  1.8399 -0.1331 -2.5731
  107OSM    H8T10974   1.539   7.273   9.669  0.6211  2.5703  0.5275
  107OSM    C9S10975   1.707   7.161   9.618  0.0386  0.3054  0.1728
  107OSM    H9S10976   1.650   7.079   9.570 -0.2106  0.3302  0.4284
  107OSM    H9T10977   1.800   7.125   9.667  1.5033  3.4330 -0.0321
  107OSM   C10S10978   1.737   7.253   9.498 -0.3878  0.0454 -0.1148
  107OSM   H10S10979   1.817   7.322   9.531  0.7090 -0.8488 -0.8039
  107OSM   H10T10980   1.658   7.322   9.463  1.1717  1.9649 -0.0279
  107OSM   C11S10981   1.783   7.180   9.367  0.0888  0.3780 -0.3458
  107OSM   H11S10982   1.691   7.141   9.319 -0.7588  3.1367 -1.1560
  107OSM   H11T10983   1.853   7.096   9.383 -1.1433 -0.5561  0.3671
  107OSM   C12S10984   1.835   7.278   9.258  0.1178 -0.1016  0.2115
  107OSM   H12S10985   1.937   7.304   9.295 -0.6412 -0.6694  2.9283
  107OSM   H12T10986   1.770   7.369   9.260 -0.9780 -0.8518  2.6279
  107OSM   C13S10987   1.857   7.215   9.127  0.2090 -0.0434 -0.0798
  107OSM   H13S10988   1.754   7.190   9.092  0.1689 -0.1183  0.0894
  107OSM   H13T10989   1.902   7.114   9.141  0.1519  0.0891  1.1563
  107OSM   C14S10990   1.940   7.298   9.027  0.3603  0.6451  0.1133
  107OSM   H14S10991   2.048   7.299   9.053 -0.0111  0.4687  1.7741
  107OSM   H14T10992   1.915   7.406   9.036  3.0765  1.2725  1.4320
  107OSM   C15S10993   1.927   7.254   8.881  0.3172 -0.1612 -0.0403
  107OSM   H15S10994   1.818   7.257   8.859 -0.0542  1.6746  1.6810
  107OSM   H15T10995   1.976   7.154   8.878  1.2060  0.2208  0.8765
  107OSM   C16S10996   2.008   7.333   8.773 -0.0720 -0.2020 -0.7824
  107OSM   H16S10997   2.054   7.257   8.706 -0.1892  0.9652 -2.2646
  107OSM   H16T10998   2.081   7.398   8.825 -0.3989  0.3566 -1.0061
  107OSM   C17S10999   1.923   7.414   8.678  0.6406  0.4958  0.2901
  107OSM   H17S11000   1.997   7.489   8.643  1.3838  0.2839  1.3662
  107OSM   H17T11001   1.857   7.475   8.743  1.3826  0.3511  1.1898
  107OSM   C18S11002   1.844   7.343   8.563  0.2758 -0.0011  0.0366
  107OSM   H18S11003   1.770   7.271   8.604  1.3679 -0.3116  1.5355
  107OSM   H18T11004   1.910   7.286   8.495 -1.0912  0.5100 -1.7901
  107OSM   H18U11005   1.792   7.418   8.499 -1.7376 -0.8193  0.6407
  107OSM    C1F11006   1.291   6.675  10.026  0.3949 -0.1384 -0.3733
  107OSM     OF11007   1.166   6.690  10.028 -0.0354  0.1463  0.2200
  107OSM    C2F11008   1.345   6.556   9.954 -0.7362  0.4909 -0.0779
  107OSM    H2F11009   1.405   6.500  10.029  0.2402  2.3341  0.5934
  107OSM    H2G11010   1.407   6.586   9.867  0.1137 -3.0042 -0.8377
  107OSM    C3F11011   1.237   6.471   9.890 -0.0168  0.3878  0.2048
  107OSM    H3F11012   1.148   6.530   9.859 -1.2400 -0.5239  1.8476
  107OSM    H3G11013   1.178   6.407   9.958 -1.2084  2.0606  0.8058
  107OSM    C4F11014   1.298   6.381   9.782 -0.5097  0.3972 -0.5194
  107OSM    H4F11015   1.397   6.344   9.817 -0.2249  2.2942  0.8520
  107OSM    H4G11016   1.311   6.439   9.689 -0.9512  3.7085  1.3314
  107OSM    C5F11017   1.217   6.257   9.752  0.0048 -0.5937 -0.8248
  107OSM    H5F11018   1.114   6.286   9.725  0.2294 -1.1401 -2.4183
  107OSM    H5G11019   1.218   6.187   9.838 -1.1448 -0.2259 -0.5028
  107OSM    C6F11020   1.284   6.175   9.649 -1.1140  0.4295 -0.0422
  107OSM    H6F11021   1.247   6.071   9.662  0.8917 -0.2716  0.4359
  107OSM    H6G11022   1.392   6.166   9.673 -0.3176 -0.8858 -3.5028
  107OSM    C7F11023   1.261   6.221   9.497  0.6470 -0.0702  0.7179
  107OSM    H7F11024   1.335   6.300   9.473  1.2860 -1.0052 -0.5148
  107OSM    H7G11025   1.154   6.250   9.488  0.2593 -1.1215  1.6372
  107OSM    C8F11026   1.285   6.110   9.393 -0.2913 -0.6386  0.3623
  107OSM    H8F11027   1.212   6.028   9.413 -2.2058  0.6595 -1.0044
  107OSM    H8G11028   1.386   6.065   9.407 -0.5316 -0.7083  2.2400
  107OSM    C9F11029   1.257   6.174   9.254  0.3331  0.8376 -0.7558
  107OSM    H9F11030   1.203   6.269   9.265  1.1846  1.3368 -0.7901
  107OSM   C10F11031   1.299   6.131   9.130  0.4827  0.2071  0.5841
  107OSM   H10F11032   1.271   6.176   9.033 -2.6060 -3.2352 -0.3503
  107OSM   C11F11033   1.367   6.000   9.101 -0.0953  0.0608 -0.5412
  107OSM   H11F11034   1.310   5.915   9.143 -2.5844  0.7270 -2.3669
  107OSM   H11G11035   1.465   5.996   9.154 -1.0530  2.4346  1.6566
  107OSM   C12F11036   1.390   5.959   8.954  0.4474 -0.3552 -0.2386
  107OSM   H12F11037   1.477   5.890   8.944  0.0200 -1.1468  1.2458
  107OSM   H12G11038   1.425   6.052   8.903  0.8506 -0.2138  0.2778
  107OSM   C13F11039   1.279   5.889   8.889 -0.2818 -0.0601  0.3410
  107OSM   H13F11040   1.195   5.960   8.873  0.3576  0.6350  0.0418
  107OSM   H13G11041   1.232   5.814   8.958 -1.2338 -0.2271 -0.4635
  107OSM   C14F11042   1.323   5.810   8.762 -0.2273  0.2880  0.2540
  107OSM   H14F11043   1.238   5.775   8.698  1.0664  0.4098 -1.6290
  107OSM   H14G11044   1.375   5.718   8.797 -1.2864 -0.9004 -1.1252
  107OSM   C15F11045   1.406   5.898   8.664 -0.1429  0.5379 -0.5353
  107OSM   H15F11046   1.501   5.919   8.717  0.6672 -2.0389 -0.8172
  107OSM   H15G11047   1.348   5.989   8.638 -0.9965  0.0309 -0.4477
  107OSM   C16F11048   1.448   5.808   8.549 -0.4450 -0.3538  0.4517
  107OSM   H16F11049   1.466   5.705   8.587  2.8783 -0.0767 -0.0073
  107OSM   H16G11050   1.550   5.837   8.515 -0.9351  0.9281  0.0124
  107OSM   C17F11051   1.349   5.825   8.433 -0.7074  0.7452 -0.9466
  107OSM   H17F11052   1.373   5.920   8.379  3.4762  0.6518  0.4191
  107OSM   H17G11053   1.247   5.831   8.477 -1.0766 -3.1771 -0.9047
  107OSM   C18F11054   1.358   5.700   8.352  0.0096  0.2970  1.0308
  107OSM   H18F11055   1.456   5.710   8.300  0.2496  0.3247  1.4868
  107OSM   H18G11056   1.277   5.686   8.276  0.5394 -0.2562  0.5601
  107OSM   H18H11057   1.361   5.615   8.423 -1.9887  0.3399  1.2262
  108OSM      N11058   2.788   4.631  11.151  0.0803  0.1209  0.1827
  108OSM    C1511059   2.849   4.768  11.175 -0.7515  0.1152 -0.6715
  108OSM   H15A11060   2.954   4.772  11.152 -0.7037 -0.2271 -0.5194
  108OSM   H15B11061   2.841   4.786  11.281 -1.2436 -0.1739 -0.6570
  108OSM   H15C11062   2.801   4.841  11.110 -1.8066 -1.8955 -2.2669
  108OSM    C1411063   2.851   4.523  11.228 -0.0193  0.6894  0.2531
  108OSM   H14A11064   2.795   4.433  11.207  0.5286  0.4754 -0.3586
  108OSM   H14B11065   2.842   4.540  11.334 -0.4571  2.2115 -0.0037
  108OSM   H14C11066   2.950   4.502  11.189 -0.1071  1.4910 -0.4510
  108OSM    C1311067   2.641   4.636  11.184  0.1888  0.3987  0.4942
  108OSM   H13A11068   2.605   4.534  11.178 -2.0944  1.2230 -1.1784
  108OSM   H13B11069   2.585   4.690  11.109  1.6707  1.3121  0.0016
  108OSM   H13C11070   2.626   4.678  11.282 -1.5998 -1.2402  0.9874
  108OSM    C1211071   2.792   4.595  11.000  0.1504  0.6544  0.2461
  108OSM   H12A11072   2.721   4.664  10.956 -0.3224 -0.0008 -0.0254
  108OSM   H12B11073   2.755   4.494  10.994  1.0952  0.2590  0.8721
  108OSM    C1111074   2.930   4.611  10.923  0.5698 -0.0557  0.0465
  108OSM   H11A11075   2.947   4.721  10.926 -1.4353  0.2699  2.1911
  108OSM   H11B11076   2.909   4.584  10.817 -0.1076  2.6754 -0.6124
  108OSM      P11077   3.070   4.397  10.967  0.3090 -0.2969 -0.1132
  108OSM    O1311078   3.186   4.359  11.055 -0.2633  0.5469 -1.0098
  108OSM    O1411079   2.945   4.328  10.987 -0.2125  1.1011  0.3751
  108OSM    O1111080   3.112   4.370  10.818  0.2985 -0.0635  0.4065
  108OSM    O1211081   3.048   4.547  10.979 -0.0813 -0.1593 -0.1481
  108OSM    C1S11082   3.025   4.281  10.740 -0.0215  0.4677 -0.0861
  108OSM    H1S11083   2.916   4.293  10.755 -0.3735  0.1705 -2.1286
  108OSM    H1T11084   3.052   4.175  10.757  0.3521  0.3230 -1.4640
  108OSM     NF11085   2.961   4.222  10.509  0.5004  0.4749 -0.0014
  108OSM    HNF11086   3.018   4.148  10.473  1.2435 -0.4698  2.8141
  108OSM    C2S11087   3.037   4.316  10.590 -0.5878 -0.3085 -0.0121
  108OSM    H2S11088   2.979   4.410  10.574 -1.3952 -0.3306  2.3756
  108OSM    C3S11089   3.191   4.342  10.543  0.3043  0.4436  0.3924
  108OSM    H3S11090   3.238   4.241  10.542  0.0414  0.2905 -1.5361
  108OSM     O311091   3.276   4.430  10.616 -0.4309 -0.2984 -0.4574
  108OSM    HO311092   3.239   4.418  10.704  1.9296 -0.2452  0.6089
  108OSM    C4S11093   3.185   4.384  10.401 -0.2301 -0.4042  0.0666
  108OSM    H4S11094   3.114   4.461  10.366  1.0288  0.2934 -1.0841
  108OSM    C5S11095   3.251   4.328  10.299 -0.5358 -0.3499  0.7416
  108OSM    H5S11096   3.325   4.250  10.323 -0.7480 -1.3646 -1.6331
  108OSM    C6S11097   3.240   4.369  10.153 -0.0479  0.1055  0.1786
  108OSM    H6S11098   3.154   4.440  10.151  0.0352  0.2265 -2.5358
  108OSM    H6T11099   3.200   4.277  10.106  1.2901  0.2466 -1.2880
  108OSM    C7S11100   3.366   4.416  10.077 -0.1634 -0.3243  0.1995
  108OSM    H7S11101   3.438   4.337  10.107 -0.7310 -0.8497  0.1889
  108OSM    H7T11102   3.389   4.518  10.117 -0.2884 -0.4092  0.4946
  108OSM    C8S11103   3.350   4.420   9.932 -0.0127  0.3308 -0.0104
  108OSM    H8S11104   3.258   4.480   9.919 -0.5694  0.1029  2.3794
  108OSM    H8T11105   3.327   4.314   9.907  3.3867 -0.9244  1.5879
  108OSM    C9S11106   3.463   4.471   9.850  0.7647  0.2235 -0.2485
  108OSM    H9S11107   3.545   4.396   9.852 -1.1184 -1.9489 -0.1377
  108OSM    H9T11108   3.496   4.563   9.902  0.2362  0.3114 -0.0539
  108OSM   C10S11109   3.425   4.521   9.705 -0.2301 -0.1098  0.7585
  108OSM   H10S11110   3.515   4.572   9.664 -0.4133 -0.5891 -0.3023
  108OSM   H10T11111   3.338   4.589   9.708 -0.3036 -0.1283 -0.4506
  108OSM   C11S11112   3.400   4.408   9.608 -0.6175 -1.1623 -0.4300
  108OSM   H11S11113   3.347   4.327   9.663 -1.1310 -2.0945 -2.2239
  108OSM   H11T11114   3.502   4.370   9.583 -0.0042  0.6672 -0.8916
  108OSM   C12S11115   3.314   4.452   9.493  0.6383 -0.3908  0.3831
  108OSM   H12S11116   3.258   4.544   9.519  0.6947  0.2047 -1.4271
  108OSM   H12T11117   3.246   4.370   9.463  1.7599 -1.2011 -0.0175
  108OSM   C13S11118   3.394   4.497   9.365 -0.4798 -0.8930 -0.2269
  108OSM   H13S11119   3.438   4.409   9.314 -1.0714 -0.2824 -1.8415
  108OSM   H13T11120   3.484   4.553   9.397  0.7179 -2.7130 -0.3125
  108OSM   C14S11121   3.315   4.592   9.269 -1.1903 -0.4631  0.0397
  108OSM   H14S11122   3.309   4.681   9.335 -1.4199 -0.5341  0.1164
  108OSM   H14T11123   3.211   4.555   9.257 -1.8048  0.2142  2.6018
  108OSM   C15S11124   3.392   4.618   9.141 -0.2154 -0.0687  0.5324
  108OSM   H15S11125   3.494   4.655   9.163 -0.3874  1.9367 -1.5926
  108OSM   H15T11126   3.333   4.694   9.085  1.8088  0.9935 -0.2604
  108OSM   C16S11127   3.409   4.491   9.052  0.8676 -0.4755 -0.1996
  108OSM   H16S11128   3.312   4.439   9.039  0.7498 -0.4839  0.6373
  108OSM   H16T11129   3.472   4.417   9.106  1.5646  1.0278  1.1436
  108OSM   C17S11130   3.450   4.533   8.910 -0.1799  0.0507 -0.2410
  108OSM   H17S11131   3.526   4.614   8.922  1.3656 -1.4381  0.5002
  108OSM   H17T11132   3.363   4.586   8.866 -0.4631  0.8692  1.2400
  108OSM   C18S11133   3.490   4.419   8.816  0.4668 -0.1105 -0.2225
  108OSM   H18S11134   3.524   4.456   8.716  2.0183  1.8036  0.9414
  108OSM   H18T11135   3.400   4.355   8.808 -2.3902  3.3815  1.2074
  108OSM   H18U11136   3.576   4.363   8.858 -2.1780 -3.0504  1.6795
  108OSM    C1F11137   2.827   4.206  10.513  0.1129  0.1828 -0.6969
  108OSM     OF11138   2.754   4.259  10.597  0.0355 -0.4640 -0.3319
  108OSM    C2F11139   2.760   4.125  10.410 -0.1170 -0.1850  0.3566
  108OSM    H2F11140   2.690   4.054  10.459  1.7553 -2.8319 -0.5690
  108OSM    H2G11141   2.839   4.068  10.357  2.6405  2.5682  1.2510
  108OSM    C3F11142   2.689   4.201  10.296 -0.5319 -0.4293  0.4783
  108OSM    H3F11143   2.750   4.290  10.271 -1.6788  0.9708  2.4395
  108OSM    H3G11144   2.591   4.247  10.323  0.5539  2.6365 -0.4033
  108OSM    C4F11145   2.657   4.105  10.177 -0.1491  0.2940  0.2088
  108OSM    H4F11146   2.555   4.065  10.197 -0.1467 -0.5430 -1.2694
  108OSM    H4G11147   2.730   4.021  10.169 -0.5930 -0.0529 -0.3447
  108OSM    C5F11148   2.660   4.176  10.046 -0.8733  0.8417  0.6456
  108OSM    H5F11149   2.766   4.200  10.020 -0.2637 -0.3921  1.8855
  108OSM    H5G11150   2.614   4.277  10.051  1.9009  2.2686 -0.4692
  108OSM    C6F11151   2.602   4.097   9.927 -0.3020  0.0950 -0.6509
  108OSM    H6F11152   2.494   4.080   9.947 -0.4514  0.5262 -1.0840
  108OSM    H6G11153   2.649   3.997   9.915  0.9913  0.2350  2.4065
  108OSM    C7F11154   2.608   4.178   9.803 -0.6965 -0.1820  0.0962
  108OSM    H7F11155   2.703   4.150   9.754 -1.7184 -1.6520 -1.1394
  108OSM    H7G11156   2.608   4.289   9.809  1.0492 -0.0036 -1.9594
  108OSM    C8F11157   2.503   4.147   9.697  0.1604 -0.2087 -0.3184
  108OSM    H8F11158   2.526   4.226   9.623  2.1722 -0.0320  0.4114
  108OSM    H8G11159   2.404   4.178   9.736  1.0770 -0.6574  2.6320
  108OSM    C9F11160   2.511   4.004   9.649  0.2905  0.3636 -0.1191
  108OSM    H9F11161   2.470   3.926   9.715  0.4802 -1.4883 -2.0899
  108OSM   C10F11162   2.542   3.971   9.524  0.5104  0.0669 -0.2628
  108OSM   H10F11163   2.553   3.866   9.491 -1.7382 -0.1173 -0.6006
  108OSM   C11F11164   2.575   4.061   9.412 -0.7853  0.3029 -0.3237
  108OSM   H11F11165   2.676   4.036   9.372 -0.6002 -0.0749  0.3545
  108OSM   H11G11166   2.579   4.167   9.445 -1.9582  0.9333 -2.0887
  108OSM   C12F11167   2.469   4.067   9.301  0.6630  0.3504 -0.7228
  108OSM   H12F11168   2.369   4.107   9.330 -0.9819 -1.8013 -2.9165
  108OSM   H12G11169   2.451   3.960   9.276  1.3628  0.0359  0.0886
  108OSM   C13F11170   2.487   4.163   9.183  0.3837 -0.7572  0.5661
  108OSM   H13F11171   2.456   4.121   9.085 -0.0662  0.4331  0.1840
  108OSM   H13G11172   2.592   4.200   9.181  0.2752 -0.1550 -3.5599
  108OSM   C14F11173   2.404   4.288   9.200  0.0722 -0.0809  0.0408
  108OSM   H14F11174   2.412   4.335   9.300 -0.9010  0.7335 -0.2462
  108OSM   H14G11175   2.299   4.249   9.195 -0.0137 -0.0052  0.9944
  108OSM   C15F11176   2.422   4.393   9.088 -0.4925  0.4799 -0.0913
  108OSM   H15F11177   2.428   4.335   8.993 -1.8694  0.0761  0.0383
  108OSM   H15G11178   2.524   4.434   9.104 -0.1596 -0.0110 -0.8949
  108OSM   C16F11179   2.303   4.486   9.061 -0.0802  0.6560 -0.0965
  108OSM   H16F11180   2.323   4.552   8.974 -0.7759 -1.0380 -1.6118
  108OSM   H16G11181   2.317   4.550   9.151 -0.6158 -0.2665  0.6661
  108OSM   C17F11182   2.161   4.430   9.051  0.5013 -0.3706 -0.2172
  108OSM   H17F11183   2.087   4.512   9.068 -0.2773 -1.2061  0.5432
  108OSM   H17G11184   2.142   4.358   9.133  2.1320 -0.2486  0.2960
  108OSM   C18F11185   2.141   4.354   8.918 -0.4653 -0.0475 -0.2892
  108OSM   H18F11186   2.193   4.408   8.835 -1.2669 -0.2088 -0.9082
  108OSM   H18G11187   2.031   4.351   8.905 -0.5785  0.7821  0.3488
  108OSM   H18H11188   2.180   4.251   8.931 -1.4165 -0.4736 -0.7246
  109OSM      N11189   3.866   5.327  10.568 -0.2905 -0.0414  0.2970
  109OSM    C1511190   3.912   5.453  10.630 -0.6036  0.2683  0.6248
  109OSM   H15A11191   3.906   5.543  10.570  0.8671  1.6862  2.4868
  109OSM   H15B11192   4.016   5.450  10.659 -0.5771 -1.5449  0.4805
  109OSM   H15C11193   3.856   5.479  10.719  2.0637 -0.2675  2.5830
  109OSM    C1411194   3.913   5.222  10.656  0.1509 -0.3129  0.0430
  109OSM   H14A11195   3.869   5.245  10.752 -1.5173 -1.0176 -0.5131
  109OSM   H14B11196   4.019   5.202  10.656  0.1433 -0.4023 -1.1198
  109OSM   H14C11197   3.862   5.128  10.642 -3.8825  1.6242  0.3120
  109OSM    C1311198   3.720   5.334  10.582 -0.1266  0.6951 -0.4034
  109OSM   H13A11199   3.681   5.324  10.682  0.4169  2.3329 -0.0128
  109OSM   H13B11200   3.666   5.249  10.541 -0.7216  0.3624  1.0029
  109OSM   H13C11201   3.677   5.419  10.532 -0.8192  0.6759  0.1436
  109OSM    C1211202   3.910   5.304  10.426 -0.5281 -0.0763  0.0620
  109OSM   H12A11203   3.859   5.217  10.386 -2.0873  0.5211  0.6478
  109OSM   H12B11204   4.017   5.292  10.431 -0.2835  0.9526 -1.9099
  109OSM    C1111205   3.882   5.417  10.320 -0.3354  0.6262  0.3135
  109OSM   H11A11206   3.772   5.428  10.327 -0.8498 -2.5582 -1.1271
  109OSM   H11B11207   3.894   5.379  10.217 -3.2642  0.4521 -0.0533
  109OSM      P11208   4.106   5.536  10.311 -0.2593 -0.2713 -0.3278
  109OSM    O1311209   4.162   5.674  10.320 -0.2592  0.2232 -0.2102
  109OSM    O1411210   4.157   5.434  10.404  0.0980  0.3645 -0.1747
  109OSM    O1111211   4.104   5.490  10.165  0.3946 -0.4547  0.1535
  109OSM    O1211212   3.951   5.545  10.347  0.7421  0.0496  0.3261
  109OSM    C1S11213   4.098   5.576  10.050 -0.7199 -0.3484  0.7428
  109OSM    H1S11214   4.156   5.669  10.070 -2.3860  0.5839  1.5558
  109OSM    H1T11215   3.995   5.604  10.017 -0.6451 -2.3196 -1.4263
  109OSM     NF11216   4.196   5.590   9.817 -0.3482  0.5683  0.4950
  109OSM    HNF11217   4.129   5.603   9.745 -0.7022 -1.4687  0.3809
  109OSM    C2S11218   4.163   5.497   9.930 -0.2677  1.0104  0.3243
  109OSM    H2S11219   4.259   5.451   9.963 -0.4167  0.0974 -0.4949
  109OSM    C3S11220   4.074   5.377   9.885  0.3362  0.5774  0.6634
  109OSM    H3S11221   3.973   5.416   9.862  0.4568  1.3490  1.4066
  109OSM     O311222   4.059   5.278   9.987  0.0868 -0.5288 -0.0425
  109OSM    HO311223   4.076   5.332  10.065 -2.0129 -0.8667  0.7129
  109OSM    C4S11224   4.130   5.294   9.771  0.2541  0.3050 -0.1792
  109OSM    H4S11225   4.232   5.255   9.787 -0.7101 -1.6825  1.6217
  109OSM    C5S11226   4.074   5.264   9.652 -0.5629  0.0826 -0.2744
  109OSM    H5S11227   3.971   5.297   9.633 -0.1022  0.4281 -2.3433
  109OSM    C6S11228   4.152   5.186   9.549  0.0048 -0.1238 -0.1380
  109OSM    H6S11229   4.097   5.091   9.531 -3.0588  1.9137 -2.7779
  109OSM    H6T11230   4.246   5.144   9.589 -0.0580 -0.7136 -0.5851
  109OSM    C7S11231   4.171   5.266   9.427  0.8152  0.1794  0.5573
  109OSM    H7S11232   4.231   5.359   9.438 -1.0209  1.4773  0.1131
  109OSM    H7T11233   4.071   5.291   9.384 -0.1284 -0.2262  2.4206
  109OSM    C8S11234   4.223   5.179   9.311  0.5036 -0.1883 -0.6778
  109OSM    H8S11235   4.161   5.086   9.312 -2.7722  1.7833 -2.4559
  109OSM    H8T11236   4.329   5.149   9.301  0.7821  1.2661 -2.4729
  109OSM    C9S11237   4.190   5.247   9.171 -0.2889  0.2092  0.1787
  109OSM    H9S11238   4.246   5.342   9.183 -0.1173  0.2157 -0.6197
  109OSM    H9T11239   4.083   5.279   9.165 -0.5038 -0.7390 -3.5770
  109OSM   C10S11240   4.232   5.156   9.057  0.0600  0.5054 -0.4630
  109OSM   H10S11241   4.192   5.053   9.059  0.3986  0.3479  2.3212
  109OSM   H10T11242   4.343   5.148   9.061  0.0882 -0.2704 -2.2253
  109OSM   C11S11243   4.198   5.209   8.920 -1.0840 -0.2273  0.2078
  109OSM   H11S11244   4.088   5.209   8.913 -1.0109 -0.7387 -1.3644
  109OSM   H11T11245   4.244   5.140   8.846  0.0238  1.6277 -0.9209
  109OSM   C12S11246   4.263   5.346   8.894  0.5069 -0.2327 -0.0014
  109OSM   H12S11247   4.368   5.353   8.928  0.0933 -1.6857  1.7400
  109OSM   H12T11248   4.193   5.409   8.953 -1.5580 -0.7398 -1.7737
  109OSM   C13S11249   4.239   5.386   8.746  0.7028  0.2558  0.4743
  109OSM   H13S11250   4.235   5.496   8.755  0.9635  0.3830 -0.8127
  109OSM   H13T11251   4.146   5.345   8.701  1.9216 -2.2882  0.0633
  109OSM   C14S11252   4.352   5.358   8.647 -0.6234  0.0144  0.6405
  109OSM   H14S11253   4.449   5.393   8.690  1.3243  0.9592 -3.8664
  109OSM   H14T11254   4.344   5.430   8.563  0.5283  1.1657  1.4666
  109OSM   C15S11255   4.363   5.225   8.596  1.3437  0.1246  0.6834
  109OSM   H15S11256   4.269   5.210   8.538  0.1702  3.3741  1.5532
  109OSM   H15T11257   4.386   5.155   8.679  0.2986  0.5406  1.3422
  109OSM   C16S11258   4.482   5.207   8.496 -0.0176 -0.1411 -0.0595
  109OSM   H16S11259   4.571   5.199   8.562 -0.2673  0.8186  0.4224
  109OSM   H16T11260   4.493   5.295   8.429 -1.3837 -0.6421 -0.9739
  109OSM   C17S11261   4.475   5.070   8.418  0.2467 -0.3345  0.2038
  109OSM   H17S11262   4.470   4.992   8.497 -0.7361 -0.0580  0.4204
  109OSM   H17T11263   4.576   5.063   8.371  0.5463  2.4393  0.2627
  109OSM   C18S11264   4.375   5.070   8.305  0.1840 -0.0982  0.2685
  109OSM   H18S11265   4.267   5.076   8.330  0.5903 -0.8424  2.3689
  109OSM   H18T11266   4.395   4.980   8.242  2.0296 -0.2153  0.9775
  109OSM   H18U11267   4.386   5.164   8.246 -1.1544 -0.3246 -0.3840
  109OSM    C1F11268   4.301   5.668   9.829 -0.2138 -0.1648  0.7792
  109OSM     OF11269   4.385   5.641   9.914 -0.2534 -0.1361  0.2078
  109OSM    C2F11270   4.316   5.788   9.746  0.3499 -0.0110  0.1357
  109OSM    H2F11271   4.340   5.876   9.810 -1.7087 -0.5520  1.7757
  109OSM    H2G11272   4.215   5.810   9.706 -0.4348 -1.5230  1.1802
  109OSM    C3F11273   4.421   5.769   9.635  0.5356  0.0817 -0.2067
  109OSM    H3F11274   4.391   5.681   9.574 -2.0979  0.5390  0.3077
  109OSM    H3G11275   4.518   5.750   9.685  0.1086 -1.1501  0.1923
  109OSM    C4F11276   4.452   5.881   9.540 -0.6451 -0.2120 -1.5997
  109OSM    H4F11277   4.539   5.857   9.477 -0.0422  1.1796 -1.3483
  109OSM    H4G11278   4.471   5.981   9.586 -1.9948 -0.6542  0.0496
  109OSM    C5F11279   4.336   5.909   9.439 -0.1633 -0.3994 -0.2926
  109OSM    H5F11280   4.245   5.933   9.497  0.0458  0.2021 -0.2061
  109OSM    H5G11281   4.316   5.817   9.380 -0.2079  0.7017 -2.0990
  109OSM    C6F11282   4.366   6.036   9.357 -0.0629  0.1610 -0.4865
  109OSM    H6F11283   4.402   6.117   9.424 -0.8161  0.3721 -0.3287
  109OSM    H6G11284   4.270   6.078   9.322 -0.5880 -0.8488 -0.2967
  109OSM    C7F11285   4.469   6.013   9.252 -0.5302 -0.0855  0.5568
  109OSM    H7F11286   4.475   5.905   9.228 -1.0997 -0.7427  3.1102
  109OSM    H7G11287   4.573   6.038   9.283 -0.5035  0.8068 -0.1887
  109OSM    C8F11288   4.445   6.102   9.131 -0.1393  0.0446 -0.6192
  109OSM    H8F11289   4.542   6.111   9.077 -0.3153  0.2842 -0.9017
  109OSM    H8G11290   4.411   6.201   9.169 -2.0446 -0.6817 -0.2867
  109OSM    C9F11291   4.329   6.046   9.044 -0.8491  0.5454 -0.3030
  109OSM    H9F11292   4.311   5.942   9.077 -3.0500  1.0062  0.0864
  109OSM   C10F11293   4.243   6.105   8.957 -0.4691  0.2831 -0.1608
  109OSM   H10F11294   4.181   6.036   8.899  1.8213  0.2021 -2.6705
  109OSM   C11F11295   4.248   6.251   8.920 -0.2581 -0.3247 -0.1605
  109OSM   H11F11296   4.337   6.300   8.965  0.0544 -0.8779 -0.1608
  109OSM   H11G11297   4.163   6.316   8.948 -0.4802  0.2776 -2.1101
  109OSM   C12F11298   4.265   6.261   8.772 -0.3914  0.1216  0.0677
  109OSM   H12F11299   4.358   6.203   8.751  0.5200  0.7736  2.0124
  109OSM   H12G11300   4.294   6.365   8.749  2.4634 -0.5734  0.0330
  109OSM   C13F11301   4.142   6.218   8.691  0.8356 -0.2476 -0.3495
  109OSM   H13F11302   4.083   6.312   8.684 -1.9196 -1.6046  2.2998
  109OSM   H13G11303   4.076   6.152   8.751  0.6514  1.0775  0.9703
  109OSM   C14F11304   4.173   6.178   8.547 -0.1021 -0.8549 -0.1682
  109OSM   H14F11305   4.253   6.100   8.545 -0.3490 -1.1471  0.7969
  109OSM   H14G11306   4.229   6.257   8.492 -0.4552 -0.8681 -0.5548
  109OSM   C15F11307   4.051   6.151   8.464 -0.6440 -1.4419  0.4641
  109OSM   H15F11308   3.992   6.243   8.448  0.1960 -1.0196 -0.2992
  109OSM   H15G11309   3.982   6.090   8.526 -1.0038 -0.4330  1.0766
  109OSM   C16F11310   4.083   6.096   8.335 -0.0575 -0.1217  0.4655
  109OSM   H16F11311   4.151   6.008   8.337 -1.0006 -0.8704  0.1346
  109OSM   H16G11312   4.136   6.177   8.280 -0.1927  0.8702  1.7517
  109OSM   C17F11313   3.955   6.061   8.263 -0.1692  0.2772 -0.3926
  109OSM   H17F11314   3.969   6.056   8.153 -2.2372 -2.2106 -0.6316
  109OSM   H17G11315   3.874   6.134   8.284  0.1182  0.1996  1.0636
  109OSM   C18F11316   3.903   5.921   8.303  1.0042 -0.6564 -0.1889
  109OSM   H18F11317   3.980   5.841   8.293  0.6461 -1.0618  0.2513
  109OSM   H18G11318   3.809   5.883   8.256 -1.6267  1.9599  2.5412
  109OSM   H18H11319   3.877   5.932   8.410 -1.4068  2.3237 -0.9207
  110OSM      N11320   5.189   6.564  10.854  0.1915 -0.3752  0.2414
  110OSM    C1511321   5.181   6.682  10.758 -0.0233  0.5419  0.3265
  110OSM   H15A11322   5.097   6.669  10.691  0.5323  3.5911 -1.1648
  110OSM   H15B11323   5.271   6.688  10.698  0.0197 -0.4728  0.2742
  110OSM   H15C11324   5.163   6.776  10.808  0.6032 -0.5263  2.7042
  110OSM    C1411325   5.288   6.597  10.960  0.1880 -0.3384  0.2833
  110OSM   H14A11326   5.384   6.611  10.912  0.0288  1.0393  0.3468
  110OSM   H14B11327   5.307   6.520  11.033  0.8282  0.3633  0.8718
  110OSM   H14C11328   5.264   6.686  11.016  0.6343 -0.8456  1.2989
  110OSM    C1311329   5.049   6.559  10.908 -0.2443  0.0231  0.1384
  110OSM   H13A11330   4.981   6.502  10.846 -1.0544  1.1180 -0.0079
  110OSM   H13B11331   5.009   6.656  10.932  0.0435  0.2453 -0.2808
  110OSM   H13C11332   5.050   6.493  10.994 -0.9050 -0.9777 -0.5948
  110OSM    C1211333   5.233   6.442  10.780  0.6630  0.6527 -0.0606
  110OSM   H12A11334   5.248   6.358  10.846  1.7215  1.1685  0.3815
  110OSM   H12B11335   5.324   6.475  10.734  1.8071 -0.6381  1.1570
  110OSM    C1111336   5.133   6.396  10.664 -0.3983 -0.7170 -0.3981
  110OSM   H11A11337   5.176   6.339  10.580  0.8827  1.6662 -1.4511
  110OSM   H11B11338   5.090   6.483  10.610  0.8325  0.1193 -0.0743
  110OSM      P11339   5.017   6.179  10.757  0.1800 -0.4908 -0.0107
  110OSM    O1311340   5.125   6.154  10.856 -0.5964 -0.1378  1.1034
  110OSM    O1411341   4.876   6.143  10.796  0.3942 -0.4226  0.1783
  110OSM    O1111342   5.062   6.083  10.634  0.5349  0.0825  0.1828
  110OSM    O1211343   5.017   6.332  10.710 -0.6051  0.3446 -0.1022
  110OSM    C1S11344   4.988   6.063  10.514 -0.1854 -0.1607 -0.2488
  110OSM    H1S11345   5.005   6.153  10.452  0.3638 -1.2021 -1.6454
  110OSM    H1T11346   4.878   6.050  10.530 -0.0321 -0.4175  0.6982
  110OSM     NF11347   5.001   5.949  10.298 -0.1311  0.3069 -0.1054
  110OSM    HNF11348   4.919   5.897  10.278  1.4015 -2.1409 -0.4090
  110OSM    C2S11349   5.040   5.942  10.440 -0.3357 -0.0315  0.6793
  110OSM    H2S11350   5.150   5.956  10.444 -0.3690 -0.0220  2.1527
  110OSM    C3S11351   4.993   5.825  10.520  0.3335 -0.2548 -0.8886
  110OSM    H3S11352   4.882   5.828  10.525  0.2271 -0.6064 -2.3194
  110OSM     O311353   5.049   5.809  10.649  0.1604  0.6752 -0.0369
  110OSM    HO311354   5.070   5.901  10.667  3.2387 -0.3611  2.6192
  110OSM    C4S11355   5.025   5.689  10.454 -0.1799 -0.0863  0.0844
  110OSM    H4S11356   5.123   5.649  10.482 -0.6618  0.4067  2.7746
  110OSM    C5S11357   4.941   5.605  10.391 -0.3704  0.2243  0.2240
  110OSM    H5S11358   4.839   5.627  10.356  0.0984  0.3695 -1.1138
  110OSM    C6S11359   4.976   5.469  10.335  0.2582  0.0021  0.7916
  110OSM    H6S11360   4.917   5.434  10.248 -0.3777 -0.6692  1.4724
  110OSM    H6T11361   4.954   5.399  10.419 -1.1608 -0.7901 -0.1983
  110OSM    C7S11362   5.124   5.425  10.289  0.0491  0.1748  0.8741
  110OSM    H7S11363   5.127   5.315  10.303 -3.6106 -0.1561 -0.0279
  110OSM    H7T11364   5.197   5.462  10.364  1.0634 -0.3616  0.1751
  110OSM    C8S11365   5.152   5.475  10.148 -0.0144 -0.8823 -0.4136
  110OSM    H8S11366   5.246   5.534  10.148 -0.6280  0.1503  0.8354
  110OSM    H8T11367   5.067   5.543  10.124  0.7596  0.4633  0.5592
  110OSM    C9S11368   5.163   5.370  10.037  0.4459 -0.1090  0.0635
  110OSM    H9S11369   5.075   5.302  10.026 -0.3604  0.9218 -0.0338
  110OSM    H9T11370   5.251   5.305  10.059  1.4900  1.0965 -0.4441
  110OSM   C10S11371   5.184   5.420   9.893  0.7100 -0.1073 -0.0410
  110OSM   H10S11372   5.208   5.528   9.892 -0.9167  0.2842 -0.6742
  110OSM   H10T11373   5.086   5.415   9.841 -0.3728  0.4215  1.8637
  110OSM   C11S11374   5.297   5.350   9.818 -0.3475 -0.1394  0.0799
  110OSM   H11S11375   5.287   5.240   9.828  1.8562 -0.4499 -0.7118
  110OSM   H11T11376   5.385   5.376   9.879 -1.1602  3.3814 -0.0554
  110OSM   C12S11377   5.309   5.390   9.676 -0.5916 -0.0314  0.5044
  110OSM   H12S11378   5.300   5.500   9.667 -1.8648 -0.2619 -1.9324
  110OSM   H12T11379   5.216   5.352   9.629 -0.7530 -0.1887  0.9440
  110OSM   C13S11380   5.428   5.334   9.599 -0.0888  0.3188 -0.1041
  110OSM   H13S11381   5.428   5.223   9.601 -1.7114  0.2441 -1.5783
  110OSM   H13T11382   5.523   5.363   9.649  1.5029 -1.8129 -1.6646
  110OSM   C14S11383   5.431   5.381   9.452 -0.5670  0.2179  0.1119
  110OSM   H14S11384   5.442   5.491   9.442 -0.7467  0.2093 -0.2021
  110OSM   H14T11385   5.344   5.340   9.397  0.6711 -1.8515 -0.4093
  110OSM   C15S11386   5.548   5.308   9.384 -0.7033 -0.3660  0.5593
  110OSM   H15S11387   5.528   5.199   9.392  0.8472 -0.6523  0.7760
  110OSM   H15T11388   5.641   5.319   9.442  0.3803 -0.8301 -1.0170
  110OSM   C16S11389   5.576   5.352   9.236  0.6139 -0.0666 -0.3972
  110OSM   H16S11390   5.481   5.364   9.180  0.5103  1.0315 -0.0083
  110OSM   H16T11391   5.614   5.264   9.180 -2.5918 -1.1366 -1.1312
  110OSM   C17S11392   5.660   5.477   9.220 -0.3295  0.0290 -0.9052
  110OSM   H17S11393   5.763   5.436   9.221 -0.5006 -0.5417  1.7064
  110OSM   H17T11394   5.646   5.541   9.310 -2.0537 -0.9093 -0.4779
  110OSM   C18S11395   5.635   5.553   9.090  0.7354  0.2096 -0.2996
  110OSM   H18S11396   5.708   5.629   9.057 -1.2367  2.7620  0.8809
  110OSM   H18T11397   5.531   5.588   9.074  1.7326  2.3190 -2.9433
  110OSM   H18U11398   5.637   5.483   9.004 -0.6672 -0.6757  0.3342
  110OSM    C1F11399   5.058   6.032  10.210 -0.5474  0.0891  0.9053
  110OSM     OF11400   5.122   6.125  10.255 -0.2566 -0.0310  0.4630
  110OSM    C2F11401   5.035   6.018  10.063  0.3974 -0.0264  0.5486
  110OSM    H2F11402   5.129   6.048  10.014  0.1914  0.6319  0.5502
  110OSM    H2G11403   4.961   6.097  10.038  0.5935 -0.8534 -3.1946
  110OSM    C3F11404   4.977   5.887  10.012 -0.0435 -0.5381  0.5186
  110OSM    H3F11405   4.886   5.860  10.069  0.5257 -2.8859  0.4312
  110OSM    H3G11406   5.045   5.802  10.038 -1.7459 -2.0346  0.2893
  110OSM    C4F11407   4.969   5.884   9.853 -0.9590 -1.2938 -0.1144
  110OSM    H4F11408   5.063   5.917   9.804 -0.4328 -0.8311  1.1707
  110OSM    H4G11409   4.888   5.953   9.820  0.2235  0.1447 -0.1078
  110OSM    C5F11410   4.931   5.743   9.800  0.1724 -0.3354  0.1859
  110OSM    H5F11411   4.826   5.724   9.830 -0.5121 -1.4012 -2.5375
  110OSM    H5G11412   5.009   5.682   9.850 -1.9721 -2.5241  1.0449
  110OSM    C6F11413   4.931   5.747   9.648  0.7552  0.0121 -0.0967
  110OSM    H6F11414   4.925   5.643   9.608  1.0353 -0.2295  0.4702
  110OSM    H6G11415   5.029   5.792   9.621 -0.2253  0.9307 -2.3091
  110OSM    C7F11416   4.827   5.828   9.578  0.0368  0.0025  0.3671
  110OSM    H7F11417   4.842   5.935   9.605 -1.7287 -0.0277  1.6696
  110OSM    H7G11418   4.725   5.800   9.612  0.7182 -1.1015  1.5925
  110OSM    C8F11419   4.826   5.822   9.419 -0.2231  0.1011 -0.1760
  110OSM    H8F11420   4.739   5.890   9.405 -2.3653 -2.1047  1.4674
  110OSM    H8G11421   4.799   5.717   9.391  2.1711 -1.1090  1.6880
  110OSM    C9F11422   4.966   5.854   9.367 -0.3896 -0.4059  0.3455
  110OSM    H9F11423   4.970   5.962   9.352  0.7442 -0.5838 -0.8121
  110OSM   C10F11424   5.070   5.778   9.334  0.3093 -0.4011  0.4584
  110OSM   H10F11425   5.157   5.836   9.301 -1.2433  2.7949  1.5043
  110OSM   C11F11426   5.084   5.634   9.351 -0.4416  0.1325  0.0059
  110OSM   H11F11427   4.993   5.597   9.402  0.9952 -0.7600  2.0917
  110OSM   H11G11428   5.163   5.603   9.424  0.9422 -1.2432 -1.9676
  110OSM   C12F11429   5.094   5.563   9.213 -0.0242  0.6279  0.3956
  110OSM   H12F11430   5.008   5.592   9.150 -0.1951  0.0039  0.3376
  110OSM   H12G11431   5.075   5.454   9.227 -2.3108  0.9968  0.4519
  110OSM   C13F11432   5.226   5.580   9.129  0.6679 -0.2752  1.0110
  110OSM   H13F11433   5.310   5.536   9.186  0.3314 -1.2837  0.7433
  110OSM   H13G11434   5.240   5.690   9.121  1.4207 -0.5080 -1.6001
  110OSM   C14F11435   5.214   5.540   8.980 -0.2659  0.0764 -0.7126
  110OSM   H14F11436   5.126   5.586   8.930 -0.8011 -1.0807 -0.8713
  110OSM   H14G11437   5.195   5.430   8.986  2.3675 -0.3945  0.4624
  110OSM   C15F11438   5.333   5.562   8.886  0.4799  0.5210 -0.9586
  110OSM   H15F11439   5.419   5.498   8.917  0.3292 -0.1889 -1.9665
  110OSM   H15G11440   5.364   5.669   8.885  0.9499  0.4297  0.6210
  110OSM   C16F11441   5.287   5.528   8.747 -0.7365  0.4485  0.5317
  110OSM   H16F11442   5.210   5.597   8.705 -1.9689 -0.8481  0.5788
  110OSM   H16G11443   5.237   5.429   8.755 -0.8624  0.2404 -1.9937
  110OSM   C17F11444   5.407   5.513   8.651  0.5504  0.3679 -0.1681
  110OSM   H17F11445   5.382   5.444   8.567  1.4912 -0.7052  0.4058
  110OSM   H17G11446   5.494   5.471   8.705 -0.8081 -1.4227  0.7473
  110OSM   C18F11447   5.458   5.651   8.594  0.1269  0.6826  0.7413
  110OSM   H18F11448   5.512   5.709   8.672 -0.6032  1.3781  0.7310
  110OSM   H18G11449   5.368   5.704   8.558  0.4584  2.0207  1.8147
  110OSM   H18H11450   5.530   5.636   8.511 -0.3329  0.0821  0.4388
  111OSM      N11451   6.171   2.294  11.276  0.1141 -0.3840  0.2589
  111OSM    C1511452   6.207   2.155  11.309  0.1067  0.2146  0.1122
  111OSM   H15A11453   6.118   2.099  11.332 -0.3582  0.7768 -0.2955
  111OSM   H15B11454   6.276   2.149  11.392 -1.4283 -1.2285  1.3558
  111OSM   H15C11455   6.257   2.109  11.225 -0.8030  0.2039 -0.4340
  111OSM    C1411456   6.122   2.369  11.400  0.0892  0.2645 -0.1185
  111OSM   H14A11457   6.096   2.472  11.380  0.8079  0.4994  0.1425
  111OSM   H14B11458   6.196   2.360  11.477 -0.4247 -4.0672  0.1406
  111OSM   H14C11459   6.033   2.319  11.436 -0.7732  0.9754 -1.1807
  111OSM    C1311460   6.297   2.377  11.243 -0.3290  0.1397  0.7506
  111OSM   H13A11461   6.273   2.477  11.211 -0.7829 -0.1325  0.2168
  111OSM   H13B11462   6.349   2.322  11.166 -2.9426 -0.1145 -0.9549
  111OSM   H13C11463   6.370   2.372  11.323 -0.5226 -0.8705  0.8771
  111OSM    C1211464   6.059   2.306  11.174 -0.4496  0.1854  0.0006
  111OSM   H12A11465   6.054   2.411  11.147 -0.7405  0.3948  0.8338
  111OSM   H12B11466   5.965   2.275  11.217 -0.2973 -0.6647 -0.2751
  111OSM    C1111467   6.077   2.223  11.048 -0.8737  0.4188  0.7710
  111OSM   H11A11468   6.005   2.253  10.969 -1.5075  1.1987  1.6248
  111OSM   H11B11469   6.061   2.116  11.073  1.4991 -0.7620 -2.1508
  111OSM      P11470   6.299   2.142  10.938 -0.4615  0.1197 -0.3405
  111OSM    O1311471   6.424   2.204  10.886  0.1470  0.2187  0.4359
  111OSM    O1411472   6.309   2.031  11.033  0.1082  0.4187  0.1921
  111OSM    O1111473   6.210   2.098  10.821 -0.5045 -0.2626  0.0828
  111OSM    O1211474   6.206   2.253  10.996 -0.7548  0.5075 -0.2474
  111OSM    C1S11475   6.180   2.204  10.730 -1.0500 -0.6033  0.6524
  111OSM    H1S11476   6.272   2.253  10.690  0.4755 -1.4838  2.9353
  111OSM    H1T11477   6.122   2.283  10.783  1.0789 -0.8285  3.5214
  111OSM     NF11478   6.096   2.260  10.495 -0.3280 -0.2523 -0.2801
  111OSM    HNF11479   6.004   2.297  10.485 -0.7237 -1.1775 -0.1794
  111OSM    C2S11480   6.105   2.154  10.598 -0.0152 -0.0320 -0.9695
  111OSM    H2S11481   6.169   2.070  10.563  3.1229  1.2019  1.2975
  111OSM    C3S11482   5.964   2.097  10.654 -1.0169  0.0303 -0.0001
  111OSM    H3S11483   5.912   2.188  10.691  1.0369  2.0764 -1.8321
  111OSM     O311484   5.974   2.010  10.764 -0.2381 -0.2562  0.0202
  111OSM    HO311485   6.067   2.016  10.787 -0.5869  0.6971  1.3155
  111OSM    C4S11486   5.889   2.054  10.534 -0.2779 -0.3563 -0.4597
  111OSM    H4S11487   5.830   2.133  10.487  2.7801  1.8704 -0.8715
  111OSM    C5S11488   5.899   1.931  10.480  0.2725 -0.6449  0.6954
  111OSM    H5S11489   5.967   1.870  10.542  1.0523  1.3663  1.9284
  111OSM    C6S11490   5.828   1.873  10.355 -0.4293 -0.0447 -0.0581
  111OSM    H6S11491   5.766   1.786  10.383 -1.2569  0.5529 -0.0088
  111OSM    H6T11492   5.896   1.840  10.273 -1.5481  0.3961 -1.2081
  111OSM    C7S11493   5.721   1.966  10.295  0.0960 -0.0009  0.4350
  111OSM    H7S11494   5.749   2.072  10.281 -0.3271 -0.1898 -2.2522
  111OSM    H7T11495   5.627   1.971  10.354 -1.0236 -1.2641 -1.1452
  111OSM    C8S11496   5.687   1.918  10.158  0.9953  0.0749  0.6817
  111OSM    H8S11497   5.637   1.819  10.159  0.9247  0.0998  0.0904
  111OSM    H8T11498   5.774   1.884  10.098 -0.1923  0.0419 -1.1018
  111OSM    C9S11499   5.597   2.019  10.083  0.7689  0.4712  0.0256
  111OSM    H9S11500   5.664   2.106  10.064 -0.0297  0.7911 -1.4245
  111OSM    H9T11501   5.525   2.055  10.160  0.4206 -1.5823  0.7171
  111OSM   C10S11502   5.552   1.962   9.951  0.5145 -0.8361 -0.1572
  111OSM   H10S11503   5.474   1.883   9.953  0.8768 -1.1906  1.4754
  111OSM   H10T11504   5.635   1.910   9.900 -1.1379 -1.5735 -2.2555
  111OSM   C11S11505   5.503   2.077   9.854  0.8442  0.5089  0.1311
  111OSM   H11S11506   5.579   2.157   9.843  1.3531  0.1334  0.9042
  111OSM   H11T11507   5.423   2.127   9.912 -0.5578 -1.3830 -0.0679
  111OSM   C12S11508   5.462   2.028   9.711  0.2545 -0.1720 -0.5105
  111OSM   H12S11509   5.394   2.109   9.677  2.4967  2.0419 -0.0794
  111OSM   H12T11510   5.424   1.925   9.725  0.3933 -0.0669  0.7653
  111OSM   C13S11511   5.570   2.010   9.610  0.0107 -0.0641  0.7252
  111OSM   H13S11512   5.644   1.934   9.642  2.1632  1.4798 -0.3095
  111OSM   H13T11513   5.617   2.110   9.597 -3.5929  1.5040 -1.7165
  111OSM   C14S11514   5.508   1.958   9.475  0.1251 -0.6144  0.2599
  111OSM   H14S11515   5.419   2.020   9.448 -0.0587 -0.7256  0.6030
  111OSM   H14T11516   5.462   1.858   9.493 -0.6744 -0.5558 -1.2972
  111OSM   C15S11517   5.608   1.941   9.367 -0.1762  0.7329 -0.4614
  111OSM   H15S11518   5.694   1.878   9.398 -1.4077 -0.7867 -0.0148
  111OSM   H15T11519   5.640   2.041   9.331 -0.9024  1.4029  0.6993
  111OSM   C16S11520   5.549   1.874   9.241 -0.3428 -0.2735  0.5832
  111OSM   H16S11521   5.485   1.788   9.271  1.6723 -1.7871  0.6994
  111OSM   H16T11522   5.636   1.841   9.181  0.1238  0.7840  0.6568
  111OSM   C17S11523   5.458   1.975   9.167 -0.1259  0.3322  0.3576
  111OSM   H17S11524   5.501   2.077   9.157  1.5311 -0.1052  2.3516
  111OSM   H17T11525   5.355   1.977   9.207 -0.2742 -2.3562  0.2620
  111OSM   C18S11526   5.439   1.928   9.029 -0.6593  0.5324  0.9476
  111OSM   H18S11527   5.535   1.907   8.977 -0.3446  0.7277  1.4416
  111OSM   H18T11528   5.383   2.005   8.971 -1.6864  0.6137  2.0151
  111OSM   H18U11529   5.380   1.835   9.027 -0.3046  0.2967 -0.9696
  111OSM    C1F11530   6.203   2.319  10.433  0.0634 -0.2503 -0.2703
  111OSM     OF11531   6.322   2.296  10.459  0.3859  0.1128 -0.4200
  111OSM    C2F11532   6.173   2.421  10.327  0.3286 -0.7305  0.4206
  111OSM    H2F11533   6.240   2.510  10.332  1.3216 -1.5051  1.3132
  111OSM    H2G11534   6.074   2.470  10.341  0.0939 -0.5423 -1.6150
  111OSM    C3F11535   6.167   2.349  10.194 -0.1939  0.1382 -0.0277
  111OSM    H3F11536   6.271   2.326  10.164 -0.1788 -1.9628  1.4701
  111OSM    H3G11537   6.126   2.418  10.117 -0.0665 -0.8408 -0.9945
  111OSM    C4F11538   6.074   2.221  10.190 -0.4360 -0.4146  0.5039
  111OSM    H4F11539   5.965   2.245  10.192 -0.8081 -2.0540  1.0056
  111OSM    H4G11540   6.083   2.156  10.279  0.8258 -1.1737 -0.1468
  111OSM    C5F11541   6.096   2.140  10.058 -0.2225  0.2559 -0.0233
  111OSM    H5F11542   6.038   2.046  10.068 -1.4911  0.9529 -0.5214
  111OSM    H5G11543   6.202   2.114  10.039 -0.5319 -1.3669  0.3093
  111OSM    C6F11544   6.038   2.216   9.937  0.0416 -0.0591 -0.6537
  111OSM    H6F11545   6.097   2.310   9.934 -0.3281  0.1675 -0.9810
  111OSM    H6G11546   5.939   2.246   9.977 -0.2207  0.8645 -1.9359
  111OSM    C7F11547   6.022   2.140   9.814  0.6112  0.9254 -0.6559
  111OSM    H7F11548   6.027   2.031   9.833 -0.3074  1.1799  1.2035
  111OSM    H7G11549   6.098   2.162   9.736 -1.1403 -0.2549 -2.8157
  111OSM    C8F11550   5.877   2.156   9.745  0.3442  0.3564 -0.2693
  111OSM    H8F11551   5.803   2.142   9.827  1.1873  2.8193  1.0247
  111OSM    H8G11552   5.873   2.064   9.684  0.1598  1.5545 -2.1453
  111OSM    C9F11553   5.880   2.290   9.674  0.0246  0.7922 -0.0577
  111OSM    H9F11554   5.872   2.379   9.738  3.6269  2.0316 -1.0781
  111OSM   C10F11555   5.907   2.308   9.543  0.1721  0.0346  0.1569
  111OSM   H10F11556   5.917   2.406   9.495  0.7984 -0.7935 -1.4748
  111OSM   C11F11557   5.929   2.205   9.438 -0.4632 -0.8032 -0.4431
  111OSM   H11F11558   5.845   2.211   9.366 -1.1103  2.3694  0.4294
  111OSM   H11G11559   5.944   2.104   9.484  1.2464  0.9858  3.3893
  111OSM   C12F11560   6.053   2.251   9.348 -0.2204  0.6130  0.3488
  111OSM   H12F11561   6.148   2.252   9.406  0.6894 -2.7900 -0.7980
  111OSM   H12G11562   6.033   2.351   9.303  0.1739  1.1278  1.2970
  111OSM   C13F11563   6.079   2.169   9.218  0.2167  1.0573 -0.2954
  111OSM   H13F11564   5.985   2.178   9.160  0.7107 -0.7240 -1.4612
  111OSM   H13G11565   6.102   2.068   9.259  0.6158  2.1247  2.3148
  111OSM   C14F11566   6.192   2.219   9.129 -0.1080  0.3975  0.1053
  111OSM   H14F11567   6.285   2.246   9.184 -0.0944  2.3226 -0.8010
  111OSM   H14G11568   6.165   2.317   9.085  0.5325  0.2179 -0.7154
  111OSM   C15F11569   6.238   2.113   9.024  0.9949  0.3198 -0.8536
  111OSM   H15F11570   6.266   2.018   9.074  1.5938 -1.0084 -3.5010
  111OSM   H15G11571   6.330   2.145   8.970  2.0682  0.7644  1.1368
  111OSM   C16F11572   6.133   2.085   8.917  0.0567 -0.2222  0.3159
  111OSM   H16F11573   6.092   2.183   8.886 -0.1687  0.0732  1.4995
  111OSM   H16G11574   6.045   2.029   8.955 -1.9767  2.5713 -0.0226
  111OSM   C17F11575   6.193   2.022   8.792  0.3213  0.8802  0.8334
  111OSM   H17F11576   6.277   2.088   8.761  2.0749 -0.4301  2.4970
  111OSM   H17G11577   6.109   2.021   8.720 -0.7244 -1.8293  1.9644
  111OSM   C18F11578   6.247   1.873   8.812  0.1111 -0.2439 -0.4506
  111OSM   H18F11579   6.267   1.828   8.712 -3.6563 -1.6789 -0.7374
  111OSM   H18G11580   6.162   1.812   8.849 -0.2416  1.0210  0.9228
  111OSM   H18H11581   6.332   1.866   8.882 -0.2608  1.2634  0.2068
  112OSM      N11582   6.690   5.560  11.015 -0.1873 -0.1708  0.0879
  112OSM    C1511583   6.643   5.464  11.123  0.6585 -0.1146 -0.5741
  112OSM   H15A11584   6.549   5.424  11.087  0.6156 -1.0858  0.5291
  112OSM   H15B11585   6.631   5.528  11.209  1.2821 -1.0232  0.2135
  112OSM   H15C11586   6.715   5.385  11.141  0.0126 -0.5038  0.4061
  112OSM    C1411587   6.657   5.695  11.058 -0.4680  0.1135  0.0138
  112OSM   H14A11588   6.677   5.701  11.164 -4.4087  1.7864  0.8304
  112OSM   H14B11589   6.552   5.718  11.057 -0.8142 -1.3510  0.3437
  112OSM   H14C11590   6.713   5.758  10.991  2.0785 -2.3124 -0.3369
  112OSM    C1311591   6.840   5.557  10.999  0.0476 -0.5090  0.2165
  112OSM   H13A11592   6.870   5.637  10.933  1.5180 -0.2941  1.0939
  112OSM   H13B11593   6.871   5.461  10.961  0.8872  0.1582 -0.8375
  112OSM   H13C11594   6.894   5.576  11.090  0.0184  0.4939  0.0283
  112OSM    C1211595   6.612   5.542  10.887  0.2897 -0.0722  0.3689
  112OSM   H12A11596   6.508   5.563  10.907  0.3556  0.7900 -0.1369
  112OSM   H12B11597   6.620   5.439  10.855  1.1102  0.1647 -0.2165
  112OSM    C1111598   6.653   5.645  10.769  0.3690 -0.2781 -0.1063
  112OSM   H11A11599   6.622   5.599  10.674 -1.5336  0.0363  0.3189
  112OSM   H11B11600   6.761   5.672  10.772  0.1862  0.4921 -0.1277
  112OSM      P11601   6.444   5.783  10.739  0.0752 -0.0711 -0.3073
  112OSM    O1311602   6.365   5.681  10.817  0.4717  0.4825  0.1771
  112OSM    O1411603   6.397   5.925  10.741 -0.0328  0.5760 -0.2535
  112OSM    O1111604   6.455   5.738  10.590 -0.0365 -0.5528 -0.2949
  112OSM    O1211605   6.593   5.777  10.785  0.1890 -0.3789 -0.0627
  112OSM    C1S11606   6.489   5.829  10.482 -0.1425  0.5056 -0.6026
  112OSM    H1S11607   6.591   5.870  10.498 -0.0944 -0.3966  1.8496
  112OSM    H1T11608   6.417   5.913  10.485  0.4484  1.0298 -0.9592
  112OSM     NF11609   6.544   5.836  10.235  0.2406  0.2122  0.4353
  112OSM    HNF11610   6.487   5.902  10.185 -1.2407 -0.5581  1.0420
  112OSM    C2S11611   6.477   5.764  10.340 -0.3991 -0.0446  0.0741
  112OSM    H2S11612   6.539   5.672  10.349  1.4988  1.0825 -0.8409
  112OSM    C3S11613   6.332   5.731  10.313 -0.2279  0.3329 -0.1856
  112OSM    H3S11614   6.267   5.821  10.321 -2.2578 -1.1651  1.2258
  112OSM     O311615   6.284   5.637  10.409  0.2293  0.4257  0.2265
  112OSM    HO311616   6.343   5.650  10.483  0.2440  0.6895  0.1674
  112OSM    C4S11617   6.306   5.668  10.182 -0.1803 -0.4170  0.5430
  112OSM    H4S11618   6.379   5.600  10.135  1.0312  0.8256  0.5593
  112OSM    C5S11619   6.207   5.704  10.100  0.8705  0.2585 -0.0045
  112OSM    H5S11620   6.131   5.766  10.151  0.3683 -1.5114  1.5457
  112OSM    C6S11621   6.183   5.657   9.956  0.2581 -0.3370 -0.4367
  112OSM    H6S11622   6.122   5.735   9.905 -0.4862 -0.5870  0.0516
  112OSM    H6T11623   6.117   5.568   9.944 -0.2963  0.1258 -0.9151
  112OSM    C7S11624   6.313   5.635   9.882  0.5755  0.0452 -0.1404
  112OSM    H7S11625   6.364   5.547   9.928  2.7101  2.0005  1.4621
  112OSM    H7T11626   6.380   5.723   9.889  3.3065 -1.7345 -1.7455
  112OSM    C8S11627   6.285   5.595   9.740  0.3871 -0.0872 -0.8483
  112OSM    H8S11628   6.176   5.578   9.727  0.4616  0.3265 -2.0916
  112OSM    H8T11629   6.335   5.501   9.710 -0.3948 -0.4047 -1.1918
  112OSM    C9S11630   6.335   5.689   9.622  0.3099 -0.0482 -0.7592
  112OSM    H9S11631   6.430   5.741   9.644  0.5488 -0.5095 -0.6908
  112OSM    H9T11632   6.259   5.769   9.611 -0.1040 -0.5647 -1.9314
  112OSM   C10S11633   6.355   5.609   9.494 -0.2675 -0.0343  0.3417
  112OSM   H10S11634   6.258   5.588   9.444 -0.1306  0.0268  0.0483
  112OSM   H10T11635   6.395   5.511   9.528 -0.5071 -0.7837 -1.4283
  112OSM   C11S11636   6.448   5.673   9.385 -0.3902  0.1520 -0.1168
  112OSM   H11S11637   6.556   5.673   9.411  0.6204  2.3169 -3.6618
  112OSM   H11T11638   6.414   5.777   9.367 -1.7171 -0.3704 -0.6986
  112OSM   C12S11639   6.430   5.605   9.250  0.4251 -0.1802 -0.0051
  112OSM   H12S11640   6.325   5.622   9.215 -0.0738 -0.5189  1.2844
  112OSM   H12T11641   6.427   5.495   9.261 -0.2351 -0.2991 -1.1499
  112OSM   C13S11642   6.522   5.652   9.141  0.3846  0.9821  0.4846
  112OSM   H13S11643   6.629   5.657   9.172  0.0519 -0.1426  1.8741
  112OSM   H13T11644   6.486   5.757   9.129 -0.2182  0.6846 -0.3976
  112OSM   C14S11645   6.507   5.566   9.008  1.0584  0.2814  0.3644
  112OSM   H14S11646   6.408   5.570   8.957  2.4261  0.8682 -2.4845
  112OSM   H14T11647   6.546   5.463   9.026  2.5142  0.3829 -1.8481
  112OSM   C15S11648   6.605   5.628   8.910 -0.8386 -0.3856  0.2537
  112OSM   H15S11649   6.702   5.657   8.955 -0.1629  2.7363 -2.8006
  112OSM   H15T11650   6.562   5.725   8.876 -1.6894 -2.1219 -4.4310
  112OSM   C16S11651   6.635   5.538   8.787 -0.9360 -0.8176 -0.0360
  112OSM   H16S11652   6.532   5.511   8.754 -0.2952 -2.8094 -0.5173
  112OSM   H16T11653   6.670   5.443   8.832 -2.1050 -0.2884  2.1418
  112OSM   C17S11654   6.718   5.598   8.666 -0.4577 -0.0311  0.5028
  112OSM   H17S11655   6.820   5.616   8.706 -1.1946  1.7708  1.7306
  112OSM   H17T11656   6.675   5.696   8.636 -2.1422 -0.9593 -0.2467
  112OSM   C18S11657   6.726   5.511   8.548  0.6210  0.3500 -0.2263
  112OSM   H18S11658   6.777   5.553   8.459 -0.1664  1.2706 -0.2652
  112OSM   H18T11659   6.625   5.473   8.519  0.8488 -3.9892  3.5905
  112OSM   H18U11660   6.772   5.416   8.581 -0.6656  0.2509  1.3724
  112OSM    C1F11661   6.679   5.830  10.218  0.9714  0.2181  0.2679
  112OSM     OF11662   6.749   5.743  10.270 -0.1254  0.0552  0.7253
  112OSM    C2F11663   6.741   5.924  10.114 -0.2878  0.3130  0.2356
  112OSM    H2F11664   6.762   6.021  10.164 -2.2248  0.8816  0.0076
  112OSM    H2G11665   6.661   5.946  10.042 -0.2679 -1.1108 -0.2566
  112OSM    C3F11666   6.854   5.864  10.032 -0.0440  0.4607 -0.7074
  112OSM    H3F11667   6.829   5.771   9.977 -1.4194 -1.3356  2.6559
  112OSM    H3G11668   6.943   5.834  10.092 -0.7256 -1.2054 -0.4921
  112OSM    C4F11669   6.900   5.974   9.932  0.5196  1.2222 -0.4630
  112OSM    H4F11670   6.930   6.055  10.002 -0.0610  0.0304  1.2270
  112OSM    H4G11671   6.817   5.999   9.862  0.5003 -0.6365 -1.1541
  112OSM    C5F11672   7.023   5.931   9.851  0.0059 -0.5101  0.2439
  112OSM    H5F11673   6.996   5.845   9.786 -2.6670 -0.0157  0.5881
  112OSM    H5G11674   7.088   5.878   9.924 -0.9876 -2.2677 -0.0986
  112OSM    C6F11675   7.071   6.051   9.768  1.2301  0.6667  0.1494
  112OSM    H6F11676   7.105   6.139   9.825  2.0908 -0.2294  1.0645
  112OSM    H6G11677   6.993   6.085   9.696 -0.5085 -0.6771  1.3081
  112OSM    C7F11678   7.194   6.014   9.686 -0.5022  0.3732 -0.0217
  112OSM    H7F11679   7.274   5.966   9.746 -0.3806 -0.5572 -0.8939
  112OSM    H7G11680   7.242   6.106   9.647  1.1386 -0.8255 -0.9472
  112OSM    C8F11681   7.156   5.923   9.570 -0.1703  0.1638 -0.4528
  112OSM    H8F11682   7.087   5.978   9.503 -1.1383  0.2393  0.5849
  112OSM    H8G11683   7.090   5.841   9.606 -2.4949  1.2893 -1.9563
  112OSM    C9F11684   7.281   5.854   9.500  0.2911  0.3782 -0.6945
  112OSM    H9F11685   7.301   5.750   9.528 -1.5978 -0.3157 -1.7787
  112OSM   C10F11686   7.354   5.901   9.398  0.2891  0.3631 -0.4123
  112OSM   H10F11687   7.441   5.844   9.363  0.4411  0.4283 -0.1496
  112OSM   C11F11688   7.341   6.032   9.327  0.0926  0.2696 -0.4148
  112OSM   H11F11689   7.430   6.099   9.331 -1.1672  2.2686 -2.9765
  112OSM   H11G11690   7.258   6.084   9.379  0.1636  0.4392 -0.4716
  112OSM   C12F11691   7.282   6.035   9.185 -0.6767  0.1105 -1.0045
  112OSM   H12F11692   7.249   6.138   9.162 -1.2346  0.1273 -0.1888
  112OSM   H12G11693   7.189   5.973   9.185 -2.2499  2.1854  2.1250
  112OSM   C13F11694   7.379   6.004   9.063  0.7252 -0.3894  0.4357
  112OSM   H13F11695   7.444   5.919   9.095 -1.9881 -3.7220 -2.1561
  112OSM   H13G11696   7.434   6.095   9.031 -1.6624  1.1772  0.4961
  112OSM   C14F11697   7.294   5.973   8.938  0.1817 -0.4908  0.1160
  112OSM   H14F11698   7.233   6.058   8.900 -0.4276 -0.4589  1.1120
  112OSM   H14G11699   7.230   5.884   8.956 -0.9955  0.2880 -0.1029
  112OSM   C15F11700   7.374   5.945   8.815 -0.6635  0.2135 -0.1508
  112OSM   H15F11701   7.438   5.855   8.827 -0.8616 -0.1047 -1.3231
  112OSM   H15G11702   7.446   6.029   8.804  2.0629 -1.7773  1.2152
  112OSM   C16F11703   7.295   5.940   8.687  0.4096  0.1281  0.0999
  112OSM   H16F11704   7.265   6.046   8.671  1.3166  0.4055  0.1271
  112OSM   H16G11705   7.196   5.893   8.701  1.3668 -1.8454  0.6038
  112OSM   C17F11706   7.369   5.879   8.569  0.8703 -0.0000  0.0530
  112OSM   H17F11707   7.381   5.769   8.578 -1.0501 -0.1273  1.8271
  112OSM   H17G11708   7.468   5.931   8.571  1.1862 -0.4691  3.8277
  112OSM   C18F11709   7.294   5.910   8.434 -0.3503  0.3245 -0.1677
  112OSM   H18F11710   7.352   5.881   8.343  1.8497  2.4512  0.4335
  112OSM   H18G11711   7.272   6.019   8.428  1.5521  0.8173  0.9884
  112OSM   H18H11712   7.206   5.843   8.432 -0.3269  0.2126  1.4402
  113OSM      N11713   2.712   3.369  11.122  0.2985 -0.0613 -0.3286
  113OSM    C1511714   2.619   3.264  11.062 -0.2266 -0.0857 -0.0611
  113OSM   H15A11715   2.674   3.186  11.010  0.1397 -2.4019  3.4559
  113OSM   H15B11716   2.532   3.294  11.005 -0.6667 -1.7918 -0.3334
  113OSM   H15C11717   2.584   3.211  11.149 -1.1120  2.9562  1.5769
  113OSM    C1411718   2.629   3.450  11.224 -0.6799  1.2228 -0.2706
  113OSM   H14A11719   2.575   3.528  11.172 -0.2959  0.0627 -2.5299
  113OSM   H14B11720   2.696   3.500  11.292  0.7954 -0.2441 -0.5919
  113OSM   H14C11721   2.559   3.383  11.273  0.2349 -0.0719 -0.6979
  113OSM    C1311722   2.811   3.292  11.199  0.0393 -0.4041 -0.0704
  113OSM   H13A11723   2.773   3.213  11.261  0.3091  1.1986  2.2654
  113OSM   H13B11724   2.862   3.357  11.269  0.5968  0.0121 -0.8518
  113OSM   H13C11725   2.887   3.259  11.129  0.4363  1.3486 -0.5079
  113OSM    C1211726   2.766   3.459  11.020  0.1047 -0.1191 -0.7499
  113OSM   H12A11727   2.815   3.540  11.072  0.4493  0.0819 -1.3763
  113OSM   H12B11728   2.690   3.515  10.967 -0.9703 -0.4124  0.4387
  113OSM    C1111729   2.876   3.415  10.922  0.2275 -0.6636 -0.6640
  113OSM   H11A11730   2.872   3.478  10.831  1.3590 -0.5815 -0.6717
  113OSM   H11B11731   2.862   3.308  10.896  0.4679 -0.9109  0.1744
  113OSM      P11732   3.113   3.336  10.982 -0.8498 -0.0855 -0.1895
  113OSM    O1311733   3.248   3.397  10.988 -0.1862 -0.1116  0.2965
  113OSM    O1411734   3.091   3.240  11.093  0.1831 -0.4163  0.0559
  113OSM    O1111735   3.088   3.260  10.847  0.0066 -0.5027 -0.0417
  113OSM    O1211736   3.003   3.445  10.981  0.4453  0.1609  1.0012
  113OSM    C1S11737   3.121   3.333  10.728 -0.1250  0.3802  0.0337
  113OSM    H1S11738   3.225   3.371  10.737  0.3012 -0.6219 -0.6123
  113OSM    H1T11739   3.050   3.418  10.713 -0.2299  0.5770  1.4309
  113OSM     NF11740   3.182   3.294  10.490 -0.7837  0.6518  0.2237
  113OSM    HNF11741   3.123   3.321  10.414 -3.3123 -2.2512  0.9552
  113OSM    C2S11742   3.110   3.238  10.606 -0.6122  0.3451 -0.0121
  113OSM    H2S11743   3.152   3.138  10.632 -2.7383 -0.6008 -0.0205
  113OSM    C3S11744   2.966   3.193  10.581 -0.0089  0.0804 -0.3601
  113OSM    H3S11745   2.908   3.285  10.559 -0.6352 -0.1241  0.3739
  113OSM     O311746   2.899   3.150  10.695 -0.3797  0.0686  0.1791
  113OSM    HO311747   2.956   3.179  10.767  2.2935  0.4749 -1.9438
  113OSM    C4S11748   2.953   3.111  10.457  0.4783  0.5743 -0.4315
  113OSM    H4S11749   2.958   3.171  10.366 -0.1649  1.3713  0.0493
  113OSM    C5S11750   2.938   2.974  10.451 -0.2385  0.0798  0.3768
  113OSM    H5S11751   2.940   2.912  10.542 -2.7786 -0.0521  0.4086
  113OSM    C6S11752   2.938   2.906  10.316 -0.6690  0.1189 -0.2260
  113OSM    H6S11753   2.835   2.877  10.286  0.3215 -0.5977 -3.4330
  113OSM    H6T11754   2.991   2.809  10.330 -1.6850 -0.6439 -1.4077
  113OSM    C7S11755   2.986   2.978  10.184 -0.6244  0.1687  0.9407
  113OSM    H7S11756   3.076   3.035  10.215 -1.6965  1.8661  1.0823
  113OSM    H7T11757   2.913   3.061  10.177 -0.5738  0.2944  1.7704
  113OSM    C8S11758   3.010   2.892  10.068  0.2290 -0.1172 -0.3043
  113OSM    H8S11759   2.917   2.832  10.058  1.3240 -1.5909 -2.3820
  113OSM    H8T11760   3.092   2.821  10.089  2.1381  2.3619  1.2244
  113OSM    C9S11761   3.027   2.982   9.947  0.1462  1.0028  0.6105
  113OSM    H9S11762   3.128   3.028   9.944  0.3654  0.4782 -0.9373
  113OSM    H9T11763   2.946   3.057   9.931 -1.8779 -1.6506 -3.0788
  113OSM   C10S11764   3.016   2.901   9.820  0.2191 -0.0515 -0.5154
  113OSM   H10S11765   2.914   2.856   9.826  0.2193 -0.1631 -1.2804
  113OSM   H10T11766   3.100   2.829   9.816  1.0130  0.8522 -0.4616
  113OSM   C11S11767   3.023   2.988   9.699 -0.4617  0.1575 -0.4507
  113OSM   H11S11768   3.109   3.058   9.705  0.0916 -0.6439  2.2406
  113OSM   H11T11769   2.937   3.057   9.696  0.3334  1.2029  0.1147
  113OSM   C12S11770   3.028   2.919   9.563 -0.3071  0.5410  0.3474
  113OSM   H12S11771   2.928   2.878   9.536 -0.0055 -1.3223  1.8213
  113OSM   H12T11772   3.101   2.835   9.553 -0.9572  0.0406 -0.4159
  113OSM   C13S11773   3.062   3.025   9.453  0.3966 -0.5673 -0.6479
  113OSM   H13S11774   3.147   3.083   9.494  0.5003 -2.1036  1.5047
  113OSM   H13T11775   2.984   3.103   9.438 -0.0234 -1.2226 -2.0994
  113OSM   C14S11776   3.089   2.978   9.313  0.1655  0.5468 -0.5447
  113OSM   H14S11777   3.013   2.913   9.265  0.8788 -0.8528  0.1695
  113OSM   H14T11778   3.178   2.914   9.330  1.0533  1.6882 -0.7722
  113OSM   C15S11779   3.126   3.098   9.226  0.6682 -0.6411  0.2344
  113OSM   H15S11780   3.209   3.156   9.273 -0.7298  1.3342  0.3833
  113OSM   H15T11781   3.039   3.164   9.205  1.1546 -0.7537 -2.5075
  113OSM   C16S11782   3.166   3.055   9.088 -0.3884  0.2375 -0.2139
  113OSM   H16S11783   3.082   2.994   9.049 -3.3471  3.3177  0.8124
  113OSM   H16T11784   3.245   2.977   9.086 -0.1577  0.4737 -0.3001
  113OSM   C17S11785   3.184   3.175   8.988 -0.2231  0.5007 -0.3538
  113OSM   H17S11786   3.277   3.230   9.013  0.4659 -0.6859 -0.2197
  113OSM   H17T11787   3.093   3.231   9.017 -1.6928 -2.1165  0.4052
  113OSM   C18S11788   3.176   3.131   8.845  0.2573 -0.3968 -0.8799
  113OSM   H18S11789   3.170   3.222   8.781  0.3737 -1.2953 -2.1904
  113OSM   H18T11790   3.090   3.062   8.830 -0.4454  0.1777  0.3350
  113OSM   H18U11791   3.274   3.088   8.817  0.1785 -2.6554  1.8804
  113OSM    C1F11792   3.314   3.324  10.483 -0.3870  0.2749  0.2185
  113OSM     OF11793   3.401   3.277  10.556 -0.5078 -0.4410 -0.0112
  113OSM    C2F11794   3.363   3.405  10.365  0.0876 -0.0937 -0.2050
  113OSM    H2F11795   3.399   3.505  10.397 -1.9235  1.2900 -2.0140
  113OSM    H2G11796   3.280   3.418  10.292 -1.2525 -1.9465  0.8996
  113OSM    C3F11797   3.474   3.342  10.279 -0.0955 -0.4804 -0.9087
  113OSM    H3F11798   3.443   3.244  10.236 -1.9573  0.6466 -2.2507
  113OSM    H3G11799   3.564   3.343  10.344  0.3416  0.3118 -1.5018
  113OSM    C4F11800   3.501   3.425  10.155  0.2364  0.8828 -0.4012
  113OSM    H4F11801   3.550   3.519  10.188 -0.3307  1.2642 -0.6414
  113OSM    H4G11802   3.410   3.462  10.104  1.2021  3.4054 -0.4404
  113OSM    C5F11803   3.599   3.350  10.055 -0.2606  0.2124  1.2646
  113OSM    H5F11804   3.553   3.253  10.027 -0.9032  0.2584  2.1059
  113OSM    H5G11805   3.692   3.327  10.110  0.0022 -0.2648  0.6228
  113OSM    C6F11806   3.629   3.431   9.929 -0.0946 -0.3236  1.4778
  113OSM    H6F11807   3.711   3.504   9.947  0.8632 -1.4941  1.9627
  113OSM    H6G11808   3.537   3.487   9.901 -1.2236 -2.8970 -0.4337
  113OSM    C7F11809   3.672   3.344   9.802  0.5443 -0.1541  0.4474
  113OSM    H7F11810   3.591   3.268   9.802  0.5263 -0.1338  0.1766
  113OSM    H7G11811   3.772   3.301   9.826 -0.0283 -2.2851 -0.7563
  113OSM    C8F11812   3.671   3.421   9.670  0.3884  0.8741 -0.1874
  113OSM    H8F11813   3.754   3.495   9.678 -1.3020  3.0405 -1.4528
  113OSM    H8G11814   3.577   3.479   9.670 -1.8487 -2.4773 -0.8677
  113OSM    C9F11815   3.677   3.327   9.555  0.1245  0.6522  0.3869
  113OSM    H9F11816   3.582   3.277   9.532 -0.4217  1.7656  0.1544
  113OSM   C10F11817   3.790   3.298   9.480 -0.2013  0.8820  0.1354
  113OSM   H10F11818   3.789   3.211   9.412 -0.6113 -0.9012  2.3095
  113OSM   C11F11819   3.923   3.370   9.484 -0.3010 -0.2898  0.1949
  113OSM   H11F11820   3.994   3.316   9.549 -0.8359 -0.6850  0.4538
  113OSM   H11G11821   3.921   3.477   9.514  3.5111  0.2696 -0.9360
  113OSM   C12F11822   3.989   3.397   9.346 -0.4061 -0.2898  0.1972
  113OSM   H12F11823   4.000   3.300   9.294  1.5024  0.0686 -0.1385
  113OSM   H12G11824   4.089   3.439   9.369 -0.1212  0.2075 -1.7659
  113OSM   C13F11825   3.933   3.507   9.257 -0.0525 -0.4216  0.2331
  113OSM   H13F11826   3.898   3.590   9.322  1.3368 -0.5059  1.1228
  113OSM   H13G11827   3.848   3.468   9.198  2.7962 -1.8810 -3.3094
  113OSM   C14F11828   4.031   3.552   9.148 -0.0700 -0.0441 -0.3709
  113OSM   H14F11829   4.123   3.588   9.201  0.7026 -0.7695 -1.1878
  113OSM   H14G11830   3.988   3.628   9.080  1.8466 -1.0491 -2.8738
  113OSM   C15F11831   4.085   3.440   9.058  0.3033 -0.2667  0.1427
  113OSM   H15F11832   4.000   3.387   9.011  0.7571 -2.6992  1.8576
  113OSM   H15G11833   4.135   3.365   9.123  1.4087  1.9805  2.0504
  113OSM   C16F11834   4.179   3.493   8.953 -0.4641 -0.5429 -0.1086
  113OSM   H16F11835   4.245   3.564   9.006 -0.6887 -0.5581  0.1901
  113OSM   H16G11836   4.121   3.545   8.874  0.5976  1.3338  0.3030
  113OSM   C17F11837   4.250   3.385   8.882  0.2721 -0.3832  0.2621
  113OSM   H17F11838   4.179   3.306   8.850 -0.8151  0.9792 -0.7929
  113OSM   H17G11839   4.304   3.329   8.961 -0.6570 -0.3971  0.9081
  113OSM   C18F11840   4.347   3.429   8.770 -0.1495 -0.5257  0.0030
  113OSM   H18F11841   4.408   3.518   8.796 -3.2702  2.6262 -2.3774
  113OSM   H18G11842   4.288   3.469   8.685  2.1060 -0.4154 -1.5955
  113OSM   H18H11843   4.409   3.346   8.732 -0.4729 -0.5573 -0.4622
  114OSM      N11844   0.412   6.229  10.733  1.0154  0.4670 -0.3178
  114OSM    C1511845   0.521   6.130  10.773 -0.2330 -0.4857 -0.7934
  114OSM   H15A11846   0.577   6.104  10.684  1.2608  2.3186 -0.7912
  114OSM   H15B11847   0.486   6.041  10.822  1.8848 -0.3643  1.1121
  114OSM   H15C11848   0.590   6.171  10.845 -0.0271 -3.1546  0.6060
  114OSM    C1411849   0.314   6.157  10.640 -0.3986  0.4549 -0.6319
  114OSM   H14A11850   0.272   6.063  10.674 -0.9455  0.8720 -0.1389
  114OSM   H14B11851   0.363   6.128  10.549 -1.0282 -0.6974 -0.6190
  114OSM   H14C11852   0.224   6.211  10.614 -0.6624  0.4339  0.1929
  114OSM    C1311853   0.346   6.287  10.850  0.1312  0.2466 -0.4480
  114OSM   H13A11854   0.284   6.373  10.825  0.0961  0.1981 -0.5271
  114OSM   H13B11855   0.409   6.342  10.919 -0.3867  0.0086  0.2199
  114OSM   H13C11856   0.279   6.218  10.899 -0.2868  2.2985  2.1105
  114OSM    C1211857   0.466   6.348  10.656 -0.2033  0.2151  0.5915
  114OSM   H12A11858   0.526   6.406  10.725  2.3368 -1.1959 -0.3173
  114OSM   H12B11859   0.379   6.400  10.618 -0.6487 -1.4259 -0.7482
  114OSM    C1111860   0.563   6.311  10.541 -0.4031  0.2231 -0.3303
  114OSM   H11A11861   0.583   6.402  10.480 -1.1857 -1.3878 -3.1789
  114OSM   H11B11862   0.501   6.245  10.476  0.4221 -0.9336  0.0357
  114OSM      P11863   0.812   6.312  10.622  0.1314 -0.0492  0.1213
  114OSM    O1311864   0.771   6.413  10.722 -0.0687 -0.1533 -0.5195
  114OSM    O1411865   0.916   6.222  10.675  0.1220 -0.4677  0.3097
  114OSM    O1111866   0.866   6.387  10.491 -0.0196  0.5528 -0.0882
  114OSM    O1211867   0.680   6.235  10.579 -0.3375 -0.3004  0.7809
  114OSM    C1S11868   0.961   6.313  10.404 -0.0252 -0.3420 -0.6698
  114OSM    H1S11869   0.984   6.209  10.436  3.2290  0.2186 -0.8634
  114OSM    H1T11870   1.059   6.361  10.421 -0.1649 -0.6881  1.4438
  114OSM     NF11871   1.020   6.247  10.170  0.6662 -0.1047  0.2568
  114OSM    HNF11872   1.099   6.300  10.142  2.3961 -2.5914  0.0945
  114OSM    C2S11873   0.925   6.329  10.250 -0.1333 -0.1365  0.6823
  114OSM    H2S11874   0.819   6.303  10.226 -0.2001  0.3689  0.4034
  114OSM    C3S11875   0.918   6.480  10.216 -0.2257  0.3515  0.0902
  114OSM    H3S11876   1.021   6.521  10.231 -0.7193  1.1441  1.5318
  114OSM     O311877   0.845   6.568  10.303 -0.4345  0.1054  0.7216
  114OSM    HO311878   0.822   6.509  10.375 -0.3518 -1.0639 -0.1782
  114OSM    C4S11879   0.885   6.496  10.070  0.2159 -0.0642  0.0910
  114OSM    H4S11880   0.971   6.524  10.008  0.7580  0.1031  0.9044
  114OSM    C5S11881   0.762   6.483  10.008  0.0453 -0.2032 -0.2681
  114OSM    H5S11882   0.671   6.453  10.063 -0.6816  1.5677 -0.4208
  114OSM    C6S11883   0.729   6.508   9.869  0.0872  0.1922 -0.4580
  114OSM    H6S11884   0.723   6.617   9.850  1.5230  0.1203 -1.4692
  114OSM    H6T11885   0.631   6.459   9.849 -2.4083  3.8034  1.8080
  114OSM    C7S11886   0.826   6.446   9.761  0.2641  0.0229 -0.0454
  114OSM    H7S11887   0.848   6.338   9.773  0.6325 -0.2080 -2.2942
  114OSM    H7T11888   0.921   6.503   9.753  0.6606 -0.4808  0.9928
  114OSM    C8S11889   0.752   6.449   9.625  0.3765 -0.1129  0.1344
  114OSM    H8S11890   0.711   6.552   9.622  1.8580  0.4901 -0.2961
  114OSM    H8T11891   0.674   6.371   9.636  0.7459 -0.2452  2.3157
  114OSM    C9S11892   0.849   6.437   9.505  0.8690 -0.3465  0.3089
  114OSM    H9S11893   0.927   6.362   9.532 -0.8188 -1.8765  1.1237
  114OSM    H9T11894   0.906   6.529   9.481  0.8070 -0.7538 -1.5840
  114OSM   C10S11895   0.760   6.395   9.384 -0.2371  0.4384  0.1155
  114OSM   H10S11896   0.693   6.480   9.358 -1.4105 -1.1870 -2.6796
  114OSM   H10T11897   0.704   6.300   9.399  1.8072 -1.1078 -1.3519
  114OSM   C11S11898   0.845   6.387   9.254  0.3252 -0.6382 -0.2306
  114OSM   H11S11899   0.899   6.290   9.248  0.6871 -0.4472 -0.1207
  114OSM   H11T11900   0.912   6.476   9.250 -0.5814  0.0633  0.0137
  114OSM   C12S11901   0.771   6.414   9.126  0.0603  0.1603 -0.6395
  114OSM   H12S11902   0.731   6.517   9.116 -0.9911 -0.3195 -1.6517
  114OSM   H12T11903   0.677   6.354   9.123  0.6629 -0.9608  1.2625
  114OSM   C13S11904   0.850   6.365   9.002  0.5136 -0.2986 -0.3799
  114OSM   H13S11905   0.790   6.367   8.909 -0.3915 -0.5178  0.1940
  114OSM   H13T11906   0.878   6.258   9.008  0.3260 -0.2785  1.3179
  114OSM   C14S11907   0.976   6.448   8.974  0.0859 -0.5639 -0.1106
  114OSM   H14S11908   1.047   6.408   9.050  0.7646 -1.5028 -1.1998
  114OSM   H14T11909   0.966   6.552   9.013  2.2966  0.2134 -1.4375
  114OSM   C15S11910   1.014   6.445   8.824  0.1608  0.0511  0.3973
  114OSM   H15S11911   1.030   6.554   8.807 -0.3920  0.3622  1.7083
  114OSM   H15T11912   0.933   6.408   8.759 -0.9466  0.3949  1.5320
  114OSM   C16S11913   1.150   6.380   8.794 -0.4602  0.1020 -0.6454
  114OSM   H16S11914   1.212   6.402   8.883 -0.2534  0.4809 -0.8785
  114OSM   H16T11915   1.185   6.440   8.707  2.3883  1.9253  1.5696
  114OSM   C17S11916   1.158   6.231   8.767 -0.3135  0.3380  0.0220
  114OSM   H17S11917   1.138   6.188   8.867 -0.9366 -1.5341 -0.8469
  114OSM   H17T11918   1.262   6.207   8.737 -0.7192  0.1947 -1.3567
  114OSM   C18S11919   1.057   6.174   8.667  0.3476 -0.2619 -0.0605
  114OSM   H18S11920   1.082   6.217   8.567  1.3156  1.0675  0.7203
  114OSM   H18T11921   0.951   6.200   8.683  0.0210 -1.8785  0.6186
  114OSM   H18U11922   1.042   6.064   8.655  0.8150 -0.2771 -0.5673
  114OSM    C1F11923   1.034   6.113  10.172  0.1201  0.1733  0.3461
  114OSM     OF11924   0.953   6.043  10.230  0.3146 -0.3621  0.5972
  114OSM    C2F11925   1.156   6.047  10.091  0.5734 -0.3668 -0.3956
  114OSM    H2F11926   1.241   6.118  10.101  1.1793 -0.8628 -1.7434
  114OSM    H2G11927   1.135   6.044   9.982  2.4263 -1.0289 -0.7883
  114OSM    C3F11928   1.191   5.910  10.150 -0.3222  0.2056 -0.5218
  114OSM    H3F11929   1.110   5.836  10.139  0.6354 -0.7624 -1.3868
  114OSM    H3G11930   1.212   5.924  10.258 -0.4105  4.8357 -0.8932
  114OSM    C4F11931   1.324   5.860  10.089  0.2572 -0.1522 -0.0104
  114OSM    H4F11932   1.412   5.926  10.100  0.1468 -0.1547  0.9505
  114OSM    H4G11933   1.303   5.857   9.980  0.2192  1.8223 -0.0803
  114OSM    C5F11934   1.350   5.725  10.144 -0.1346  0.1911 -0.3472
  114OSM    H5F11935   1.265   5.655  10.135  0.2760 -0.4177  0.3302
  114OSM    H5G11936   1.364   5.730  10.254  1.4977 -0.2696 -0.5063
  114OSM    C6F11937   1.482   5.665  10.106  0.1613  0.5329  0.7965
  114OSM    H6F11938   1.517   5.596  10.186 -0.3800 -0.4188  0.2406
  114OSM    H6G11939   1.549   5.753  10.103 -2.8010  2.9698 -1.6772
  114OSM    C7F11940   1.475   5.592   9.973  0.2162  0.4337  0.3717
  114OSM    H7F11941   1.443   5.671   9.901 -0.9946  1.2446  1.7514
  114OSM    H7G11942   1.398   5.513   9.981  1.9397 -1.2038  1.6734
  114OSM    C8F11943   1.609   5.514   9.949  0.9062  0.1044 -0.3894
  114OSM    H8F11944   1.694   5.578   9.982  1.9552 -0.6374 -1.5657
  114OSM    H8G11945   1.623   5.512   9.839  2.9069 -0.5977 -0.1771
  114OSM    C9F11946   1.622   5.375  10.005 -0.6938  0.4870  0.3976
  114OSM    H9F11947   1.624   5.375  10.115  1.7701  0.2637  0.4201
  114OSM   C10F11948   1.628   5.259   9.937  0.7190  0.2578 -0.4984
  114OSM   H10F11949   1.642   5.165   9.992 -0.8934  1.1433  1.5363
  114OSM   C11F11950   1.634   5.251   9.787 -0.1251  0.2792 -0.2401
  114OSM   H11F11951   1.580   5.340   9.748 -2.4807 -1.6609 -1.7283
  114OSM   H11G11952   1.576   5.164   9.748 -0.4213  0.1712  0.4349
  114OSM   C12F11953   1.777   5.234   9.738  0.6579  0.0050 -0.4751
  114OSM   H12F11954   1.824   5.142   9.777 -1.2776 -1.8102 -2.1392
  114OSM   H12G11955   1.833   5.316   9.787  0.4887 -0.1794  0.0361
  114OSM   C13F11956   1.792   5.243   9.585 -0.1432  0.0605 -0.0426
  114OSM   H13F11957   1.754   5.340   9.547 -3.2927 -0.7359  0.8115
  114OSM   H13G11958   1.722   5.167   9.545  0.9938 -0.4465 -1.1455
  114OSM   C14F11959   1.931   5.207   9.531  0.4368  0.1874 -0.6329
  114OSM   H14F11960   1.946   5.098   9.539 -0.0181  0.2173  0.9304
  114OSM   H14G11961   2.014   5.264   9.578 -0.6721  0.3653  1.2132
  114OSM   C15F11962   1.945   5.232   9.374  0.1599  0.8057  0.2274
  114OSM   H15F11963   2.051   5.215   9.343  0.2689  0.4282  0.7816
  114OSM   H15G11964   1.924   5.339   9.353 -2.2213  0.7451  1.9413
  114OSM   C16F11965   1.849   5.141   9.300  1.1597  0.6714 -0.1680
  114OSM   H16F11966   1.752   5.192   9.318  2.4101  2.5412  1.9001
  114OSM   H16G11967   1.841   5.040   9.344  1.2510  1.2162  1.1632
  114OSM   C17F11968   1.875   5.147   9.149  0.0629  0.0450 -0.1565
  114OSM   H17F11969   1.979   5.131   9.115 -0.7492 -2.0750 -1.9464
  114OSM   H17G11970   1.856   5.254   9.126 -1.4786 -0.4112 -1.1818
  114OSM   C18F11971   1.773   5.052   9.071  0.0365  0.6034 -0.0990
  114OSM   H18F11972   1.825   5.014   8.981  0.7007 -1.5096  1.0987
  114OSM   H18G11973   1.677   5.103   9.049  0.0471  0.7400  0.1552
  114OSM   H18H11974   1.756   4.958   9.128 -1.9665 -0.0718 -1.7260
  115OSM      N11975   3.471   6.031  10.828 -0.3559  0.7118 -0.2133
  115OSM    C1511976   3.445   5.924  10.925 -0.3179 -0.3360 -0.4432
  115OSM   H15A11977   3.338   5.912  10.934 -0.3455  0.0282 -0.2520
  115OSM   H15B11978   3.460   5.953  11.028 -0.6310 -1.4341 -0.0819
  115OSM   H15C11979   3.491   5.829  10.903 -0.6129 -0.4236 -0.6890
  115OSM    C1411980   3.402   6.154  10.885 -0.2854  0.2513  0.4794
  115OSM   H14A11981   3.373   6.219  10.804  0.0704 -1.1939 -0.8666
  115OSM   H14B11982   3.459   6.221  10.948  2.0894 -1.4762  0.3133
  115OSM   H14C11983   3.305   6.123  10.923 -0.7794  1.3594  0.1663
  115OSM    C1311984   3.616   6.057  10.819 -0.2553 -0.3405 -0.3862
  115OSM   H13A11985   3.672   5.991  10.753  1.8121  0.7766  0.1793
  115OSM   H13B11986   3.666   6.067  10.914 -2.6184 -0.0424  0.8940
  115OSM   H13C11987   3.630   6.156  10.780  0.4827  0.5819  2.1084
  115OSM    C1211988   3.409   5.999  10.700 -0.7575 -0.2114  0.6191
  115OSM   H12A11989   3.422   6.082  10.632 -1.8598 -0.3109  0.2603
  115OSM   H12B11990   3.302   5.987  10.704 -0.9823  1.1775 -0.5513
  115OSM    C1111991   3.458   5.870  10.635  0.6853 -0.7831  0.4000
  115OSM   H11A11992   3.568   5.860  10.642  0.5605 -1.9783  0.8181
  115OSM   H11B11993   3.437   5.885  10.527  3.5040  2.3055  0.1501
  115OSM      P11994   3.256   5.700  10.639 -0.0457  0.3845 -0.1332
  115OSM    O1311995   3.202   5.598  10.730  0.0481  0.2079  0.9476
  115OSM    O1411996   3.172   5.817  10.605  0.3991  0.2705 -0.1984
  115OSM    O1111997   3.297   5.631  10.502  0.7113  0.7857  0.5191
  115OSM    O1211998   3.398   5.755  10.698 -0.0742 -0.3506 -0.0435
  115OSM    C1S11999   3.294   5.486  10.495 -0.8337  0.0256 -0.5586
  115OSM    H1S12000   3.199   5.442  10.532 -0.0723 -0.7800  0.4838
  115OSM    H1T12001   3.375   5.444  10.559  0.8504 -0.3122 -2.7979
  115OSM     NF12002   3.292   5.300  10.349  0.1351 -0.0274  0.6130
  115OSM    HNF12003   3.363   5.235  10.375  2.1241  1.9913  0.5566
  115OSM    C2S12004   3.327   5.442  10.354  0.4631  0.2720  0.0297
  115OSM    H2S12005   3.255   5.492  10.285 -0.9887 -2.7774 -0.8675
  115OSM    C3S12006   3.470   5.483  10.313 -0.0765 -0.4694  0.1959
  115OSM    H3S12007   3.539   5.413  10.367  2.2103  0.4798 -1.3474
  115OSM     O312008   3.525   5.611  10.348 -0.0499 -0.2510 -0.1507
  115OSM    HO312009   3.449   5.642  10.399  0.2460 -1.1915  0.9081
  115OSM    C4S12010   3.500   5.450  10.170 -0.0102  0.5184  0.1987
  115OSM    H4S12011   3.513   5.342  10.152  1.9601  0.9691 -1.3769
  115OSM    C5S12012   3.494   5.533  10.062  0.4829 -0.5489  0.1550
  115OSM    H5S12013   3.457   5.635  10.083 -1.9511 -1.0360 -1.3730
  115OSM    C6S12014   3.509   5.506   9.914  0.4036  0.1796  0.3795
  115OSM    H6S12015   3.580   5.584   9.878  0.4841  0.5756  1.3694
  115OSM    H6T12016   3.421   5.539   9.855  0.2815 -1.2934 -0.3116
  115OSM    C7S12017   3.555   5.365   9.868 -0.4602 -0.7074 -0.1690
  115OSM    H7S12018   3.471   5.300   9.900 -0.1518  0.3633  3.2093
  115OSM    H7T12019   3.640   5.327   9.930 -0.8570 -1.4674 -0.0760
  115OSM    C8S12020   3.597   5.352   9.717 -0.4674 -0.3287  0.1347
  115OSM    H8S12021   3.630   5.248   9.699 -0.6083 -0.4394  0.5051
  115OSM    H8T12022   3.692   5.401   9.688 -2.1001  2.4200 -0.9961
  115OSM    C9S12023   3.490   5.403   9.624 -0.1397 -0.1028 -0.3581
  115OSM    H9S12024   3.502   5.513   9.611 -0.3872 -0.2290 -1.7855
  115OSM    H9T12025   3.390   5.387   9.669  0.9420  0.8288  2.6681
  115OSM   C10S12026   3.508   5.340   9.485 -0.5665 -0.0801  0.1779
  115OSM   H10S12027   3.489   5.230   9.476  0.8853 -0.4994  1.8148
  115OSM   H10T12028   3.614   5.355   9.457 -0.7955  1.6849  0.1508
  115OSM   C11S12029   3.421   5.415   9.381 -0.3005  0.4275 -0.4099
  115OSM   H11S12030   3.447   5.521   9.403 -0.0970 -0.0600  1.9775
  115OSM   H11T12031   3.318   5.389   9.411  0.1821 -0.5605  0.4778
  115OSM   C12S12032   3.444   5.365   9.242 -0.7763 -0.0527  0.1116
  115OSM   H12S12033   3.437   5.254   9.241  0.0587 -0.1686  2.1926
  115OSM   H12T12034   3.550   5.377   9.210 -1.3741  0.1883 -1.9135
  115OSM   C13S12035   3.352   5.416   9.131 -0.1216  0.0695 -0.6885
  115OSM   H13S12036   3.336   5.526   9.131 -4.3826 -0.3511 -0.8210
  115OSM   H13T12037   3.250   5.375   9.149 -0.1824  0.1933 -0.7504
  115OSM   C14S12038   3.404   5.378   8.994  0.4777  0.1842  0.6415
  115OSM   H14S12039   3.359   5.278   8.980  2.4959 -0.5775 -0.9715
  115OSM   H14T12040   3.515   5.369   8.992  0.4146 -0.6187  0.2648
  115OSM   C15S12041   3.356   5.468   8.876  0.2749  0.6847  0.3609
  115OSM   H15S12042   3.388   5.571   8.905 -1.3168  1.0638  0.8992
  115OSM   H15T12043   3.246   5.480   8.884 -0.2253 -1.9999 -1.4348
  115OSM   C16S12044   3.425   5.431   8.742  0.1358 -0.6121 -0.4495
  115OSM   H16S12045   3.532   5.410   8.763  0.2252  1.9415  2.2111
  115OSM   H16T12046   3.412   5.523   8.681  0.0333  0.2747  0.8825
  115OSM   C17S12047   3.366   5.314   8.666 -0.4247 -0.5181  0.0776
  115OSM   H17S12048   3.396   5.217   8.709  0.7389  0.5235  1.7320
  115OSM   H17T12049   3.399   5.323   8.560  1.3477 -0.4133  0.5990
  115OSM   C18S12050   3.209   5.315   8.670  0.0782 -0.1487  0.0291
  115OSM   H18S12051   3.177   5.248   8.588  1.5546 -2.3041  1.1241
  115OSM   H18T12052   3.179   5.419   8.647 -1.3415 -0.3296  0.9889
  115OSM   H18U12053   3.169   5.292   8.771  0.4115 -1.1432 -0.0576
  115OSM    C1F12054   3.164   5.263  10.367 -0.0018  1.1124 -0.1052
  115OSM     OF12055   3.070   5.339  10.376 -0.6564 -0.7915 -0.4061
  115OSM    C2F12056   3.138   5.112  10.388 -0.5370 -0.2606 -0.4528
  115OSM    H2F12057   3.159   5.088  10.494 -0.3673  2.6221  0.2625
  115OSM    H2G12058   3.201   5.046  10.324 -1.5002 -0.2185 -1.4824
  115OSM    C3F12059   2.989   5.067  10.361 -0.2310 -0.1808  0.8204
  115OSM    H3F12060   2.917   5.116  10.429  0.2323  2.0386 -0.1931
  115OSM    H3G12061   2.998   4.963  10.399  1.7139  0.1711  1.4263
  115OSM    C4F12062   2.957   5.077  10.213  0.3674 -0.0622 -0.2928
  115OSM    H4F12063   3.048   5.036  10.165  0.3970 -0.9007  0.4580
  115OSM    H4G12064   2.954   5.185  10.187  1.2062  0.1861  0.5733
  115OSM    C5F12065   2.831   5.009  10.154 -0.0397 -0.7298 -0.1801
  115OSM    H5F12066   2.742   5.066  10.190  0.5399 -0.3397  0.6580
  115OSM    H5G12067   2.818   4.905  10.189  0.6432 -0.5833  0.5207
  115OSM    C6F12068   2.820   5.021  10.005 -0.0446  0.0027 -0.9626
  115OSM    H6F12069   2.912   4.979   9.959 -0.2844 -1.1218 -0.4543
  115OSM    H6G12070   2.815   5.128   9.978  0.7056  0.2174 -0.3066
  115OSM    C7F12071   2.698   4.953   9.939  0.1462 -0.0058 -1.6448
  115OSM    H7F12072   2.604   4.972   9.996  1.0676  0.1382 -0.1069
  115OSM    H7G12073   2.717   4.844   9.940  1.5118  0.1941 -2.5627
  115OSM    C8F12074   2.682   5.005   9.793  0.2387 -0.1097  0.0896
  115OSM    H8F12075   2.658   5.113   9.796 -0.8403 -0.3507  0.9748
  115OSM    H8G12076   2.590   4.959   9.751  1.7963 -0.5577 -3.0848
  115OSM    C9F12077   2.788   4.965   9.696 -0.3508  0.4879  0.0259
  115OSM    H9F12078   2.884   5.019   9.698 -0.1697  0.4270 -3.0025
  115OSM   C10F12079   2.782   4.860   9.611 -0.5566 -0.0878  0.3048
  115OSM   H10F12080   2.864   4.864   9.537  0.2100 -1.9077  0.9927
  115OSM   C11F12081   2.669   4.773   9.568  1.0102  0.1983  0.8607
  115OSM   H11F12082   2.566   4.811   9.582  0.8558 -0.1305  0.6354
  115OSM   H11G12083   2.674   4.691   9.642 -2.8429  0.3168  1.4608
  115OSM   C12F12084   2.691   4.714   9.426 -0.2672  0.3002 -0.2467
  115OSM   H12F12085   2.650   4.611   9.414  1.4917 -0.4097 -0.3870
  115OSM   H12G12086   2.800   4.699   9.414 -0.1420  1.7034 -1.0098
  115OSM   C13F12087   2.630   4.796   9.313 -0.3470  0.6791  0.0310
  115OSM   H13F12088   2.648   4.901   9.343 -0.3150  0.4642  0.7705
  115OSM   H13G12089   2.524   4.765   9.325  0.4595 -1.7288  1.6686
  115OSM   C14F12090   2.680   4.750   9.175  0.7815 -0.1079 -0.1474
  115OSM   H14F12091   2.661   4.641   9.167  0.3910 -0.1340  0.9755
  115OSM   H14G12092   2.790   4.750   9.161  0.4753 -0.1436 -3.4946
  115OSM   C15F12093   2.623   4.823   9.049  0.3730 -0.1824 -0.5082
  115OSM   H15F12094   2.641   4.933   9.046  2.1146 -0.4477 -2.6303
  115OSM   H15G12095   2.514   4.800   9.046  0.1037  0.8142  0.7404
  115OSM   C16F12096   2.695   4.778   8.924 -0.0721  0.0485  0.1905
  115OSM   H16F12097   2.701   4.667   8.919 -3.2625 -0.2184  0.0466
  115OSM   H16G12098   2.795   4.826   8.932 -0.5022  0.9626  0.1362
  115OSM   C17F12099   2.625   4.830   8.796 -0.0353  0.2572 -0.1644
  115OSM   H17F12100   2.637   4.940   8.796 -0.0723  0.2624 -0.0161
  115OSM   H17G12101   2.518   4.798   8.800  0.2127 -0.5520  0.6268
  115OSM   C18F12102   2.691   4.784   8.667  0.0429  0.5576 -0.3526
  115OSM   H18F12103   2.690   4.673   8.677  1.6297  0.6005  0.4621
  115OSM   H18G12104   2.794   4.824   8.657  1.9549 -2.8718  2.8788
  115OSM   H18H12105   2.621   4.825   8.591 -1.3833 -0.9328  0.0852
  116OSM      N12106   0.392   1.269  10.816  0.2142  1.2266 -0.5359
  116OSM    C1512107   0.326   1.173  10.719 -0.3490  0.2541  0.5203
  116OSM   H15A12108   0.290   1.083  10.766 -0.2666 -0.0687 -0.0256
  116OSM   H15B12109   0.390   1.146  10.636 -0.8302 -1.8752  0.8011
  116OSM   H15C12110   0.240   1.224  10.680  1.7568  2.2496 -1.8925
  116OSM    C1412111   0.298   1.271  10.937  0.0301 -0.2090 -0.4419
  116OSM   H14A12112   0.278   1.174  10.982  1.6982  0.2860  1.5306
  116OSM   H14B12113   0.204   1.321  10.919 -0.7129 -0.3303  2.4491
  116OSM   H14C12114   0.339   1.347  11.002  2.0919 -2.1433  0.6831
  116OSM    C1312115   0.521   1.206  10.854  0.3569  0.9772  0.2014
  116OSM   H13A12116   0.588   1.187  10.772  1.2460  0.4784  1.0228
  116OSM   H13B12117   0.505   1.110  10.901 -1.2192  0.8965 -0.4123
  116OSM   H13C12118   0.592   1.259  10.915  1.3704 -1.1587  0.9688
  116OSM    C1212119   0.432   1.400  10.755  0.0154  0.0294  0.2889
  116OSM   H12A12120   0.531   1.400  10.712 -0.7091 -2.8871 -1.6706
  116OSM   H12B12121   0.443   1.477  10.830 -0.5235  2.0638 -1.6146
  116OSM    C1112122   0.333   1.454  10.643  0.2160  0.1775 -0.1319
  116OSM   H11A12123   0.343   1.384  10.557 -0.5879 -1.6045  1.1683
  116OSM   H11B12124   0.371   1.548  10.598  1.0428 -0.1816 -0.2113
  116OSM      P12125   0.156   1.553  10.811 -0.0220 -0.0217 -0.5990
  116OSM    O1312126   0.042   1.499  10.890  0.7013  0.5203  0.0975
  116OSM    O1412127   0.273   1.592  10.883 -0.5604  0.1742 -0.0143
  116OSM    O1112128   0.096   1.681  10.747 -0.4188  0.1686  0.2834
  116OSM    O1212129   0.194   1.452  10.688  0.0346 -0.0809 -0.0839
  116OSM    C1S12130   0.032   1.696  10.616  0.1796 -0.2542 -0.5685
  116OSM    H1S12131   0.079   1.646  10.529 -0.4430 -1.2001 -0.3754
  116OSM    H1T12132   0.049   1.800  10.582  0.9246  0.5157  1.8926
  116OSM     NF12133  -0.172   1.733  10.496 -1.1116 -0.3160 -0.5850
  116OSM    HNF12134  -0.240   1.806  10.502  1.1048  1.9484 -1.0770
  116OSM    C2S12135  -0.121   1.676  10.617  0.0589 -0.0745  0.2495
  116OSM    H2S12136  -0.142   1.567  10.620  1.7007 -0.4035  1.1633
  116OSM    C3S12137  -0.191   1.749  10.736  0.2781  0.1151 -0.7111
  116OSM    H3S12138  -0.161   1.856  10.742 -0.5812  0.3433 -0.3314
  116OSM     O312139  -0.177   1.691  10.867  0.7169 -0.3117 -0.4805
  116OSM    HO312140  -0.123   1.612  10.857  0.7631 -0.3718  0.1905
  116OSM    C4S12141  -0.344   1.752  10.705  1.1819 -0.2204 -0.5486
  116OSM    H4S12142  -0.386   1.852  10.689 -1.3985 -1.0821  0.4395
  116OSM    C5S12143  -0.439   1.657  10.716  0.3105  0.1202  0.7518
  116OSM    H5S12144  -0.406   1.556  10.743  1.8482 -0.2650 -2.2395
  116OSM    C6S12145  -0.588   1.680  10.687 -0.4026  0.4217 -0.0774
  116OSM    H6S12146  -0.623   1.785  10.682 -1.1716  0.1539 -0.4687
  116OSM    H6T12147  -0.637   1.635  10.776  2.0780  2.5845  2.6201
  116OSM    C7S12148  -0.633   1.613  10.555 -0.3678 -0.3148  0.2185
  116OSM    H7S12149  -0.744   1.613  10.559 -0.3627  0.2765  3.8054
  116OSM    H7T12150  -0.608   1.505  10.561  0.1525 -0.1515  1.0957
  116OSM    C8S12151  -0.587   1.688  10.433  0.5083  0.4790  0.1920
  116OSM    H8S12152  -0.478   1.673  10.418  1.0784  1.1158  3.0728
  116OSM    H8T12153  -0.584   1.798  10.452 -1.4624  0.1128  3.3409
  116OSM    C9S12154  -0.673   1.653  10.307 -0.0054  0.1343 -0.7662
  116OSM    H9S12155  -0.780   1.671  10.333  0.0842  1.1378 -1.0523
  116OSM    H9T12156  -0.670   1.545  10.282 -1.6411  0.3789 -2.2539
  116OSM   C10S12157  -0.620   1.733  10.182 -0.8060  0.9640 -0.2626
  116OSM   H10S12158  -0.513   1.702  10.171 -0.8699  0.1189  1.2329
  116OSM   H10T12159  -0.638   1.842  10.194  0.9730  1.2146  0.5561
  116OSM   C11S12160  -0.689   1.686  10.056  0.7392  0.4719  0.2259
  116OSM   H11S12161  -0.797   1.711  10.067  0.6216 -0.3454  1.1429
  116OSM   H11T12162  -0.691   1.575  10.058 -1.2834  0.4459 -0.5323
  116OSM   C12S12163  -0.632   1.723   9.919 -0.0708 -0.1636  0.4355
  116OSM   H12S12164  -0.544   1.656   9.906  0.5367  0.5619  0.7069
  116OSM   H12T12165  -0.585   1.824   9.925 -0.4952  0.0719 -0.1975
  116OSM   C13S12166  -0.726   1.703   9.801  0.5008 -0.3340  0.0478
  116OSM   H13S12167  -0.818   1.764   9.812  0.5328 -0.3886  0.6626
  116OSM   H13T12168  -0.741   1.593   9.795  2.4568 -0.5652 -1.5072
  116OSM   C14S12169  -0.668   1.737   9.665  0.7515 -0.2184  0.1062
  116OSM   H14S12170  -0.572   1.683   9.654  0.6498 -1.1162  2.8311
  116OSM   H14T12171  -0.652   1.846   9.653  0.6165 -0.3157 -1.0934
  116OSM   C15S12172  -0.759   1.676   9.553 -0.5862  0.2549 -0.3191
  116OSM   H15S12173  -0.861   1.695   9.591  0.0993 -0.1885  1.8754
  116OSM   H15T12174  -0.746   1.566   9.544 -1.9695 -0.0062  0.6628
  116OSM   C16S12175  -0.734   1.741   9.410  0.0858 -0.1742 -0.3423
  116OSM   H16S12176  -0.632   1.726   9.370  0.1439 -0.9904  0.0956
  116OSM   H16T12177  -0.751   1.849   9.427  1.1789 -0.0254 -0.1280
  116OSM   C17S12178  -0.830   1.693   9.305  0.6125  0.7944  0.2712
  116OSM   H17S12179  -0.932   1.730   9.331  0.1181 -0.7407  0.6391
  116OSM   H17T12180  -0.851   1.584   9.309  0.0221  0.8829 -0.1986
  116OSM   C18S12181  -0.816   1.747   9.160 -0.0100  0.1852 -0.0269
  116OSM   H18S12182  -0.738   1.677   9.123  0.8165 -0.0937  2.0532
  116OSM   H18T12183  -0.766   1.846   9.147  4.4104 -1.6653  0.8650
  116OSM   H18U12184  -0.907   1.730   9.099  0.2970 -0.5731 -0.2872
  116OSM    C1F12185  -0.138   1.690  10.369  0.0273 -0.1350 -0.4744
  116OSM     OF12186  -0.079   1.589  10.346  0.3968  0.0798  0.3614
  116OSM    C2F12187  -0.163   1.787  10.258  0.1951 -0.5614 -0.3249
  116OSM    H2F12188  -0.080   1.861  10.254  0.6328 -0.8421  2.2817
  116OSM    H2G12189  -0.255   1.841  10.287  1.3384  0.3279  1.9057
  116OSM    C3F12190  -0.193   1.719  10.120 -0.5827 -0.4546 -0.1296
  116OSM    H3F12191  -0.274   1.644  10.131  0.9830 -2.1749  0.1987
  116OSM    H3G12192  -0.104   1.655  10.100 -1.1418 -0.8809 -1.3470
  116OSM    C4F12193  -0.224   1.819  10.003 -0.3613  0.3063 -0.1144
  116OSM    H4F12194  -0.140   1.892  10.008 -0.6293  0.6850 -0.8549
  116OSM    H4G12195  -0.317   1.876  10.024  0.3454  0.7629  2.0486
  116OSM    C5F12196  -0.221   1.755   9.857  0.1573  0.1423 -0.1325
  116OSM    H5F12197  -0.307   1.684   9.850 -0.0464  0.5054 -1.7047
  116OSM    H5G12198  -0.125   1.706   9.832  0.0328  0.7367 -1.8967
  116OSM    C6F12199  -0.230   1.848   9.740  0.4161  0.2470 -0.7843
  116OSM    H6F12200  -0.240   1.803   9.639 -2.9425  1.7251 -1.2428
  116OSM    H6G12201  -0.133   1.901   9.748 -0.3178  1.4819  0.2741
  116OSM    C7F12202  -0.348   1.947   9.741 -0.4071  1.1752 -0.5938
  116OSM    H7F12203  -0.333   2.004   9.836  0.0078 -2.1020  1.4601
  116OSM    H7G12204  -0.444   1.894   9.753  1.8521 -3.1592  0.4001
  116OSM    C8F12205  -0.348   2.028   9.612  0.4853 -0.3063  0.4156
  116OSM    H8F12206  -0.248   2.077   9.610 -0.9368  3.0221 -3.5859
  116OSM    H8G12207  -0.431   2.101   9.618 -1.4184 -2.3712  0.2659
  116OSM    C9F12208  -0.376   1.960   9.478  0.0820 -0.6650 -0.5035
  116OSM    H9F12209  -0.461   1.891   9.489 -0.1342 -0.0488  2.5032
  116OSM   C10F12210  -0.297   1.957   9.372  0.0327 -0.4876 -0.1242
  116OSM   H10F12211  -0.345   1.892   9.298 -2.5482 -1.3336  2.1478
  116OSM   C11F12212  -0.151   2.002   9.341 -0.1420  0.8256  0.7116
  116OSM   H11F12213  -0.087   1.913   9.320 -1.6943 -0.4146  1.0494
  116OSM   H11G12214  -0.096   2.045   9.428  2.2435  1.0428 -0.8014
  116OSM   C12F12215  -0.136   2.095   9.220  0.0066  0.0326 -0.2792
  116OSM   H12F12216  -0.045   2.157   9.235  0.9637 -1.5212  0.5900
  116OSM   H12G12217  -0.217   2.171   9.220  0.5701  0.6466  0.1705
  116OSM   C13F12218  -0.158   2.025   9.081 -0.4492  0.2768 -0.0874
  116OSM   H13F12219  -0.260   1.981   9.076  1.3519 -4.4995  0.3300
  116OSM   H13G12220  -0.091   1.936   9.080 -1.1427 -0.3701  2.7802
  116OSM   C14F12221  -0.142   2.117   8.957  0.5579  0.2208 -0.0925
  116OSM   H14F12222  -0.045   2.170   8.963  0.5349  0.3769 -1.0802
  116OSM   H14G12223  -0.222   2.193   8.970  0.1394 -0.5730  2.9709
  116OSM   C15F12224  -0.157   2.040   8.826  0.0731 -0.8336 -0.3079
  116OSM   H15F12225  -0.241   1.970   8.849 -0.7932  0.7743  1.6624
  116OSM   H15G12226  -0.066   1.981   8.798  0.3757 -0.0726 -0.9561
  116OSM   C16F12227  -0.195   2.130   8.704 -0.6816 -0.4057  0.0275
  116OSM   H16F12228  -0.132   2.222   8.700 -1.9662  0.4409 -1.2917
  116OSM   H16G12229  -0.290   2.186   8.719 -0.2991  0.2957 -0.1019
  116OSM   C17F12230  -0.193   2.050   8.581 -0.2399 -0.1540  1.3452
  116OSM   H17F12231  -0.262   1.963   8.587 -0.1365 -0.6662 -2.3061
  116OSM   H17G12232  -0.097   2.001   8.553  0.0260  1.3062 -0.4486
  116OSM   C18F12233  -0.215   2.144   8.462  0.7708  0.1563 -0.2522
  116OSM   H18F12234  -0.126   2.210   8.453  2.7891 -1.4423  4.3311
  116OSM   H18G12235  -0.310   2.202   8.465  0.3423 -0.5563  0.3321
  116OSM   H18H12236  -0.221   2.082   8.370  1.6549 -2.0321  1.0787
  117OSM      N12237   3.667   2.268  10.932  0.2315  0.2369 -0.4279
  117OSM    C1512238   3.640   2.127  10.888  0.0147  0.6998  0.9223
  117OSM   H15A12239   3.534   2.110  10.900 -0.0924 -0.6667 -1.3886
  117OSM   H15B12240   3.681   2.043  10.942 -0.2075 -1.1955 -1.7016
  117OSM   H15C12241   3.679   2.117  10.788  0.1671 -0.2834  1.0738
  117OSM    C1412242   3.595   2.279  11.066 -0.1290 -0.7782 -0.1049
  117OSM   H14A12243   3.624   2.378  11.098  1.3270 -1.7053  1.5993
  117OSM   H14B12244   3.636   2.216  11.143  1.9981  1.1099  0.4123
  117OSM   H14C12245   3.488   2.279  11.050 -0.4649  5.4903 -0.4047
  117OSM    C1312246   3.813   2.285  10.961 -0.1755  0.5247 -0.0682
  117OSM   H13A12247   3.868   2.210  11.017  0.3862  0.0427 -1.2422
  117OSM   H13B12248   3.827   2.386  10.997 -0.7512  1.5616 -2.5943
  117OSM   H13C12249   3.872   2.291  10.871 -1.1930  3.0296 -0.6570
  117OSM    C1212250   3.614   2.363  10.839  0.0560  0.6482  0.9833
  117OSM   H12A12251   3.507   2.355  10.824  0.2406 -1.0981  0.4073
  117OSM   H12B12252   3.670   2.349  10.748  3.1253 -0.4790  2.8671
  117OSM    C1112253   3.651   2.517  10.867  0.3273 -0.0329  0.0240
  117OSM   H11A12254   3.629   2.572  10.773  1.3898 -0.5727 -0.5620
  117OSM   H11B12255   3.756   2.540  10.895 -0.4821  0.9914  2.4867
  117OSM      P12256   3.434   2.625  10.960  0.1202  0.0425  0.0285
  117OSM    O1312257   3.351   2.512  10.932  0.0845  0.5560  0.6684
  117OSM    O1412258   3.385   2.701  11.075  0.2034 -0.2552 -0.0838
  117OSM    O1112259   3.436   2.707  10.824 -0.1289 -0.8359  0.3411
  117OSM    O1212260   3.575   2.574  10.975  0.0380  0.0475 -0.0987
  117OSM    C1S12261   3.495   2.838  10.826 -0.5317  0.4002  0.0450
  117OSM    H1S12262   3.604   2.838  10.848 -0.5065  2.3755  0.0649
  117OSM    H1T12263   3.440   2.912  10.887  0.7124  0.6676  0.8689
  117OSM     NF12264   3.573   3.016  10.658  0.6569  0.7723  0.0761
  117OSM    HNF12265   3.519   3.089  10.617  1.0226  0.8338 -0.3029
  117OSM    C2S12266   3.499   2.892  10.671  0.2235 -0.0998 -0.7886
  117OSM    H2S12267   3.562   2.816  10.620  0.5329  0.6365 -1.5229
  117OSM    C3S12268   3.356   2.902  10.607 -0.8663 -0.7212  0.5549
  117OSM    H3S12269   3.297   2.993  10.630 -0.8828 -0.7134  0.4801
  117OSM     O312270   3.274   2.792  10.646  0.5413  0.0191  0.5956
  117OSM    HO312271   3.332   2.750  10.710  0.4729 -0.5600  0.2809
  117OSM    C4S12272   3.378   2.891  10.457 -0.2411  0.0148 -0.2480
  117OSM    H4S12273   3.467   2.828  10.440  0.4342  0.2388  2.1918
  117OSM    C5S12274   3.306   2.942  10.358 -0.3907  0.1991 -0.0600
  117OSM    H5S12275   3.207   2.985  10.377 -0.6474 -1.0576  1.6652
  117OSM    C6S12276   3.344   2.944  10.210  0.6376 -0.4791  0.0177
  117OSM    H6S12277   3.320   3.052  10.194  0.1461 -0.7311 -0.9987
  117OSM    H6T12278   3.284   2.875  10.147 -0.2785  0.9282 -0.7059
  117OSM    C7S12279   3.481   2.901  10.183  0.0352 -0.0216  0.1619
  117OSM    H7S12280   3.503   2.798  10.220  0.1518  0.5621  1.7936
  117OSM    H7T12281   3.551   2.969  10.236  0.7787 -0.9323  0.3696
  117OSM    C8S12282   3.519   2.917  10.034 -0.0846  0.3955  0.2791
  117OSM    H8S12283   3.630   2.912  10.031 -0.1216 -0.1761 -1.4419
  117OSM    H8T12284   3.488   3.022  10.014  0.1312  0.2490 -0.8857
  117OSM    C9S12285   3.456   2.809   9.945 -0.0542 -0.2446 -0.2598
  117OSM    H9S12286   3.345   2.817   9.953 -0.0582 -1.7226  2.3728
  117OSM    H9T12287   3.470   2.707   9.987 -1.1951  0.0852  1.0175
  117OSM   C10S12288   3.492   2.827   9.798 -0.2421 -0.6690  1.2604
  117OSM   H10S12289   3.421   2.758   9.747  0.1286  0.1181 -0.3471
  117OSM   H10T12290   3.597   2.795   9.782 -0.1311  0.7693 -1.4447
  117OSM   C11S12291   3.467   2.973   9.748 -0.0762  0.1383 -0.2595
  117OSM   H11S12292   3.563   3.029   9.753 -1.9785  3.6506 -0.0418
  117OSM   H11T12293   3.388   3.023   9.809  0.0371 -0.0301  0.0286
  117OSM   C12S12294   3.409   2.993   9.606  0.1018  0.3517 -0.1716
  117OSM   H12S12295   3.361   3.092   9.588 -0.2676  0.0886 -0.6676
  117OSM   H12T12296   3.335   2.913   9.583  2.1044 -1.8908  0.7250
  117OSM   C13S12297   3.519   2.981   9.500 -0.4966  0.2972 -0.2260
  117OSM   H13S12298   3.575   2.886   9.513 -0.6326  0.5356  2.5821
  117OSM   H13T12299   3.595   3.059   9.521  1.0169 -1.5452  1.5182
  117OSM   C14S12300   3.466   2.999   9.361 -0.1918  0.5951 -0.2878
  117OSM   H14S12301   3.406   3.092   9.359  1.2231  1.9156  4.6604
  117OSM   H14T12302   3.392   2.920   9.338  0.8195 -1.1353  1.9696
  117OSM   C15S12303   3.580   3.019   9.266 -0.0479  0.4652 -1.0271
  117OSM   H15S12304   3.654   2.936   9.276  0.5110  1.0920  0.2240
  117OSM   H15T12305   3.642   3.110   9.284 -2.6469  1.9510  1.0739
  117OSM   C16S12306   3.537   3.003   9.112 -0.2774 -0.2361  0.0409
  117OSM   H16S12307   3.464   3.085   9.097  1.7306  1.8712  1.0840
  117OSM   H16T12308   3.481   2.907   9.101 -1.5868  0.6316 -1.2455
  117OSM   C17S12309   3.646   3.008   9.005 -0.1719  0.4128  0.1159
  117OSM   H17S12310   3.716   2.923   9.017  1.4306  1.5252 -1.0192
  117OSM   H17T12311   3.721   3.087   9.027 -0.3725  0.2407  1.5152
  117OSM   C18S12312   3.582   3.021   8.871  0.4934  0.4875  0.2742
  117OSM   H18S12313   3.655   3.031   8.788  0.6234 -2.0660 -0.0032
  117OSM   H18T12314   3.519   3.112   8.863 -2.2521 -1.1212  2.0470
  117OSM   H18U12315   3.514   2.935   8.853  0.3159  0.7485 -0.3352
  117OSM    C1F12316   3.705   3.027  10.666 -0.2201  0.0993  0.2773
  117OSM     OF12317   3.783   2.937  10.706  0.3252  0.0938  0.2457
  117OSM    C2F12318   3.767   3.165  10.630  0.8315 -0.3155  0.6337
  117OSM    H2F12319   3.826   3.200  10.717  0.4660  0.9282  0.3994
  117OSM    H2G12320   3.682   3.226  10.593  0.1910 -0.9741  1.0025
  117OSM    C3F12321   3.867   3.142  10.507 -0.3194  0.2867  0.0662
  117OSM    H3F12322   3.963   3.111  10.553  0.1214  0.1453 -0.9299
  117OSM    H3G12323   3.888   3.241  10.461  0.2162 -0.0524 -0.4390
  117OSM    C4F12324   3.826   3.060  10.384 -0.0742  0.3935  0.5662
  117OSM    H4F12325   3.733   3.100  10.339 -0.1368  0.5377  0.8215
  117OSM    H4G12326   3.811   2.952  10.408  0.8714  0.0219 -0.4208
  117OSM    C5F12327   3.937   3.046  10.276  0.2660  0.2420  0.0856
  117OSM    H5F12328   4.006   2.984  10.336  0.3766 -0.5648 -0.8596
  117OSM    H5G12329   3.976   3.148  10.255  0.0392  0.6333  1.4349
  117OSM    C6F12330   3.897   2.969  10.146 -0.4489  0.1231  0.5646
  117OSM    H6F12331   3.810   3.008  10.089 -1.6860  0.0873  2.3115
  117OSM    H6G12332   3.858   2.868  10.174 -0.7810  0.5945  1.9009
  117OSM    C7F12333   4.019   2.961  10.047 -0.3485 -0.2856 -0.5761
  117OSM    H7F12334   4.107   2.908  10.090 -0.8519  0.5678  1.6587
  117OSM    H7G12335   4.060   3.062  10.028  0.1640 -0.1349  1.1451
  117OSM    C8F12336   3.982   2.888   9.918  0.0862 -0.4061  0.3110
  117OSM    H8F12337   3.922   2.799   9.944  0.0883 -0.7647 -0.8547
  117OSM    H8G12338   4.076   2.842   9.880  2.0201  1.4294  2.5646
  117OSM    C9F12339   3.916   2.975   9.816  0.0393 -0.2978 -0.0283
  117OSM    H9F12340   3.812   2.995   9.846  0.6205  1.5366  0.8929
  117OSM   C10F12341   3.969   3.017   9.701 -0.0279 -0.5654 -0.5458
  117OSM   H10F12342   3.911   3.085   9.635 -0.6791 -0.0631  0.5216
  117OSM   C11F12343   4.107   2.996   9.653 -0.3558 -0.6178  0.0686
  117OSM   H11F12344   4.159   2.914   9.707 -2.3970 -3.3238 -1.7705
  117OSM   H11G12345   4.176   3.082   9.644 -0.3142 -0.8025 -1.8408
  117OSM   C12F12346   4.111   2.930   9.509 -0.5323  0.1949  0.6902
  117OSM   H12F12347   4.062   2.831   9.509 -2.4981  1.1341  0.7008
  117OSM   H12G12348   4.217   2.930   9.475  0.0401  4.2577  1.9199
  117OSM   C13F12349   4.035   3.016   9.404  0.2715  0.5955 -0.0223
  117OSM   H13F12350   4.059   3.120   9.431 -0.3365  0.7304  0.0144
  117OSM   H13G12351   3.927   2.990   9.414  0.5469 -0.6058  0.0338
  117OSM   C14F12352   4.085   3.002   9.259 -0.4796 -0.1232  1.0936
  117OSM   H14F12353   4.114   2.899   9.228 -4.6569 -0.5055 -2.7393
  117OSM   H14G12354   4.174   3.064   9.235  0.6122 -2.0435 -0.0888
  117OSM   C15F12355   3.973   3.032   9.158  0.2305 -0.9613 -0.5080
  117OSM   H15F12356   3.920   3.117   9.205 -0.3297 -1.5714 -0.0238
  117OSM   H15G12357   3.896   2.953   9.170 -0.2133 -0.3277  1.0045
  117OSM   C16F12358   4.028   3.054   9.014  0.3623  0.4318  0.3765
  117OSM   H16F12359   4.106   3.134   9.017 -1.4077  2.2368  0.2606
  117OSM   H16G12360   3.958   3.088   8.935  1.5343  1.4844 -0.2504
  117OSM   C17F12361   4.104   2.932   8.963  0.1573  0.9330 -0.5701
  117OSM   H17F12362   4.031   2.848   8.969 -0.6915  1.7637  2.9819
  117OSM   H17G12363   4.183   2.904   9.036 -1.4774  0.5481  1.1346
  117OSM   C18F12364   4.162   2.949   8.813 -0.1646  0.1592 -0.0657
  117OSM   H18F12365   4.095   3.014   8.753 -1.8769 -0.8534  0.6797
  117OSM   H18G12366   4.155   2.852   8.759 -1.3289 -0.6221  1.4195
  117OSM   H18H12367   4.261   2.999   8.809  0.5114 -1.0898  0.6034
  118OSM      N12368   3.193   3.776  10.978  0.4778 -0.4521 -0.4923
  118OSM    C1512369   3.120   3.794  11.110 -0.5622  0.2349 -0.0603
  118OSM   H15A12370   3.169   3.863  11.177  2.0716 -0.0504 -1.5334
  118OSM   H15B12371   3.108   3.702  11.165 -2.4486  0.8367  0.5838
  118OSM   H15C12372   3.018   3.825  11.097 -1.4040 -1.2278  2.5439
  118OSM    C1412373   3.216   3.910  10.924  0.1398 -0.7290 -0.1425
  118OSM   H14A12374   3.238   3.891  10.820 -0.9846 -2.8958 -0.0424
  118OSM   H14B12375   3.293   3.972  10.968  0.5365  0.0682 -1.8750
  118OSM   H14C12376   3.129   3.974  10.920  0.0210 -0.7482  1.4315
  118OSM    C1312377   3.325   3.707  10.998 -0.0780  0.0315 -0.0056
  118OSM   H13A12378   3.363   3.689  10.899  0.2024  1.4052 -0.1658
  118OSM   H13B12379   3.311   3.612  11.049 -0.2424 -1.2522 -2.3217
  118OSM   H13C12380   3.389   3.775  11.052  0.1918  1.6642 -2.2433
  118OSM    C1212381   3.111   3.698  10.887 -0.0349 -0.4045  0.0537
  118OSM   H12A12382   3.014   3.744  10.890  0.9971  2.0188 -0.5014
  118OSM   H12B12383   3.096   3.600  10.928 -0.3547 -0.4790 -0.2382
  118OSM    C1112384   3.158   3.678  10.738 -0.0475 -0.3906  0.3757
  118OSM   H11A12385   3.084   3.606  10.697  0.4654 -0.8078  0.1644
  118OSM   H11B12386   3.262   3.639  10.732  0.8744  1.8283  0.8499
  118OSM      P12387   3.022   3.864  10.603  0.0833  0.0756  0.2032
  118OSM    O1312388   2.940   3.912  10.715  0.1813 -1.2528  0.5104
  118OSM    O1412389   3.066   3.960  10.496 -0.6136  0.0514 -0.1684
  118OSM    O1112390   2.949   3.743  10.543  0.2938 -0.5449 -0.2804
  118OSM    O1212391   3.155   3.793  10.663 -0.9702 -0.0112  0.1168
  118OSM    C1S12392   2.993   3.643  10.449  0.3338 -0.3777  0.4656
  118OSM    H1S12393   3.001   3.546  10.502 -0.8053 -0.1331  1.1109
  118OSM    H1T12394   3.093   3.674  10.411 -0.3553  2.9022  1.0436
  118OSM     NF12395   2.955   3.580  10.221  0.0542  0.3833 -0.1190
  118OSM    HNF12396   2.984   3.666  10.178 -0.6086  0.6402 -0.0701
  118OSM    C2S12397   2.883   3.613  10.343  0.1928  0.0271  0.4853
  118OSM    H2S12398   2.819   3.527  10.369  2.5760 -1.7508  0.7830
  118OSM    C3S12399   2.787   3.737  10.323  0.8327  0.2259 -0.2749
  118OSM    H3S12400   2.850   3.822  10.288 -0.0676  0.7729 -0.5786
  118OSM     O312401   2.722   3.790  10.440  0.5337 -0.0257  0.2431
  118OSM    HO312402   2.793   3.789  10.506  1.8110  0.5660 -1.0629
  118OSM    C4S12403   2.691   3.716  10.210  0.3983  0.8452 -0.1985
  118OSM    H4S12404   2.723   3.777  10.124  0.5189  1.7098  0.4585
  118OSM    C5S12405   2.575   3.641  10.204 -0.2246 -0.4450 -0.1303
  118OSM    H5S12406   2.555   3.578  10.292  0.7161 -0.7019 -0.0855
  118OSM    C6S12407   2.484   3.643  10.085 -0.3335 -0.6245  1.0727
  118OSM    H6S12408   2.398   3.705  10.118  1.1046  2.5872 -0.7513
  118OSM    H6T12409   2.445   3.544  10.050 -1.2783  0.5634 -1.5039
  118OSM    C7S12410   2.521   3.711   9.951 -0.2584 -0.4061  0.0391
  118OSM    H7S12411   2.558   3.811   9.982 -0.9819 -0.7976  2.4214
  118OSM    H7T12412   2.428   3.729   9.893 -1.2046  0.7113  1.8047
  118OSM    C8S12413   2.626   3.628   9.862  0.1077 -0.5603 -0.4292
  118OSM    H8S12414   2.570   3.535   9.839 -2.3492  0.3003  1.6162
  118OSM    H8T12415   2.712   3.596   9.925 -1.9215  0.1349  2.9322
  118OSM    C9S12416   2.663   3.689   9.727  1.1001 -0.5293 -0.2643
  118OSM    H9S12417   2.721   3.783   9.737 -1.0294  1.2025 -2.7863
  118OSM    H9T12418   2.570   3.724   9.677  0.4053 -0.6451  0.9236
  118OSM   C10S12419   2.734   3.594   9.631 -0.4800  0.6731 -0.2469
  118OSM   H10S12420   2.696   3.492   9.655 -3.1028  1.7102  0.3494
  118OSM   H10T12421   2.840   3.579   9.660 -0.8386  0.6077  1.0746
  118OSM   C11S12422   2.717   3.632   9.490 -0.1930 -0.2424 -0.4309
  118OSM   H11S12423   2.613   3.661   9.464 -0.2226 -0.0216 -0.0689
  118OSM   H11T12424   2.748   3.538   9.439 -2.0462 -0.6344 -0.9213
  118OSM   C12S12425   2.808   3.753   9.447 -0.3477  1.3546 -0.2768
  118OSM   H12S12426   2.906   3.742   9.498 -0.8566  1.0723  0.6691
  118OSM   H12T12427   2.766   3.853   9.471  1.5487  2.3985 -1.0544
  118OSM   C13S12428   2.829   3.766   9.299 -0.1447 -0.8031  1.1271
  118OSM   H13S12429   2.728   3.795   9.261  0.4199  0.0762  0.2456
  118OSM   H13T12430   2.859   3.680   9.236  1.8485  0.1381  0.7301
  118OSM   C14S12431   2.929   3.884   9.284 -0.5002 -0.6841  0.4447
  118OSM   H14S12432   3.026   3.834   9.302  0.0897 -0.2855 -1.4166
  118OSM   H14T12433   2.923   3.962   9.363 -0.9491 -1.4275  1.1641
  118OSM   C15S12434   2.914   3.949   9.145 -0.0336  0.4309 -1.1423
  118OSM   H15S12435   2.952   4.053   9.155  0.1046  0.3530 -0.8379
  118OSM   H15T12436   2.806   3.955   9.120  0.2772  0.2475 -2.6267
  118OSM   C16S12437   2.987   3.868   9.043 -0.4870 -0.3614 -0.0567
  118OSM   H16S12438   2.970   3.759   9.049 -0.0977 -0.6095 -2.3940
  118OSM   H16T12439   3.094   3.891   9.061 -0.3885 -0.8560 -0.0009
  118OSM   C17S12440   2.951   3.907   8.899  0.0173 -0.6090 -0.3315
  118OSM   H17S12441   2.964   4.017   8.891  0.4330 -0.6953 -0.8458
  118OSM   H17T12442   2.845   3.876   8.886 -1.0165  3.0262 -1.5126
  118OSM   C18S12443   3.032   3.839   8.792  0.0570  0.7376  0.2194
  118OSM   H18S12444   3.013   3.872   8.688 -3.7247  0.7961  0.7891
  118OSM   H18T12445   3.006   3.731   8.790  2.7318  0.0255 -1.0050
  118OSM   H18U12446   3.138   3.845   8.827  0.3912  1.0646 -0.8191
  118OSM    C1F12447   3.023   3.467  10.208  0.5157 -0.2237  0.8290
  118OSM     OF12448   3.011   3.381  10.290 -0.5353  0.0291 -0.0992
  118OSM    C2F12449   3.114   3.454  10.093 -0.7508  0.2497  0.2876
  118OSM    H2F12450   3.216   3.489  10.121  1.1786 -4.1426 -0.4392
  118OSM    H2G12451   3.076   3.523  10.015 -0.8246  0.3236  0.3877
  118OSM    C3F12452   3.126   3.305  10.032 -0.4583 -0.0303 -0.5204
  118OSM    H3F12453   3.033   3.279   9.977  0.1972 -0.3544 -1.5099
  118OSM    H3G12454   3.142   3.239  10.120 -0.6561  1.1309  0.4111
  118OSM    C4F12455   3.245   3.288   9.929 -0.6270 -0.8292 -0.5075
  118OSM    H4F12456   3.247   3.184   9.890  1.5322 -0.4612 -1.5708
  118OSM    H4G12457   3.336   3.296   9.993 -0.7569 -1.8730 -0.1581
  118OSM    C5F12458   3.251   3.383   9.808  0.2297  0.3540 -0.2234
  118OSM    H5F12459   3.351   3.382   9.760  0.5142 -1.9917  0.2815
  118OSM    H5G12460   3.225   3.486   9.839 -1.6364  0.0223 -0.5257
  118OSM    C6F12461   3.153   3.346   9.693 -0.8105  0.7042  0.0652
  118OSM    H6F12462   3.054   3.333   9.741 -1.1915 -1.1486 -1.1436
  118OSM    H6G12463   3.191   3.246   9.663 -1.1654 -0.1256  2.2406
  118OSM    C7F12464   3.145   3.452   9.582  0.1862  0.3827 -0.3814
  118OSM    H7F12465   3.245   3.498   9.566  0.1262  1.0625  1.1204
  118OSM    H7G12466   3.089   3.536   9.627 -1.4112 -0.7019 -0.2677
  118OSM    C8F12467   3.074   3.401   9.458 -0.1057 -0.4438 -0.2794
  118OSM    H8F12468   2.972   3.379   9.497  0.2838  0.6640  1.5088
  118OSM    H8G12469   3.132   3.311   9.427 -2.2100 -2.4346  1.1589
  118OSM    C9F12470   3.075   3.507   9.346 -0.2863 -0.0172 -0.2728
  118OSM    H9F12471   2.975   3.550   9.331 -0.1353  0.8104  0.9310
  118OSM   C10F12472   3.180   3.569   9.284 -0.5948 -0.1667 -1.0950
  118OSM   H10F12473   3.157   3.634   9.198 -4.2070  0.4115  0.1247
  118OSM   C11F12474   3.315   3.494   9.296 -0.0079  0.5280  0.7995
  118OSM   H11F12475   3.305   3.389   9.331 -0.7235  0.4288  0.3181
  118OSM   H11G12476   3.370   3.542   9.379  3.1532 -1.5643  0.0829
  118OSM   C12F12477   3.383   3.500   9.154 -1.1968  1.1495 -0.5259
  118OSM   H12F12478   3.394   3.608   9.131 -0.0013  1.6827  2.1612
  118OSM   H12G12479   3.331   3.445   9.072  0.9793  0.0471 -1.2477
  118OSM   C13F12480   3.528   3.444   9.170  0.1454  0.0710 -0.0908
  118OSM   H13F12481   3.520   3.335   9.187 -2.3052 -0.0080 -1.3520
  118OSM   H13G12482   3.582   3.493   9.255  1.7925 -2.0232  0.1612
  118OSM   C14F12483   3.614   3.466   9.047 -0.0133 -0.4906  0.3895
  118OSM   H14F12484   3.699   3.395   9.048 -1.3805 -2.1683  1.1277
  118OSM   H14G12485   3.644   3.573   9.056 -1.4002  0.0773 -1.2352
  118OSM   C15F12486   3.540   3.442   8.916  0.3871  0.1860 -0.0171
  118OSM   H15F12487   3.451   3.508   8.916 -1.0130 -1.6284  0.0933
  118OSM   H15G12488   3.507   3.336   8.916  2.6583 -0.5760 -0.7439
  118OSM   C16F12489   3.632   3.470   8.791 -0.4229  0.1453 -0.2548
  118OSM   H16F12490   3.679   3.570   8.797  0.0312  0.0610 -1.8910
  118OSM   H16G12491   3.574   3.464   8.696  0.4237  2.9018 -1.0183
  118OSM   C17F12492   3.738   3.364   8.764  0.3188 -0.5272 -0.3091
  118OSM   H17F12493   3.689   3.278   8.715  0.2816  0.6391 -2.4402
  118OSM   H17G12494   3.773   3.320   8.860  0.9342  0.1339 -0.2143
  118OSM   C18F12495   3.859   3.417   8.692 -0.5033 -0.4416  0.9085
  118OSM   H18F12496   3.832   3.465   8.596 -0.0026  1.4682  1.6874
  118OSM   H18G12497   3.933   3.339   8.664  2.5864  2.8581 -0.8972
  118OSM   H18H12498   3.913   3.496   8.748 -0.7963  0.8432 -0.5398
  119OSM      N12499   4.327   4.372  10.923 -0.2220  0.2474  0.3220
  119OSM    C1512500   4.377   4.492  11.003  0.2255  0.0382 -0.2871
  119OSM   H15A12501   4.485   4.488  11.005  0.2396  0.2999 -0.4786
  119OSM   H15B12502   4.345   4.499  11.106  2.2517 -1.1905  0.4937
  119OSM   H15C12503   4.344   4.584  10.957 -2.0950  0.4659  2.0021
  119OSM    C1412504   4.171   4.374  10.914  0.1998  0.0791  0.2806
  119OSM   H14A12505   4.128   4.293  10.857  0.7184  0.5587 -0.8062
  119OSM   H14B12506   4.125   4.464  10.877 -0.3764 -0.7318 -1.0266
  119OSM   H14C12507   4.131   4.374  11.015 -0.5905 -0.5109 -0.0267
  119OSM    C1312508   4.378   4.385  10.787 -0.1618 -0.1305  0.3827
  119OSM   H13A12509   4.354   4.484  10.752 -1.3169 -0.7038 -0.5051
  119OSM   H13B12510   4.339   4.300  10.733  1.9537 -0.2007 -1.1909
  119OSM   H13C12511   4.486   4.395  10.781 -0.0832 -0.2633  1.4060
  119OSM    C1212512   4.380   4.237  10.978 -0.0120  0.2079  0.7634
  119OSM   H12A12513   4.347   4.226  11.080 -2.6213 -1.9458 -0.1961
  119OSM   H12B12514   4.487   4.250  10.973 -0.2187  1.5070 -2.3614
  119OSM    C1112515   4.356   4.110  10.901 -0.2090 -0.2928 -0.3758
  119OSM   H11A12516   4.442   4.047  10.934  0.5275  1.7657  1.9674
  119OSM   H11B12517   4.361   4.121  10.791 -0.9864 -1.8196 -0.5910
  119OSM      P12518   4.192   3.916  10.950  0.4698  0.1137  0.3283
  119OSM    O1312519   4.251   3.854  11.065 -0.4227 -0.0452  0.4418
  119OSM    O1412520   4.043   3.910  10.925 -0.6972 -0.4304  0.6276
  119OSM    O1112521   4.254   3.843  10.820  0.3701  0.2175  0.6616
  119OSM    O1212522   4.221   4.067  10.937 -0.0085  0.0288 -0.0735
  119OSM    C1S12523   4.246   3.893  10.683 -0.2294  0.6040 -0.1953
  119OSM    H1S12524   4.329   3.960  10.651  0.7480 -0.8190 -0.7412
  119OSM    H1T12525   4.150   3.946  10.664  0.0967  0.6925 -1.7558
  119OSM     NF12526   4.309   3.816  10.449  0.4287  0.4552 -0.1275
  119OSM    HNF12527   4.242   3.810  10.376 -2.0277 -2.9223  2.1097
  119OSM    C2S12528   4.261   3.769  10.584  0.0988 -0.1000 -0.1757
  119OSM    H2S12529   4.336   3.702  10.632  1.0724  0.1303 -1.3448
  119OSM    C3S12530   4.125   3.690  10.588  0.3821 -0.0628  0.7509
  119OSM    H3S12531   4.055   3.763  10.541  0.1737 -1.4496 -1.2157
  119OSM     O312532   4.075   3.652  10.713 -0.7073  0.3350  0.0075
  119OSM    HO312533   4.135   3.699  10.771  1.2188  0.4234 -1.9389
  119OSM    C4S12534   4.124   3.573  10.492 -0.5973 -0.2376 -0.4012
  119OSM    H4S12535   4.199   3.496  10.516 -2.1979 -1.6840  0.2193
  119OSM    C5S12536   4.040   3.552  10.383  0.4662  0.1830 -0.2716
  119OSM    H5S12537   3.970   3.629  10.349  0.9843  1.3845  1.2538
  119OSM    C6S12538   4.038   3.428  10.293  1.3276  0.7261 -0.3474
  119OSM    H6S12539   3.929   3.405  10.291  0.7191  3.2941 -0.3090
  119OSM    H6T12540   4.086   3.343  10.347  1.0514  1.7124  1.5650
  119OSM    C7S12541   4.099   3.447  10.154  0.5606  0.0273 -0.2719
  119OSM    H7S12542   4.051   3.534  10.105 -2.5945 -2.7956 -2.7337
  119OSM    H7T12543   4.084   3.357  10.091  0.1631  0.2467 -0.4990
  119OSM    C8S12544   4.250   3.485  10.145 -0.2532  0.1007 -0.3263
  119OSM    H8S12545   4.307   3.395  10.175  1.0007  1.2560  0.8961
  119OSM    H8T12546   4.277   3.571  10.210  0.7979 -2.2308  2.5557
  119OSM    C9S12547   4.284   3.535  10.003  0.0890 -0.3984 -0.4043
  119OSM    H9S12548   4.385   3.579  10.010 -1.0540  2.4880 -0.3955
  119OSM    H9T12549   4.206   3.605   9.965 -0.6357 -1.0198 -0.0836
  119OSM   C10S12550   4.274   3.431   9.892 -0.6756  0.4911 -1.1554
  119OSM   H10S12551   4.173   3.385   9.883 -1.1726  1.3139 -0.1669
  119OSM   H10T12552   4.345   3.348   9.910  0.5107  1.4735 -1.1493
  119OSM   C11S12553   4.327   3.491   9.756 -0.0394 -0.0195 -0.3727
  119OSM   H11S12554   4.435   3.514   9.767 -0.0241 -1.2622  4.1321
  119OSM   H11T12555   4.265   3.577   9.725 -3.1790 -1.1712  2.1573
  119OSM   C12S12556   4.320   3.376   9.651  0.6296  0.6588 -0.0488
  119OSM   H12S12557   4.213   3.344   9.650  0.0002  2.6376  0.0134
  119OSM   H12T12558   4.378   3.295   9.701 -2.9602 -2.2233 -0.1066
  119OSM   C13S12559   4.374   3.405   9.503  0.6896  0.6538 -0.0340
  119OSM   H13S12560   4.478   3.443   9.509  1.1738 -0.4512 -0.9785
  119OSM   H13T12561   4.302   3.479   9.462  1.6783  2.1908  0.8836
  119OSM   C14S12562   4.378   3.271   9.429  0.3507  0.1158 -0.3710
  119OSM   H14S12563   4.279   3.226   9.409  0.9040 -0.3041 -2.2842
  119OSM   H14T12564   4.434   3.204   9.497  0.9545  0.4851 -0.4905
  119OSM   C15S12565   4.457   3.254   9.292 -0.9197 -0.0509 -0.4928
  119OSM   H15S12566   4.561   3.289   9.308 -0.2333 -1.7215 -1.0280
  119OSM   H15T12567   4.409   3.318   9.215 -0.6165 -0.2562 -0.8606
  119OSM   C16S12568   4.456   3.099   9.247  0.0372 -0.0225 -0.2102
  119OSM   H16S12569   4.365   3.048   9.283  0.0406  0.8490  1.0935
  119OSM   H16T12570   4.542   3.049   9.296 -0.0104 -0.2578 -0.3703
  119OSM   C17S12571   4.459   3.079   9.095  0.0859 -0.0256 -0.4529
  119OSM   H17S12572   4.532   3.147   9.046  0.4172  0.6408  0.9134
  119OSM   H17T12573   4.360   3.104   9.051 -0.6115 -2.2086 -0.2354
  119OSM   C18S12574   4.493   2.933   9.053  0.5065 -0.0175 -0.2948
  119OSM   H18S12575   4.423   2.858   9.095  1.6852 -0.9202  0.1312
  119OSM   H18T12576   4.596   2.904   9.085  0.4692  0.0514 -0.1136
  119OSM   H18U12577   4.498   2.930   8.942 -0.4806 -2.1478 -0.3436
  119OSM    C1F12578   4.438   3.851  10.428  0.5710 -0.0384 -0.1465
  119OSM     OF12579   4.520   3.844  10.516  0.4992 -0.0439 -0.6054
  119OSM    C2F12580   4.463   3.909  10.294  0.1512 -0.3164  0.0813
  119OSM    H2F12581   4.563   3.956  10.303 -0.7989  1.3974  3.5539
  119OSM    H2G12582   4.391   3.990  10.272  0.1856 -0.7717 -1.8721
  119OSM    C3F12583   4.457   3.822  10.171 -0.1942  0.4699 -0.1056
  119OSM    H3F12584   4.349   3.796  10.167  0.0618 -0.5352 -1.5813
  119OSM    H3G12585   4.502   3.721  10.179 -0.4101  0.5034  2.1264
  119OSM    C4F12586   4.488   3.874  10.029  0.0738 -0.2598  0.7417
  119OSM    H4F12587   4.462   3.798   9.952  1.7337 -1.5301  1.3756
  119OSM    H4G12588   4.599   3.871  10.022  0.2922 -0.0168  3.2463
  119OSM    C5F12589   4.416   4.008  10.003  0.0008  0.2313  0.1425
  119OSM    H5F12590   4.421   4.080  10.088 -1.2385  0.5122  0.0054
  119OSM    H5G12591   4.308   3.984   9.992  0.1270 -0.2216 -0.1273
  119OSM    C6F12592   4.469   4.082   9.880 -0.2324 -0.7797 -0.1204
  119OSM    H6F12593   4.489   4.017   9.792 -2.0326 -1.1217 -0.3235
  119OSM    H6G12594   4.564   4.129   9.912 -0.5964  0.0559 -0.2170
  119OSM    C7F12595   4.381   4.203   9.837 -0.4454 -0.6674 -0.1434
  119OSM    H7F12596   4.409   4.279   9.913  1.6139 -0.5249 -0.9885
  119OSM    H7G12597   4.280   4.158   9.844 -0.4833 -0.5430  0.1010
  119OSM    C8F12598   4.399   4.253   9.699  0.4659 -0.0199  0.9390
  119OSM    H8F12599   4.387   4.162   9.637 -0.5423  1.9164 -1.8807
  119OSM    H8G12600   4.500   4.299   9.692 -0.9251  3.3324  0.6749
  119OSM    C9F12601   4.310   4.373   9.646 -0.2643 -0.0961  0.5044
  119OSM    H9F12602   4.284   4.440   9.729 -0.7709 -2.2051  2.1127
  119OSM   C10F12603   4.259   4.390   9.520  0.0588  1.0922  0.0175
  119OSM   H10F12604   4.181   4.465   9.503 -1.5309 -0.7798 -1.4942
  119OSM   C11F12605   4.295   4.301   9.405 -0.4054  0.7843  0.2704
  119OSM   H11F12606   4.201   4.245   9.385 -0.2802  1.1072 -1.3925
  119OSM   H11G12607   4.364   4.222   9.442 -0.5082  0.8125  0.5242
  119OSM   C12F12608   4.354   4.375   9.288 -0.3601 -0.5748  0.3374
  119OSM   H12F12609   4.387   4.308   9.206  3.2372  0.8406  0.4076
  119OSM   H12G12610   4.434   4.445   9.321 -0.7201  0.3539 -0.6879
  119OSM   C13F12611   4.259   4.463   9.204  0.0928 -0.2302 -0.0743
  119OSM   H13F12612   4.237   4.539   9.282  0.9650 -0.9499  0.9018
  119OSM   H13G12613   4.161   4.414   9.182  0.5695 -1.1296 -0.2046
  119OSM   C14F12614   4.328   4.527   9.083  0.6172  0.3632  0.0588
  119OSM   H14F12615   4.330   4.435   9.019  0.0768  0.0567  0.4720
  119OSM   H14G12616   4.428   4.553   9.122  1.9996 -1.8074 -1.7805
  119OSM   C15F12617   4.250   4.646   9.009  0.7658 -0.3060 -0.3410
  119OSM   H15F12618   4.230   4.725   9.084  0.9397 -1.6065  1.1266
  119OSM   H15G12619   4.153   4.605   8.974  1.0887 -1.1154 -0.3176
  119OSM   C16F12620   4.325   4.705   8.891  0.4254  0.3258  0.3351
  119OSM   H16F12621   4.360   4.634   8.814  0.4028  0.1935  0.4459
  119OSM   H16G12622   4.407   4.757   8.945 -0.8623  2.9577 -0.0829
  119OSM   C17F12623   4.237   4.807   8.831  0.2161 -0.3300  1.1159
  119OSM   H17F12624   4.214   4.871   8.918 -1.2346 -1.2687  1.4559
  119OSM   H17G12625   4.143   4.759   8.796  0.7519 -0.4075 -0.3219
  119OSM   C18F12626   4.284   4.881   8.705  0.0580  0.2971  0.6083
  119OSM   H18F12627   4.295   4.827   8.609  2.0433  2.4984 -0.5000
  119OSM   H18G12628   4.383   4.926   8.727  0.5294  0.2191 -1.1800
  119OSM   H18H12629   4.213   4.963   8.685  1.2575  0.7258 -2.3988
  120OSM      N12630   4.649   6.460  10.751  0.2195 -0.2453  0.6875
  120OSM    C1512631   4.609   6.327  10.796  0.1221  0.6893  0.0413
  120OSM   H15A12632   4.587   6.255  10.718  1.7196 -1.3649  1.3942
  120OSM   H15B12633   4.522   6.338  10.859 -0.6742  1.1080 -1.0883
  120OSM   H15C12634   4.693   6.289  10.851 -0.0722 -0.4395 -0.4051
  120OSM    C1412635   4.692   6.531  10.876  0.4280  0.0937 -0.6396
  120OSM   H14A12636   4.779   6.481  10.917  0.1422 -0.2377 -0.4343
  120OSM   H14B12637   4.618   6.520  10.953 -0.9345 -0.9834 -2.0587
  120OSM   H14C12638   4.711   6.636  10.860  0.0907  0.2396 -0.1235
  120OSM    C1312639   4.765   6.444  10.656 -0.1979  0.4784  0.4962
  120OSM   H13A12640   4.742   6.373  10.577 -0.9683 -1.0545  2.0327
  120OSM   H13B12641   4.840   6.388  10.710 -1.4203 -2.0058 -0.2422
  120OSM   H13C12642   4.798   6.539  10.615 -1.7426  0.3941 -1.0642
  120OSM    C1212643   4.533   6.540  10.672 -0.1463  0.0467  0.0747
  120OSM   H12A12644   4.513   6.496  10.575 -1.0625 -2.3678  1.2776
  120OSM   H12B12645   4.573   6.638  10.650 -1.1676  0.7586  1.2438
  120OSM    C1112646   4.400   6.558  10.745 -0.3049 -0.5070  0.3263
  120OSM   H11A12647   4.348   6.644  10.699 -2.5069  0.0246  3.5252
  120OSM   H11B12648   4.417   6.589  10.850 -3.9314  0.1823  0.8121
  120OSM      P12649   4.241   6.392  10.618  0.0838  0.1410 -0.0693
  120OSM    O1312650   4.256   6.244  10.592 -0.4736  0.0649 -0.2406
  120OSM    O1412651   4.106   6.446  10.646 -0.2699 -0.3722  0.2072
  120OSM    O1112652   4.307   6.471  10.498 -0.1255 -0.2680 -0.1279
  120OSM    O1212653   4.331   6.434  10.741  0.4058 -0.0849 -0.8148
  120OSM    C1S12654   4.238   6.473  10.378  0.2350 -0.1383 -0.3541
  120OSM    H1S12655   4.137   6.516  10.396 -0.0308 -1.4932  1.7835
  120OSM    H1T12656   4.211   6.373  10.337 -1.7148  1.0345 -2.0993
  120OSM     NF12657   4.217   6.549  10.146  0.0481  0.2353  0.0461
  120OSM    HNF12658   4.240   6.499  10.062 -1.1547  1.6305 -1.1577
  120OSM    C2S12659   4.309   6.550  10.266 -1.0092 -0.8637  0.1669
  120OSM    H2S12660   4.337   6.651  10.303  2.8260 -1.8307  0.3252
  120OSM    C3S12661   4.449   6.480  10.247  0.1766 -0.3767  0.0236
  120OSM    H3S12662   4.439   6.372  10.224  2.9928 -0.7222  0.1360
  120OSM     O312663   4.535   6.487  10.366  0.2898  0.5365 -0.1236
  120OSM    HO312664   4.469   6.524  10.426 -0.8977  0.1385 -1.1393
  120OSM    C4S12665   4.522   6.544  10.131 -0.6008 -0.9004 -0.1380
  120OSM    H4S12666   4.497   6.500  10.033 -0.1553  1.4955 -1.4024
  120OSM    C5S12667   4.604   6.655  10.119  0.0101  0.0752  0.2815
  120OSM    H5S12668   4.633   6.715  10.206 -1.4791 -1.4159  1.9074
  120OSM    C6S12669   4.661   6.707   9.991  0.7918 -0.6414 -0.2834
  120OSM    H6S12670   4.769   6.734   9.993  0.5519  1.1905 -3.5925
  120OSM    H6T12671   4.612   6.804   9.968  1.2634 -0.0023  1.3196
  120OSM    C7S12672   4.660   6.615   9.865  0.0575  0.3500  0.5090
  120OSM    H7S12673   4.557   6.577   9.846 -0.1297  1.2575 -0.3611
  120OSM    H7T12674   4.727   6.533   9.898 -0.3443 -0.0368  0.3890
  120OSM    C8S12675   4.722   6.679   9.738 -0.0456 -0.0149 -0.2701
  120OSM    H8S12676   4.689   6.784   9.720  1.4909  0.0597 -3.3003
  120OSM    H8T12677   4.692   6.610   9.656  0.4682 -0.1120 -0.3766
  120OSM    C9S12678   4.878   6.699   9.747  0.5930 -0.5490  0.2433
  120OSM    H9S12679   4.906   6.611   9.684 -1.4346 -0.1684 -1.3019
  120OSM    H9T12680   4.923   6.688   9.848  3.1505 -3.0628 -1.0407
  120OSM   C10S12681   4.935   6.825   9.687 -0.2727  0.1029 -0.5170
  120OSM   H10S12682   5.042   6.834   9.717 -0.2393 -1.7695  0.0242
  120OSM   H10T12683   4.900   6.919   9.735  1.7380  1.0988 -0.8787
  120OSM   C11S12684   4.907   6.846   9.540  0.5427  0.5790  0.5539
  120OSM   H11S12685   4.803   6.877   9.517  1.3382  2.6709 -0.5209
  120OSM   H11T12686   4.928   6.749   9.490  2.0863  0.8310  0.6609
  120OSM   C12S12687   4.983   6.958   9.472  0.4888 -0.2743 -0.5714
  120OSM   H12S12688   5.074   6.969   9.535 -1.6019  1.7519  2.2931
  120OSM   H12T12689   4.927   7.051   9.495 -1.2831 -1.9218  2.3176
  120OSM   C13S12690   5.027   6.944   9.329 -0.1757  0.3102  0.6712
  120OSM   H13S12691   5.062   6.841   9.306  0.0836  0.4837  0.2813
  120OSM   H13T12692   5.104   7.023   9.318  0.4131 -0.4362 -0.8541
  120OSM   C14S12693   4.914   6.963   9.230 -0.5798  0.6574 -0.0646
  120OSM   H14S12694   4.897   7.073   9.228  2.7094  1.2885 -2.9720
  120OSM   H14T12695   4.830   6.896   9.258 -0.8040  1.5257  1.4710
  120OSM   C15S12696   4.954   6.916   9.083  0.4237 -0.6110 -0.1367
  120OSM   H15S12697   4.981   6.808   9.079 -1.7417 -1.2371  0.6364
  120OSM   H15T12698   5.041   6.973   9.046  1.2438 -1.2754  0.7322
  120OSM   C16S12699   4.840   6.955   8.986  0.1406 -0.2027  0.0003
  120OSM   H16S12700   4.834   7.066   8.976 -1.0744 -0.1782  0.7720
  120OSM   H16T12701   4.738   6.923   9.017  0.0032  0.2318  0.0047
  120OSM   C17S12702   4.857   6.890   8.852  0.0481 -0.1704 -0.1734
  120OSM   H17S12703   4.771   6.918   8.788  0.6477  1.5950 -0.2532
  120OSM   H17T12704   4.863   6.779   8.857  2.5453 -0.1184 -0.5262
  120OSM   C18S12705   4.976   6.940   8.772 -0.0058  0.2231  0.1460
  120OSM   H18S12706   4.976   6.894   8.671 -1.5396 -1.5682  0.8846
  120OSM   H18T12707   5.072   6.915   8.821  0.1830  0.7379  0.0459
  120OSM   H18U12708   4.966   7.050   8.763 -0.9663  0.1615  0.3543
  120OSM    C1F12709   4.114   6.631  10.151  0.2051 -0.6346  0.2362
  120OSM     OF12710   4.109   6.722  10.231 -0.1016 -0.6005 -0.2466
  120OSM    C2F12711   4.017   6.610  10.042  0.1615 -0.6506  0.0430
  120OSM    H2F12712   3.953   6.522  10.064 -1.1358  0.3217  0.2413
  120OSM    H2G12713   4.062   6.573   9.946 -0.0969  0.3848 -0.4858
  120OSM    C3F12714   3.919   6.727  10.017  0.9482 -0.1254  0.3627
  120OSM    H3F12715   3.963   6.813   9.964  0.0731 -0.3710 -0.7982
  120OSM    H3G12716   3.874   6.770  10.110  0.7344 -1.7934  1.0776
  120OSM    C4F12717   3.800   6.690   9.929  0.4150 -0.5679  0.1992
  120OSM    H4F12718   3.727   6.638   9.995 -1.2941  1.1464 -0.2455
  120OSM    H4G12719   3.833   6.620   9.849  0.2609 -0.7888  0.3290
  120OSM    C5F12720   3.712   6.800   9.855 -0.0725 -1.2928 -0.0469
  120OSM    H5F12721   3.689   6.886   9.921  2.6155  0.8236 -1.6249
  120OSM    H5G12722   3.613   6.754   9.834 -1.9668  2.3617  0.2207
  120OSM    C6F12723   3.777   6.846   9.718 -0.1950 -0.0150 -0.6838
  120OSM    H6F12724   3.770   6.755   9.655 -1.3058  0.7041 -1.6474
  120OSM    H6G12725   3.880   6.882   9.737 -0.0042 -0.3867 -1.0268
  120OSM    C7F12726   3.692   6.959   9.651  0.1269  0.6798 -0.6928
  120OSM    H7F12727   3.725   7.057   9.691  0.8736  0.1263  0.0705
  120OSM    H7G12728   3.585   6.936   9.672  0.5516 -3.5182 -2.1520
  120OSM    C8F12729   3.707   6.955   9.500  0.0700 -0.1151 -0.0410
  120OSM    H8F12730   3.658   7.043   9.453  1.1229  0.4472 -0.1358
  120OSM    H8G12731   3.659   6.861   9.468 -0.7673  1.0076 -2.2702
  120OSM    C9F12732   3.852   6.974   9.463  0.0147 -0.2905 -0.1775
  120OSM    H9F12733   3.891   7.066   9.509 -0.8577  0.2495 -0.5084
  120OSM   C10F12734   3.944   6.903   9.395  0.0924  0.1159  0.5388
  120OSM   H10F12735   4.045   6.944   9.380 -1.1799  2.8455 -1.4309
  120OSM   C11F12736   3.919   6.774   9.321  0.2898  0.5377 -0.3234
  120OSM   H11F12737   3.812   6.746   9.329  0.7542 -1.1572  0.2614
  120OSM   H11G12738   3.969   6.687   9.368  1.2936  1.4271  0.2963
  120OSM   C12F12739   3.965   6.784   9.173  0.1781  1.1315  0.1111
  120OSM   H12F12740   4.064   6.835   9.172  0.0556  1.4542  1.6370
  120OSM   H12G12741   3.891   6.853   9.126  0.9636  1.9308  0.0197
  120OSM   C13F12742   3.967   6.647   9.112 -0.3952  0.1126 -0.2202
  120OSM   H13F12743   3.872   6.590   9.117 -0.2518 -0.0958  0.1701
  120OSM   H13G12744   4.044   6.591   9.170  0.6849  1.5502 -0.1993
  120OSM   C14F12745   4.006   6.638   8.965  0.0007  0.5169  0.2651
  120OSM   H14F12746   4.066   6.546   8.951  0.1078  0.3647  1.5947
  120OSM   H14G12747   4.083   6.712   8.937  1.2910 -0.1420  1.8543
  120OSM   C15F12748   3.878   6.637   8.879 -0.3836 -0.1337 -0.0562
  120OSM   H15F12749   3.836   6.740   8.882  0.1000  0.0555  0.5237
  120OSM   H15G12750   3.791   6.575   8.910  0.5134 -1.1606  0.4814
  120OSM   C16F12751   3.885   6.600   8.736 -0.4667 -0.1174  0.3140
  120OSM   H16F12752   3.781   6.569   8.711 -1.4894  1.7532  1.9670
  120OSM   H16G12753   3.950   6.511   8.752 -1.5588 -1.1204 -0.6310
  120OSM   C17F12754   3.967   6.699   8.651 -0.1999  0.3064  0.6819
  120OSM   H17F12755   4.046   6.748   8.712 -0.1769 -0.2643  1.1227
  120OSM   H17G12756   3.896   6.769   8.603  0.1960  1.7725  2.1492
  120OSM   C18F12757   4.042   6.606   8.548 -0.1004 -0.2407 -0.4753
  120OSM   H18F12758   4.135   6.572   8.600  0.2173  1.9168  0.4691
  120OSM   H18G12759   4.069   6.673   8.464  2.0789  1.2523  1.3009
  120OSM   H18H12760   3.984   6.518   8.513 -0.0002 -0.0662 -1.0834
  121OSM      N12761   0.456   1.814  14.153  1.6188  0.2162  0.3684
  121OSM    C1512762   0.440   1.858  14.293  1.1867  0.0999  0.0146
  121OSM   H15A12763   0.453   1.966  14.298  0.1786  0.1942  0.9255
  121OSM   H15B12764   0.498   1.811  14.370 -1.3275 -1.7104  0.9263
  121OSM   H15C12765   0.339   1.853  14.331  0.4666 -0.6896 -1.8563
  121OSM    C1412766   0.600   1.842  14.115 -0.2859 -0.0587  0.3496
  121OSM   H14A12767   0.613   1.801  14.016  0.8209 -2.8285  1.5374
  121OSM   H14B12768   0.673   1.803  14.184  2.4295  3.2832 -0.3242
  121OSM   H14C12769   0.634   1.945  14.112  1.5522 -0.6541 -0.7628
  121OSM    C1312770   0.434   1.667  14.135 -0.6830  0.0359  0.1520
  121OSM   H13A12771   0.507   1.609  14.189  1.6631  0.6039 -2.1954
  121OSM   H13B12772   0.463   1.641  14.034  2.0352  1.6681  0.4137
  121OSM   H13C12773   0.334   1.638  14.162 -0.0319 -0.1707  2.5817
  121OSM    C1212774   0.357   1.890  14.059  0.1287 -0.5138  0.3077
  121OSM   H12A12775   0.360   1.997  14.076 -2.0682 -0.6545  2.1525
  121OSM   H12B12776   0.258   1.859  14.088 -0.2490  1.8437  1.8529
  121OSM    C1112777   0.369   1.855  13.900  0.0425 -0.1854 -0.0458
  121OSM   H11A12778   0.280   1.908  13.859 -0.5326  0.7369  2.2543
  121OSM   H11B12779   0.362   1.746  13.880  1.3850 -0.2586 -0.2233
  121OSM      P12780   0.506   2.071  13.829  0.0724 -0.0485  0.3047
  121OSM    O1312781   0.650   2.100  13.845  0.1434  0.0126  0.0287
  121OSM    O1412782   0.445   2.100  13.700  0.4229  0.4324 -0.0391
  121OSM    O1112783   0.420   2.133  13.947  0.8517 -0.4446 -0.4721
  121OSM    O1212784   0.489   1.914  13.849  0.1705  0.8956 -0.2608
  121OSM    C1S12785   0.352   2.267  13.938  0.4032 -0.3516  0.1529
  121OSM    H1S12786   0.308   2.278  13.837  0.0906  1.7880  0.4823
  121OSM    H1T12787   0.416   2.356  13.954 -0.0380 -0.2242  1.2381
  121OSM     NF12788   0.147   2.377  14.019  0.2590 -0.1298  0.1476
  121OSM    HNF12789   0.137   2.448  14.088 -0.8568 -0.7159  0.6118
  121OSM    C2S12790   0.249   2.276  14.051 -0.4017  0.2193  0.1206
  121OSM    H2S12791   0.192   2.181  14.059  3.1309 -2.0840  0.1174
  121OSM    C3S12792   0.319   2.299  14.188 -0.3513  0.0411  0.5778
  121OSM    H3S12793   0.378   2.393  14.177 -1.1333  0.4255 -0.4971
  121OSM     O312794   0.400   2.186  14.218  0.4751  0.3336  0.0563
  121OSM    HO312795   0.442   2.160  14.135  1.5279  0.3874  0.5616
  121OSM    C4S12796   0.222   2.307  14.302  0.0959 -0.2394 -0.2041
  121OSM    H4S12797   0.158   2.218  14.306  0.2767 -0.3408  0.8005
  121OSM    C5S12798   0.200   2.420  14.377  0.7600  0.7401 -0.0912
  121OSM    H5S12799   0.266   2.504  14.353  0.0926  0.7343 -2.0794
  121OSM    C6S12800   0.089   2.430  14.482 -0.4979 -0.2126  0.4289
  121OSM    H6S12801   0.136   2.472  14.574 -0.5409 -0.3069  0.4931
  121OSM    H6T12802   0.054   2.326  14.499  2.3899 -1.4159 -0.4384
  121OSM    C7S12803  -0.023   2.525  14.435 -0.1694  0.1045  0.1145
  121OSM    H7S12804   0.016   2.629  14.429  3.9096 -1.2491  0.4737
  121OSM    H7T12805  -0.113   2.520  14.501 -1.3200 -1.4622 -1.4834
  121OSM    C8S12806  -0.082   2.491  14.292  0.0872 -0.4061 -0.0024
  121OSM    H8S12807  -0.075   2.381  14.279 -0.2850 -0.2922 -1.2694
  121OSM    H8T12808  -0.017   2.534  14.212 -0.2549 -0.4109 -0.2844
  121OSM    C9S12809  -0.222   2.539  14.278 -0.5867 -0.6886 -0.6420
  121OSM    H9S12810  -0.271   2.497  14.369  0.2873  2.0488  1.2425
  121OSM    H9T12811  -0.259   2.495  14.184 -0.7639 -2.2585  0.1287
  121OSM   C10S12812  -0.238   2.694  14.273  0.3917 -1.3506 -0.0294
  121OSM   H10S12813  -0.215   2.729  14.376 -0.3043 -1.4554  0.1665
  121OSM   H10T12814  -0.341   2.718  14.238  1.1579  0.7924 -0.9515
  121OSM   C11S12815  -0.140   2.767  14.181 -0.1083 -0.1249 -1.2674
  121OSM   H11S12816  -0.143   2.736  14.075  1.0160  0.9888 -1.6641
  121OSM   H11T12817  -0.040   2.750  14.228 -1.2354  2.0509  2.3433
  121OSM   C12S12818  -0.180   2.920  14.187  0.1539  0.4495  0.4506
  121OSM   H12S12819  -0.216   2.954  14.286  0.3559  1.9038  0.0452
  121OSM   H12T12820  -0.253   2.944  14.107  2.4218  2.9152 -1.0413
  121OSM   C13S12821  -0.069   3.010  14.144  0.3053 -0.4935  0.6221
  121OSM   H13S12822  -0.022   2.955  14.060  1.9488 -0.5243  1.5222
  121OSM   H13T12823   0.005   3.005  14.226  0.5625 -1.8752  0.3275
  121OSM   C14S12824  -0.103   3.146  14.097 -0.1369 -0.2719  0.5973
  121OSM   H14S12825  -0.156   3.203  14.177  0.2920 -0.8535  1.3176
  121OSM   H14T12826  -0.179   3.125  14.019  0.9931 -0.1886 -0.5392
  121OSM   C15S12827   0.014   3.223  14.046 -0.4306  0.4090  0.6261
  121OSM   H15S12828  -0.013   3.317  13.992 -0.7841 -0.3355 -0.5409
  121OSM   H15T12829   0.057   3.155  13.969  0.5818  0.9597  0.6976
  121OSM   C16S12830   0.114   3.269  14.146  0.3507 -0.3219 -0.1674
  121OSM   H16S12831   0.150   3.184  14.207  0.0474 -1.0024 -0.9250
  121OSM   H16T12832   0.061   3.328  14.223  1.3267  0.3961 -0.0264
  121OSM   C17S12833   0.234   3.334  14.092 -0.4091 -0.0108  0.1569
  121OSM   H17S12834   0.213   3.424  14.031 -0.4014  1.8092  2.6590
  121OSM   H17T12835   0.273   3.264  14.016 -0.0268  1.3160 -0.9125
  121OSM   C18S12836   0.358   3.366  14.183 -0.3669 -0.0479  0.2956
  121OSM   H18S12837   0.385   3.280  14.248 -0.0917 -1.4261 -1.5483
  121OSM   H18T12838   0.341   3.451  14.252 -2.9121 -0.0364 -0.2391
  121OSM   H18U12839   0.443   3.384  14.114 -1.6880 -0.6459 -1.5735
  121OSM    C1F12840   0.069   2.395  13.909  0.4724 -0.3342 -0.1063
  121OSM     OF12841   0.085   2.329  13.807  0.0073  0.6108  0.4621
  121OSM    C2F12842  -0.039   2.503  13.913 -0.1054  0.6393 -0.0369
  121OSM    H2F12843   0.004   2.602  13.936  0.2837  0.0549  2.0159
  121OSM    H2G12844  -0.113   2.476  13.992 -0.2366 -0.1716 -0.4184
  121OSM    C3F12845  -0.119   2.511  13.788  0.2198 -0.0519  0.6536
  121OSM    H3F12846  -0.178   2.417  13.781  0.7541 -0.3026 -0.8438
  121OSM    H3G12847  -0.066   2.511  13.691 -2.3481 -0.4137 -0.8520
  121OSM    C4F12848  -0.219   2.637  13.793  0.2899  0.3282 -0.5931
  121OSM    H4F12849  -0.261   2.634  13.896  1.9117 -1.2377  0.0781
  121OSM    H4G12850  -0.299   2.621  13.717 -0.0930  1.6707 -0.5070
  121OSM    C5F12851  -0.155   2.769  13.767 -0.7353  0.0614  0.2733
  121OSM    H5F12852  -0.087   2.782  13.854 -0.1715 -4.7655  0.8251
  121OSM    H5G12853  -0.233   2.849  13.771  0.9224  1.8444 -0.9960
  121OSM    C6F12854  -0.067   2.789  13.644 -0.4165  0.3532 -0.1496
  121OSM    H6F12855  -0.144   2.799  13.565 -0.4730  0.2031 -0.1137
  121OSM    H6G12856   0.000   2.703  13.623  1.5591  1.7841 -0.0193
  121OSM    C7F12857   0.034   2.914  13.648 -0.1400  0.1269 -0.2450
  121OSM    H7F12858  -0.017   3.012  13.659 -0.5957 -0.1873  0.5529
  121OSM    H7G12859   0.098   2.911  13.557  0.6403 -0.3112  0.3075
  121OSM    C8F12860   0.144   2.908  13.767 -0.0969  0.4200  0.7999
  121OSM    H8F12861   0.101   2.936  13.865 -0.9388 -1.4992  1.0118
  121OSM    H8G12862   0.221   2.987  13.750  1.7494 -1.1085  1.6849
  121OSM    C9F12863   0.216   2.777  13.764 -0.1127 -0.4630 -0.1171
  121OSM    H9F12864   0.242   2.722  13.673  0.2130  1.1318 -1.0277
  121OSM   C10F12865   0.249   2.702  13.867  0.3009  0.2802 -0.5484
  121OSM   H10F12866   0.292   2.602  13.851 -1.3081 -0.8591  1.6443
  121OSM   C11F12867   0.228   2.739  14.014 -0.2349 -0.1236 -0.4217
  121OSM   H11F12868   0.186   2.656  14.075  0.6976  0.4493  1.0671
  121OSM   H11G12869   0.174   2.835  14.027  0.1695  0.1242 -0.5241
  121OSM   C12F12870   0.372   2.774  14.070  0.4567  0.1390 -0.3873
  121OSM   H12F12871   0.417   2.865  14.027 -0.6982  0.9817  0.1193
  121OSM   H12G12872   0.440   2.687  14.060 -3.2519 -2.9307 -1.6818
  121OSM   C13F12873   0.373   2.789  14.227 -0.1875 -0.3419 -0.0117
  121OSM   H13F12874   0.470   2.832  14.262 -0.3985  2.0924 -2.0650
  121OSM   H13G12875   0.357   2.687  14.268 -0.1778 -1.2492 -2.1369
  121OSM   C14F12876   0.270   2.875  14.295  0.0548  0.0967  0.2025
  121OSM   H14F12877   0.171   2.830  14.269  0.7469 -0.5168 -1.4960
  121OSM   H14G12878   0.269   2.973  14.242 -0.6975 -0.7538 -1.4254
  121OSM   C15F12879   0.304   2.902  14.447 -0.0576  0.7954  0.4380
  121OSM   H15F12880   0.247   2.994  14.474  0.9445  1.3759  0.6491
  121OSM   H15G12881   0.408   2.918  14.481  0.6375 -0.7857 -0.8178
  121OSM   C16F12882   0.258   2.783  14.536  0.1682  0.1933 -0.3400
  121OSM   H16F12883   0.279   2.689  14.481 -1.0491 -0.3142  0.0415
  121OSM   H16G12884   0.150   2.795  14.561  0.1360  0.1395 -0.4530
  121OSM   C17F12885   0.347   2.781  14.663  0.6847  0.0193  0.5746
  121OSM   H17F12886   0.452   2.789  14.627 -0.0243  1.9574 -1.2687
  121OSM   H17G12887   0.335   2.682  14.713 -0.8574 -0.0361  0.1528
  121OSM   C18F12888   0.294   2.893  14.754  0.3340  0.1151  0.3829
  121OSM   H18F12889   0.200   2.861  14.805 -0.6049 -0.6128 -1.6938
  121OSM   H18G12890   0.283   2.995  14.713 -1.7900  0.0036  0.5357
  121OSM   H18H12891   0.361   2.898  14.842 -0.3783 -0.4299  0.9694
  122OSM      N12892   5.903   6.764  11.004  1.2657 -0.4246  0.7128
  122OSM    C1512893   5.760   6.800  10.980  0.0682 -0.1202  0.5896
  122OSM   H15A12894   5.700   6.720  10.940 -0.6745  1.5936 -1.8987
  122OSM   H15B12895   5.760   6.879  10.907  0.4392 -1.8453 -1.3620
  122OSM   H15C12896   5.702   6.829  11.067 -0.6302  2.0627 -0.5387
  122OSM    C1412897   5.974   6.887  11.043 -0.5408  0.5530 -0.4558
  122OSM   H14A12898   5.977   6.969  10.972 -0.8419 -0.0436 -1.1682
  122OSM   H14B12899   6.077   6.853  11.053 -1.0420 -0.9112 -0.0098
  122OSM   H14C12900   5.939   6.928  11.137 -2.3014 -1.1590 -0.3104
  122OSM    C1312901   5.904   6.664  11.112 -0.7094 -0.4247  0.4602
  122OSM   H13A12902   5.867   6.569  11.077  0.5460 -0.3600 -1.1600
  122OSM   H13B12903   5.862   6.704  11.203  0.5051  0.2690  0.7415
  122OSM   H13C12904   6.010   6.652  11.129 -0.0092  3.1816 -0.4745
  122OSM    C1212905   5.971   6.714  10.867 -0.0840 -0.0972  0.0061
  122OSM   H12A12906   5.923   6.619  10.845 -1.1359  0.7723 -1.6749
  122OSM   H12B12907   6.073   6.699  10.898  0.9808  1.4171 -2.4634
  122OSM    C1112908   5.975   6.806  10.741 -0.0834  1.4570 -0.1171
  122OSM   H11A12909   5.874   6.830  10.702 -0.0301  0.2587 -1.0575
  122OSM   H11B12910   6.033   6.740  10.672 -1.4918  0.1309 -0.0873
  122OSM      P12911   6.183   6.969  10.720 -0.2221 -0.0750 -0.0979
  122OSM    O1312912   6.216   7.110  10.749  0.6942  0.0542  0.0583
  122OSM    O1412913   6.285   6.864  10.750  0.5933  0.4149 -0.2756
  122OSM    O1112914   6.156   6.960  10.563  0.2108 -0.0183 -0.2993
  122OSM    O1212915   6.040   6.933  10.778 -0.0779  0.2756  0.1613
  122OSM    C1S12916   6.071   7.055  10.498 -0.1762  0.3714  0.6848
  122OSM    H1S12917   6.133   7.146  10.486 -0.3159  0.5470  1.2925
  122OSM    H1T12918   5.973   7.068  10.548 -0.4801 -0.1719  0.2360
  122OSM     NF12919   5.988   7.115  10.278  0.2219  0.0663  0.4715
  122OSM    HNF12920   5.889   7.125  10.271  0.3315  1.0238  0.0678
  122OSM    C2S12921   6.037   7.000  10.351  0.1347 -0.6684 -0.5212
  122OSM    H2S12922   6.133   6.972  10.304  1.9690  3.6893  0.1508
  122OSM    C3S12923   5.952   6.869  10.354  0.5464 -0.0712 -0.1516
  122OSM    H3S12924   5.862   6.896  10.412 -0.6622 -0.3779 -1.8172
  122OSM     O312925   6.020   6.760  10.414  0.1157 -0.0112  0.1276
  122OSM    HO312926   6.104   6.797  10.444 -0.5632  0.6119  1.3092
  122OSM    C4S12927   5.914   6.835  10.208  0.0345 -0.2351  0.3065
  122OSM    H4S12928   5.999   6.809  10.143 -0.4944 -1.2298  0.0015
  122OSM    C5S12929   5.795   6.840  10.150 -0.3841  0.5615 -0.0283
  122OSM    H5S12930   5.712   6.895  10.199  0.1972  1.1415  0.3244
  122OSM    C6S12931   5.797   6.805  10.005 -0.1168  0.2364 -0.4376
  122OSM    H6S12932   5.699   6.758   9.981  0.7142 -1.0809 -1.4142
  122OSM    H6T12933   5.868   6.724   9.978  0.5076  0.8470 -0.6605
  122OSM    C7S12934   5.824   6.926   9.916 -0.4520  0.9489 -0.2274
  122OSM    H7S12935   5.928   6.964   9.927 -0.1348 -0.1769  0.9183
  122OSM    H7T12936   5.754   7.010   9.935  0.8432  2.4484 -1.7951
  122OSM    C8S12937   5.807   6.884   9.769 -0.2024 -0.9881  0.1031
  122OSM    H8S12938   5.703   6.904   9.736 -0.6605 -0.4120  1.7485
  122OSM    H8T12939   5.846   6.782   9.750 -1.4567 -1.2232 -1.3845
  122OSM    C9S12940   5.889   6.980   9.673  0.0433 -0.5500  0.5495
  122OSM    H9S12941   5.991   6.990   9.714 -0.3636 -1.8505  1.9688
  122OSM    H9T12942   5.841   7.081   9.667 -1.6625 -1.2665  1.3469
  122OSM   C10S12943   5.877   6.923   9.532 -0.1975 -0.0040  0.5217
  122OSM   H10S12944   5.773   6.948   9.503 -0.1095  0.1920  0.3700
  122OSM   H10T12945   5.900   6.814   9.538  1.9237  0.3356 -0.3857
  122OSM   C11S12946   5.973   6.985   9.428  0.5850  0.2290  0.4702
  122OSM   H11S12947   6.074   7.020   9.456  0.5528  2.9120 -2.2197
  122OSM   H11T12948   5.924   7.080   9.398  2.9802  0.9286 -1.5788
  122OSM   C12S12949   5.987   6.896   9.303  0.1375 -0.2795  0.4459
  122OSM   H12S12950   6.060   6.816   9.328  1.0382  0.4792  0.2902
  122OSM   H12T12951   6.033   6.961   9.225 -3.3515  0.4264 -1.1973
  122OSM   C13S12952   5.858   6.842   9.236  0.1585 -0.3334  0.3987
  122OSM   H13S12953   5.787   6.923   9.209  0.7639  0.4279  1.0589
  122OSM   H13T12954   5.808   6.781   9.314  0.8714  0.8819  1.8591
  122OSM   C14S12955   5.889   6.756   9.108 -0.1458  0.1995  0.2603
  122OSM   H14S12956   5.957   6.674   9.139 -0.9022 -0.5526 -0.0675
  122OSM   H14T12957   5.938   6.823   9.033 -2.0843  0.8786 -0.4445
  122OSM   C15S12958   5.770   6.694   9.031 -0.4046 -0.3738 -1.3036
  122OSM   H15S12959   5.801   6.643   8.938  0.5618  1.3640 -1.9839
  122OSM   H15T12960   5.710   6.778   8.988 -1.1784 -0.7411 -0.9611
  122OSM   C16S12961   5.672   6.610   9.122  0.4181  0.0945 -0.0899
  122OSM   H16S12962   5.599   6.678   9.171 -0.2932  0.5165 -1.6484
  122OSM   H16T12963   5.733   6.563   9.202  0.6870 -0.5404 -0.6512
  122OSM   C17S12964   5.605   6.492   9.041  0.4416  0.3082  0.0766
  122OSM   H17S12965   5.680   6.435   8.982 -0.1000 -0.3802  0.0363
  122OSM   H17T12966   5.534   6.536   8.967 -1.3240  2.3505  2.7961
  122OSM   C18S12967   5.530   6.388   9.127  0.3125  0.2310 -0.2244
  122OSM   H18S12968   5.483   6.304   9.072  1.2152 -0.8298  0.5673
  122OSM   H18T12969   5.452   6.445   9.183  0.5979  0.7959 -0.3902
  122OSM   H18U12970   5.589   6.320   9.192 -1.5301 -1.2453 -0.0185
  122OSM    C1F12971   6.063   7.208  10.221  0.4539 -0.2422 -0.5717
  122OSM     OF12972   6.182   7.189  10.211 -1.0153  0.3328 -0.4544
  122OSM    C2F12973   6.004   7.337  10.191 -0.3855 -0.0154  0.3462
  122OSM    H2F12974   6.081   7.393  10.133 -0.0750  0.6795  1.3977
  122OSM    H2G12975   5.999   7.401  10.281  0.0108  0.7056 -0.1344
  122OSM    C3F12976   5.876   7.341  10.106  0.0172 -0.2503 -0.7822
  122OSM    H3F12977   5.796   7.321  10.181 -0.2982 -2.4750 -1.6203
  122OSM    H3G12978   5.876   7.254  10.037 -0.8737  0.2505 -1.4475
  122OSM    C4F12979   5.856   7.473  10.037  0.5294 -1.2000 -0.2868
  122OSM    H4F12980   5.931   7.491   9.957  1.2624  0.2278  0.6747
  122OSM    H4G12981   5.868   7.560  10.105  1.2204 -0.6607 -1.0776
  122OSM    C5F12982   5.721   7.493   9.968  0.3123  0.2966 -0.3981
  122OSM    H5F12983   5.716   7.599   9.936 -0.2950  1.1845  2.3765
  122OSM    H5G12984   5.646   7.467  10.045  0.6056 -2.4813 -0.9408
  122OSM    C6F12985   5.713   7.403   9.842  0.0897  1.1929  0.1568
  122OSM    H6F12986   5.707   7.296   9.873 -2.0367  0.3823 -2.6188
  122OSM    H6G12987   5.807   7.402   9.784  1.5982  1.1507  2.4646
  122OSM    C7F12988   5.597   7.449   9.749 -0.4737 -0.1144  0.0541
  122OSM    H7F12989   5.599   7.559   9.758  1.9511 -0.1331  0.3184
  122OSM    H7G12990   5.496   7.432   9.792 -0.5855 -1.5954 -0.7257
  122OSM    C8F12991   5.607   7.403   9.603  0.4640  0.0634  0.1987
  122OSM    H8F12992   5.699   7.432   9.547  1.2149 -0.6820  1.0076
  122OSM    H8G12993   5.537   7.463   9.541  0.0052 -0.0938  0.5616
  122OSM    C9F12994   5.588   7.250   9.597 -0.2424 -0.5197  0.1340
  122OSM    H9F12995   5.679   7.199   9.632 -0.9844 -1.6774  0.4258
  122OSM   C10F12996   5.477   7.177   9.565 -0.2247 -0.0318 -0.3597
  122OSM   H10F12997   5.481   7.068   9.549  2.9873 -0.1011  0.2901
  122OSM   C11F12998   5.350   7.244   9.516  1.0681  0.5711  0.3335
  122OSM   H11F12999   5.355   7.355   9.509  1.3453  0.5089 -0.5132
  122OSM   H11G13000   5.266   7.216   9.583  0.6156  1.1017 -0.0086
  122OSM   C12F13001   5.314   7.210   9.367  0.3189  0.0204  0.2491
  122OSM   H12F13002   5.265   7.111   9.362  2.5705 -1.1407  0.0978
  122OSM   H12G13003   5.402   7.206   9.300  0.9508 -2.6177  1.1190
  122OSM   C13F13004   5.211   7.309   9.316  0.4385  0.3939  0.0879
  122OSM   H13F13005   5.251   7.413   9.321 -2.3368  1.5946 -0.9392
  122OSM   H13G13006   5.124   7.320   9.384  0.2368 -1.9495  0.3019
  122OSM   C14F13007   5.171   7.282   9.174 -0.0611 -0.5826 -0.6765
  122OSM   H14F13008   5.122   7.183   9.165 -0.4785 -0.4152 -0.2608
  122OSM   H14G13009   5.263   7.296   9.112 -0.8075  1.2031 -1.4603
  122OSM   C15F13010   5.083   7.396   9.113  0.2561 -0.0717 -0.3298
  122OSM   H15F13011   5.135   7.493   9.128 -0.5068  0.5605 -1.5886
  122OSM   H15G13012   4.998   7.402   9.185 -1.0631 -0.5425 -1.7998
  122OSM   C16F13013   5.024   7.369   8.977  0.7322 -0.6720  0.9572
  122OSM   H16F13014   4.976   7.269   8.970  1.2204 -0.8591  0.0735
  122OSM   H16G13015   5.111   7.379   8.908  0.7106  4.8730  1.2933
  122OSM   C17F13016   4.920   7.474   8.930 -0.9416 -0.4657 -0.2548
  122OSM   H17F13017   4.967   7.575   8.922  0.0908 -0.7791  1.3776
  122OSM   H17G13018   4.833   7.479   8.999  0.6254 -1.5378  1.9293
  122OSM   C18F13019   4.872   7.455   8.787  0.0726  0.4275  0.5479
  122OSM   H18F13020   4.790   7.529   8.778 -2.4648 -2.3471 -1.6902
  122OSM   H18G13021   4.819   7.360   8.764  3.1162 -0.7141 -2.6333
  122OSM   H18H13022   4.953   7.452   8.711  0.1527  0.5487  0.6279
  123OSM      N13023   6.365   0.071   5.941 -0.2701 -0.2134 -0.2120
  123OSM    C1513024   6.232   0.134   5.974 -0.5194  0.4805  0.6432
  123OSM   H15A13025   6.165   0.069   6.027 -0.9763 -0.4764 -1.0078
  123OSM   H15B13026   6.173   0.154   5.885  0.4597 -0.4102 -0.2317
  123OSM   H15C13027   6.251   0.230   6.020 -1.1483  0.9286 -0.0089
  123OSM    C1413028   6.351  -0.069   5.904  0.3950 -0.8316 -0.1136
  123OSM   H14A13029   6.303  -0.085   5.808  0.5298  2.1266 -0.7730
  123OSM   H14B13030   6.297  -0.104   5.991 -0.6127  0.5889 -0.1235
  123OSM   H14C13031   6.447  -0.118   5.895  1.0963  0.4286  0.2976
  123OSM    C1313032   6.435   0.151   5.832 -0.6132  0.1732 -0.2287
  123OSM   H13A13033   6.460   0.253   5.858 -1.1055  0.1457  0.3697
  123OSM   H13B13034   6.365   0.158   5.750  0.3816 -0.4436 -1.1658
  123OSM   H13C13035   6.524   0.102   5.796 -0.0280  2.0537 -1.4807
  123OSM    C1213036   6.453   0.084   6.068  0.2517 -0.0427 -1.0295
  123OSM   H12A13037   6.438   0.179   6.118 -1.9106 -2.3643  3.3517
  123OSM   H12B13038   6.556   0.061   6.043  0.8722  1.3616  0.0325
  123OSM    C1113039   6.411  -0.011   6.184 -0.3457  0.2438  0.2403
  123OSM   H11A13040   6.306  -0.047   6.178 -0.3000  0.1013  0.3001
  123OSM   H11B13041   6.416   0.042   6.281  0.0588 -0.4172  0.5924
  123OSM      P13042   6.471  -0.265   6.218  0.4443  0.0570  0.0595
  123OSM    O1313043   6.356  -0.304   6.130 -0.3224  0.3073  0.1838
  123OSM    O1413044   6.589  -0.360   6.229  0.5095 -1.3929  0.7862
  123OSM    O1113045   6.402  -0.256   6.363 -0.1058 -0.7027 -0.1943
  123OSM    O1213046   6.511  -0.116   6.190 -0.4983  0.0124  0.2065
  123OSM    C1S13047   6.496  -0.243   6.473  0.0984 -0.0693  0.7251
  123OSM    H1S13048   6.532  -0.138   6.480 -1.6581  0.6024  0.0796
  123OSM    H1T13049   6.586  -0.308   6.459  1.4496  2.3214 -2.8747
  123OSM     NF13050   6.514  -0.203   6.723 -0.0154  0.4138  0.4914
  123OSM    HNF13051   6.563  -0.268   6.780  1.5017 -1.0237 -2.2731
  123OSM    C2S13052   6.425  -0.264   6.622 -0.5282 -0.1059 -0.8195
  123OSM    H2S13053   6.330  -0.206   6.619 -0.4273  0.0673 -0.7200
  123OSM    C3S13054   6.403  -0.415   6.636 -0.2324 -0.2918 -0.7390
  123OSM    H3S13055   6.503  -0.464   6.632 -0.4484 -1.2066  2.3337
  123OSM     O313056   6.324  -0.472   6.535  0.6019 -0.0953  0.2931
  123OSM    HO313057   6.315  -0.396   6.478  0.7270 -0.0672  0.3082
  123OSM    C4S13058   6.355  -0.449   6.781  0.3172  0.4499 -0.3393
  123OSM    H4S13059   6.436  -0.482   6.847  0.6952 -0.1351 -1.0932
  123OSM    C5S13060   6.234  -0.452   6.836 -0.2966  0.2289  0.3104
  123OSM    H5S13061   6.141  -0.430   6.781 -1.0664 -1.5429  0.8484
  123OSM    C6S13062   6.207  -0.503   6.977 -0.1688 -0.0098  0.8899
  123OSM    H6S13063   6.224  -0.613   6.979  2.1240  0.1607 -2.0826
  123OSM    H6T13064   6.101  -0.484   7.004 -0.2193 -0.8010  1.2809
  123OSM    C7S13065   6.293  -0.448   7.098 -0.7142 -0.3345  0.3690
  123OSM    H7S13066   6.293  -0.337   7.103 -0.9461 -0.2019 -1.7100
  123OSM    H7T13067   6.398  -0.477   7.074 -0.9944  0.9254 -2.8256
  123OSM    C8S13068   6.244  -0.511   7.234  0.4375 -0.0278  0.0846
  123OSM    H8S13069   6.246  -0.622   7.239 -0.1506 -0.0069  4.4547
  123OSM    H8T13070   6.137  -0.485   7.237  0.3497 -0.4391  2.0865
  123OSM    C9S13071   6.329  -0.470   7.351 -0.3093  0.3430 -0.3231
  123OSM    H9S13072   6.326  -0.359   7.357 -2.0853  0.2655  1.0855
  123OSM    H9T13073   6.435  -0.499   7.331 -0.3778 -0.5837  0.5789
  123OSM   C10S13074   6.303  -0.534   7.491  0.0898 -0.4360  0.7499
  123OSM   H10S13075   6.348  -0.635   7.505 -0.8102 -0.9453  0.0884
  123OSM   H10T13076   6.193  -0.542   7.487  0.1178 -1.9189 -5.1456
  123OSM   C11S13077   6.341  -0.444   7.606 -0.3790  0.3221  0.1937
  123OSM   H11S13078   6.283  -0.349   7.606  1.4489  1.5258  2.0338
  123OSM   H11T13079   6.447  -0.413   7.604 -0.6265  1.1997  0.0477
  123OSM   C12S13080   6.307  -0.509   7.736 -0.2869 -0.4467 -0.2985
  123OSM   H12S13081   6.361  -0.606   7.741 -0.3850 -0.4428  2.4220
  123OSM   H12T13082   6.199  -0.533   7.751 -1.0354  2.6387 -0.1118
  123OSM   C13S13083   6.350  -0.415   7.855 -0.0654  0.1139  0.3980
  123OSM   H13S13084   6.295  -0.319   7.846  0.9289  0.6996  0.3840
  123OSM   H13T13085   6.456  -0.384   7.849  0.2144 -0.9818 -0.6624
  123OSM   C14S13086   6.321  -0.486   7.990  0.2071  0.3695 -0.0046
  123OSM   H14S13087   6.215  -0.520   7.991 -1.0077  3.7492  0.7059
  123OSM   H14T13088   6.348  -0.415   8.071  2.3005  0.7688 -0.9696
  123OSM   C15S13089   6.414  -0.606   8.004  0.3154 -0.7622 -0.3444
  123OSM   H15S13090   6.518  -0.582   7.974  0.4087 -1.5229 -0.6348
  123OSM   H15T13091   6.366  -0.684   7.941 -0.5292 -1.5680  1.2267
  123OSM   C16S13092   6.413  -0.673   8.142 -0.2379 -0.3522  0.5319
  123OSM   H16S13093   6.445  -0.779   8.135  1.0282 -0.3586  4.2127
  123OSM   H16T13094   6.305  -0.672   8.169 -0.5806 -0.1661 -0.7724
  123OSM   C17S13095   6.495  -0.604   8.249 -1.1615  0.1553  0.2866
  123OSM   H17S13096   6.462  -0.500   8.269  0.0371  0.9117 -1.4306
  123OSM   H17T13097   6.601  -0.597   8.216 -0.5707 -3.0659  1.1430
  123OSM   C18S13098   6.497  -0.695   8.372  1.3901 -0.2997  0.0666
  123OSM   H18S13099   6.532  -0.641   8.462  2.6773 -2.5314  0.9928
  123OSM   H18T13100   6.548  -0.793   8.357 -0.9549 -1.5277 -0.4676
  123OSM   H18U13101   6.389  -0.710   8.394  1.2474  2.7291  1.9722
  123OSM    C1F13102   6.516  -0.073   6.743 -0.1608  0.9216  0.3467
  123OSM     OF13103   6.449   0.003   6.673 -0.1265  0.1911 -0.2440
  123OSM    C2F13104   6.616  -0.024   6.850  0.7907 -0.3964  0.0761
  123OSM    H2F13105   6.672   0.058   6.799 -0.3883  0.5786  0.2856
  123OSM    H2G13106   6.683  -0.108   6.878  0.0487 -0.7671  0.7921
  123OSM    C3F13107   6.545   0.026   6.985  0.8989  0.0964 -0.0827
  123OSM    H3F13108   6.477  -0.052   7.024 -1.3307  1.1124 -1.7258
  123OSM    H3G13109   6.486   0.111   6.945  0.7992  1.0841  2.0634
  123OSM    C4F13110   6.657   0.064   7.082  0.3296 -0.2226 -0.1262
  123OSM    H4F13111   6.703   0.150   7.029  0.3422 -0.0483  0.1663
  123OSM    H4G13112   6.730  -0.019   7.089  0.7370 -0.0727 -1.9277
  123OSM    C5F13113   6.595   0.108   7.217  0.4757  0.8445 -0.0172
  123OSM    H5F13114   6.503   0.167   7.193 -1.0463 -1.4378 -0.0372
  123OSM    H5G13115   6.669   0.176   7.265 -1.4483  2.1960  1.1852
  123OSM    C6F13116   6.564  -0.005   7.313 -0.5252  0.2942  0.7515
  123OSM    H6F13117   6.530  -0.099   7.264 -0.4174 -0.3980  1.9593
  123OSM    H6G13118   6.490   0.025   7.391 -0.2666 -0.9300  1.5054
  123OSM    C7F13119   6.690  -0.033   7.387 -0.0338  0.0034  0.6648
  123OSM    H7F13120   6.725   0.060   7.436 -1.2731  0.2367  1.1161
  123OSM    H7G13121   6.759  -0.067   7.306 -2.9630 -1.4575 -1.3919
  123OSM    C8F13122   6.679  -0.149   7.491  0.2114  0.2805  0.4332
  123OSM    H8F13123   6.781  -0.183   7.519 -0.1467 -1.4713 -0.2675
  123OSM    H8G13124   6.638  -0.243   7.448  1.8758  0.5378 -1.9146
  123OSM    C9F13125   6.624  -0.112   7.628 -0.3446 -0.2193  0.4997
  123OSM    H9F13126   6.523  -0.069   7.620  0.4769  1.7873  0.4906
  123OSM   C10F13127   6.677  -0.117   7.752 -0.2929 -0.0512  0.0190
  123OSM   H10F13128   6.611  -0.075   7.829  0.1672  4.0137 -1.5625
  123OSM   C11F13129   6.813  -0.174   7.801 -0.0987 -0.3440  0.6502
  123OSM   H11F13130   6.885  -0.096   7.837  2.0960 -2.2565  0.6464
  123OSM   H11G13131   6.868  -0.210   7.711 -0.0659 -0.3279  0.6635
  123OSM   C12F13132   6.808  -0.275   7.906  0.7761 -0.0378 -0.1169
  123OSM   H12F13133   6.901  -0.336   7.913  0.8204  0.1538  1.2535
  123OSM   H12G13134   6.731  -0.349   7.876  0.0656  1.2700 -1.6460
  123OSM   C13F13135   6.782  -0.223   8.055 -0.8773 -0.1782 -0.7528
  123OSM   H13F13136   6.701  -0.150   8.039 -0.4575  0.2063 -1.1386
  123OSM   H13G13137   6.874  -0.168   8.085 -1.9525  1.2186  0.0878
  123OSM   C14F13138   6.747  -0.339   8.149  0.1337 -0.3558 -0.7834
  123OSM   H14F13139   6.795  -0.434   8.115  0.9449 -0.4404  0.5154
  123OSM   H14G13140   6.636  -0.350   8.154  0.2658 -1.3847  1.8751
  123OSM   C15F13141   6.792  -0.320   8.294  0.3356 -0.0874  0.5391
  123OSM   H15F13142   6.745  -0.389   8.367  2.1334  0.9932  2.8768
  123OSM   H15G13143   6.758  -0.220   8.329 -1.0692 -0.3147 -0.1176
  123OSM   C16F13144   6.948  -0.344   8.321  0.1898  0.3637  0.1693
  123OSM   H16F13145   7.008  -0.313   8.233  0.4198 -0.9203 -0.1403
  123OSM   H16G13146   6.964  -0.451   8.343 -2.2945 -0.6615 -2.4763
  123OSM   C17F13147   6.991  -0.272   8.444 -0.1051 -0.3767 -0.5055
  123OSM   H17F13148   7.082  -0.315   8.491  0.5736  0.2058 -1.2680
  123OSM   H17G13149   6.919  -0.286   8.527  1.2157  2.0384  1.1443
  123OSM   C18F13150   7.026  -0.129   8.416  0.0616 -0.5341  0.0773
  123OSM   H18F13151   7.102  -0.133   8.335 -0.6611 -2.9060 -0.5555
  123OSM   H18G13152   7.073  -0.077   8.502  1.3984 -2.1245  0.3539
  123OSM   H18H13153   6.933  -0.075   8.390  0.9716  0.8507 -0.4619
  124OSM      N13154   0.712   3.936   5.391 -0.4210 -0.1734  0.4170
  124OSM    C1513155   0.757   4.070   5.356 -0.5740 -0.0241 -0.4367
  124OSM   H15A13156   0.793   4.056   5.256  0.9594 -0.7442  0.1820
  124OSM   H15B13157   0.831   4.101   5.428 -1.1277 -2.3415  1.2385
  124OSM   H15C13158   0.675   4.140   5.360 -1.0617 -0.6066 -0.1549
  124OSM    C1413159   0.605   3.889   5.295  0.0449 -0.0343  1.0893
  124OSM   H14A13160   0.562   3.796   5.331 -2.1723  0.4936 -0.0193
  124OSM   H14B13161   0.648   3.865   5.199 -0.7984 -0.1847  0.7394
  124OSM   H14C13162   0.521   3.956   5.286  0.1557 -0.0233 -0.0095
  124OSM    C1313163   0.823   3.841   5.360 -0.6006  0.5441 -0.6315
  124OSM   H13A13164   0.913   3.858   5.417 -1.6930  0.0832  1.3466
  124OSM   H13B13165   0.853   3.846   5.257  0.6105 -0.1027 -0.3254
  124OSM   H13C13166   0.786   3.744   5.391 -0.5489  0.8663  0.5151
  124OSM    C1213167   0.660   3.923   5.531 -0.3312 -0.4138  0.3726
  124OSM   H12A13168   0.623   3.823   5.546  1.1108 -0.7279  2.2141
  124OSM   H12B13169   0.582   3.990   5.562 -1.3386 -1.6889  0.6806
  124OSM    C1113170   0.770   3.955   5.639  0.3735 -0.0821  0.1820
  124OSM   H11A13171   0.732   3.991   5.737  0.5793  0.0945  0.1979
  124OSM   H11B13172   0.837   4.037   5.605  0.5784  0.0650  0.9264
  124OSM      P13173   0.964   3.829   5.762  0.2211 -0.0184  0.3841
  124OSM    O1313174   1.010   3.684   5.769 -0.2504  0.0869 -0.0063
  124OSM    O1413175   1.066   3.927   5.720  0.2846  0.3483  0.6192
  124OSM    O1113176   0.908   3.868   5.900 -0.3731  0.7286 -0.0054
  124OSM    O1213177   0.841   3.834   5.662  0.1709 -0.4252 -0.3693
  124OSM    C1S13178   0.996   3.905   6.009  0.5155  0.1423 -0.1412
  124OSM    H1S13179   1.028   4.011   6.000  0.4866  0.1171 -0.5603
  124OSM    H1T13180   1.086   3.841   6.015  1.6320  1.7255  1.0608
  124OSM     NF13181   0.999   3.945   6.263  1.0932 -0.4994  0.0924
  124OSM    HNF13182   1.030   3.883   6.334 -1.1532  0.1182  1.7183
  124OSM    C2S13183   0.928   3.885   6.154 -0.5805  0.3244  0.5306
  124OSM    H2S13184   0.833   3.940   6.138 -0.3674  0.1307 -1.8645
  124OSM    C3S13185   0.870   3.745   6.184 -0.7991 -0.7524 -0.9619
  124OSM    H3S13186   0.950   3.670   6.199 -0.4943 -0.1555  0.7516
  124OSM     O313187   0.797   3.685   6.078 -0.0830  0.0539 -0.2581
  124OSM    HO313188   0.820   3.721   5.992 -0.9885 -3.2421 -2.0744
  124OSM    C4S13189   0.776   3.754   6.308  0.1328 -0.1599  0.2087
  124OSM    H4S13190   0.684   3.812   6.296 -0.4021 -1.1398 -0.5650
  124OSM    C5S13191   0.799   3.688   6.426 -0.6825 -0.3245 -0.0738
  124OSM    H5S13192   0.885   3.620   6.431 -1.4746 -1.4847 -1.5726
  124OSM    C6S13193   0.703   3.687   6.537 -0.2578  0.2902 -0.4487
  124OSM    H6S13194   0.686   3.583   6.572  3.3246 -0.5245 -0.7996
  124OSM    H6T13195   0.604   3.729   6.509 -0.7068 -0.9083 -0.7404
  124OSM    C7S13196   0.754   3.768   6.662  0.4054 -0.0022  0.5755
  124OSM    H7S13197   0.783   3.873   6.640 -0.9866  1.2214  3.8980
  124OSM    H7T13198   0.839   3.705   6.697  0.0250 -2.5635 -2.6727
  124OSM    C8S13199   0.656   3.782   6.785  0.3387  0.5357 -0.5587
  124OSM    H8S13200   0.608   3.684   6.805  0.0147  0.6901 -0.5661
  124OSM    H8T13201   0.565   3.839   6.753 -0.1804  0.8178  1.3156
  124OSM    C9S13202   0.727   3.846   6.910  0.3499  0.2033 -0.2887
  124OSM    H9S13203   0.734   3.956   6.897  1.1862  0.2664  0.5605
  124OSM    H9T13204   0.830   3.805   6.916 -0.8279 -2.7707  2.3553
  124OSM   C10S13205   0.647   3.822   7.042 -0.1254 -0.3340  0.0417
  124OSM   H10S13206   0.622   3.717   7.071 -2.3052 -0.0033 -0.4901
  124OSM   H10T13207   0.546   3.860   7.018  1.1057  2.5881 -0.9037
  124OSM   C11S13208   0.718   3.899   7.149  1.3717  0.6015  0.2693
  124OSM   H11S13209   0.727   4.006   7.122  0.5300 -0.0606 -3.0553
  124OSM   H11T13210   0.825   3.873   7.157  1.6219  1.5763  0.1810
  124OSM   C12S13211   0.650   3.879   7.284 -0.3964 -0.2489  0.2856
  124OSM   H12S13212   0.582   3.793   7.263 -2.3255  1.8229 -2.6422
  124OSM   H12T13213   0.587   3.969   7.295 -0.7725 -0.6593  1.6886
  124OSM   C13S13214   0.741   3.875   7.406 -0.5577 -0.6303  0.0744
  124OSM   H13S13215   0.820   3.953   7.412  0.7782 -2.0410  1.9486
  124OSM   H13T13216   0.796   3.778   7.408 -2.9400 -2.0508  1.0650
  124OSM   C14S13217   0.669   3.894   7.540  0.0120  0.3831  0.5260
  124OSM   H14S13218   0.595   3.811   7.547  2.0305 -2.0238 -3.3594
  124OSM   H14T13219   0.610   3.987   7.534 -2.2626 -1.0534 -0.9020
  124OSM   C15S13220   0.747   3.895   7.667 -0.5690  0.3723 -0.1419
  124OSM   H15S13221   0.816   3.983   7.664  0.3964 -0.2591  1.7312
  124OSM   H15T13222   0.814   3.808   7.685 -0.5080  0.6005  0.7842
  124OSM   C16S13223   0.659   3.930   7.789  0.8230  0.5700 -0.1495
  124OSM   H16S13224   0.594   3.843   7.810  2.0389 -0.7660 -1.6853
  124OSM   H16T13225   0.589   4.012   7.759  0.5320  0.4638  0.2311
  124OSM   C17S13226   0.744   3.975   7.903  0.3738 -0.6609  0.0175
  124OSM   H17S13227   0.807   4.061   7.872 -0.3023  0.4084  1.5060
  124OSM   H17T13228   0.819   3.901   7.939 -0.7242 -0.6791  2.4424
  124OSM   C18S13229   0.675   4.019   8.025  0.6190  0.1653 -0.0053
  124OSM   H18S13230   0.732   4.081   8.097  0.3851 -2.8157  3.0571
  124OSM   H18T13231   0.639   3.934   8.088  3.2890  0.7464  2.5377
  124OSM   H18U13232   0.585   4.076   7.994  2.3465  2.6607 -0.6823
  124OSM    C1F13233   1.033   4.075   6.275 -0.0286  0.1329 -0.2254
  124OSM     OF13234   1.003   4.155   6.187 -0.5169 -0.2839  0.3330
  124OSM    C2F13235   1.112   4.120   6.397 -0.4211 -0.3503 -0.7243
  124OSM    H2F13236   1.129   4.229   6.382  2.5348 -0.6589 -0.1185
  124OSM    H2G13237   1.216   4.085   6.383 -0.1728  0.8800 -2.3216
  124OSM    C3F13238   1.048   4.108   6.536  0.3074  0.6924 -0.3831
  124OSM    H3F13239   1.022   4.004   6.566  0.5280  1.1132  1.4011
  124OSM    H3G13240   0.955   4.168   6.541  0.6763  1.1812  1.2509
  124OSM    C4F13241   1.144   4.138   6.650 -0.6276 -0.0416 -0.2977
  124OSM    H4F13242   1.173   4.245   6.647  0.5674 -0.3136  0.7790
  124OSM    H4G13243   1.239   4.081   6.650  0.1578  1.1962 -1.9221
  124OSM    C5F13244   1.061   4.105   6.779  0.5255 -0.3183  0.0996
  124OSM    H5F13245   1.045   3.995   6.785  2.2332 -0.6131 -0.3153
  124OSM    H5G13246   0.963   4.156   6.765  1.4373  1.8319  1.0887
  124OSM    C6F13247   1.110   4.154   6.912  0.4337 -0.4170 -0.0916
  124OSM    H6F13248   1.154   4.255   6.904  0.0415 -0.3379 -1.7109
  124OSM    H6G13249   1.202   4.100   6.942 -0.1524 -1.5114 -0.1956
  124OSM    C7F13250   1.021   4.146   7.034 -0.1159  0.2372 -0.5362
  124OSM    H7F13251   0.991   4.039   7.044  0.8913  0.0121  0.2548
  124OSM    H7G13252   0.930   4.206   7.017 -0.4890 -0.2173 -0.1880
  124OSM    C8F13253   1.084   4.191   7.165 -0.4534 -0.2687 -0.0717
  124OSM    H8F13254   1.119   4.296   7.161 -0.9074 -0.1343 -0.7691
  124OSM    H8G13255   1.174   4.126   7.168  0.2680  0.6865 -0.3835
  124OSM    C9F13256   0.995   4.161   7.285 -0.1155  0.3050  0.0778
  124OSM    H9F13257   0.935   4.069   7.284  1.9470 -1.1257  0.4864
  124OSM   C10F13258   0.976   4.245   7.387  0.1996  0.3945  0.5343
  124OSM   H10F13259   0.913   4.205   7.468  2.7809 -0.6482  2.1290
  124OSM   C11F13260   1.048   4.375   7.417  0.3538 -0.0001  0.0652
  124OSM   H11F13261   1.065   4.417   7.316 -4.7158  0.1597 -0.9831
  124OSM   H11G13262   1.142   4.364   7.475 -0.1476 -0.0024  0.8882
  124OSM   C12F13263   0.961   4.490   7.489  0.2312 -0.6046  0.2874
  124OSM   H12F13264   0.877   4.517   7.421 -0.5111  0.5842  1.6355
  124OSM   H12G13265   1.035   4.573   7.492  0.8501 -1.1318 -0.1088
  124OSM   C13F13266   0.903   4.460   7.627 -0.2951  0.5883  0.2907
  124OSM   H13F13267   0.838   4.370   7.622 -0.3562  0.5690  1.2379
  124OSM   H13G13268   0.829   4.535   7.663 -2.6556 -0.6794 -1.5827
  124OSM   C14F13269   1.015   4.422   7.724 -0.0241 -0.3360  0.0623
  124OSM   H14F13270   1.088   4.505   7.729 -0.1388 -0.1869 -0.5890
  124OSM   H14G13271   1.065   4.327   7.694  0.0165 -0.3209  0.0821
  124OSM   C15F13272   0.965   4.419   7.874  0.0449 -0.1496  0.0353
  124OSM   H15F13273   1.054   4.412   7.940  0.8057  0.6015 -0.8946
  124OSM   H15G13274   0.907   4.326   7.895 -0.8858  0.3800 -0.1713
  124OSM   C16F13275   0.887   4.539   7.932  0.2805 -0.8322 -0.0328
  124OSM   H16F13276   0.787   4.543   7.884  0.0381 -2.0175  0.3413
  124OSM   H16G13277   0.940   4.635   7.917  1.6817 -1.6128 -0.3239
  124OSM   C17F13278   0.857   4.519   8.082 -0.0682 -0.8123 -0.1016
  124OSM   H17F13279   0.947   4.466   8.120 -1.1536 -1.4103  1.7835
  124OSM   H17G13280   0.776   4.445   8.102 -1.7141  1.4845  2.3630
  124OSM   C18F13281   0.840   4.643   8.165  0.2705 -0.1683 -0.0214
  124OSM   H18F13282   0.922   4.717   8.149  0.3975 -0.6034 -1.4950
  124OSM   H18G13283   0.849   4.619   8.273  0.5000  1.9787  0.4724
  124OSM   H18H13284   0.748   4.692   8.126  1.2303 -0.2277 -2.5834
  125OSM      N13285   1.895   5.922   5.834  0.3838 -0.7768 -0.0210
  125OSM    C1513286   1.863   6.053   5.907  0.3172 -0.7056  0.0839
  125OSM   H15A13287   1.791   6.111   5.850 -0.8379 -1.6087  0.5771
  125OSM   H15B13288   1.947   6.120   5.910 -1.3227  1.6539 -2.1902
  125OSM   H15C13289   1.820   6.033   6.004 -1.6680 -0.0973 -0.6180
  125OSM    C1413290   1.763   5.851   5.815  0.3021 -0.1347  0.3471
  125OSM   H14A13291   1.718   5.829   5.911 -0.6132  1.9708  0.4705
  125OSM   H14B13292   1.775   5.761   5.758  0.5864  0.9906 -1.4569
  125OSM   H14C13293   1.704   5.911   5.747  0.4157 -0.5228 -0.0930
  125OSM    C1313294   1.952   5.958   5.703 -0.9591  0.0005  0.7366
  125OSM   H13A13295   1.885   6.026   5.653  1.7294  0.5224 -2.5099
  125OSM   H13B13296   1.965   5.870   5.641 -0.4099  1.2832 -1.0507
  125OSM   H13C13297   2.047   6.008   5.718 -0.3141  1.4003 -5.3207
  125OSM    C1213298   1.987   5.847   5.922 -0.7645 -0.4323  0.2134
  125OSM   H12A13299   1.987   5.744   5.888  2.2443 -0.2149 -0.7752
  125OSM   H12B13300   1.952   5.838   6.024  0.7218  3.2539  1.2034
  125OSM    C1113301   2.134   5.888   5.946  0.0367 -0.8567  0.5359
  125OSM   H11A13302   2.188   5.812   6.007  1.2577 -0.6625 -0.2666
  125OSM   H11B13303   2.136   5.982   6.004 -0.5600 -1.5090  1.6547
  125OSM      P13304   2.322   6.025   5.829 -0.1137 -0.1693  0.5569
  125OSM    O1313305   2.430   5.979   5.748 -0.2988  0.2855  0.2795
  125OSM    O1413306   2.270   6.155   5.791 -0.4925  0.0253 -0.0902
  125OSM    O1113307   2.378   6.019   5.978  0.5582  0.1869  0.1239
  125OSM    O1213308   2.210   5.916   5.829 -0.1296 -0.0052  0.6667
  125OSM    C1S13309   2.353   6.125   6.074  0.1284  0.3053  0.7446
  125OSM    H1S13310   2.246   6.155   6.073  0.2839  1.1608 -3.0459
  125OSM    H1T13311   2.413   6.215   6.047 -0.0231 -0.2031 -1.4336
  125OSM     NF13312   2.318   6.177   6.313  0.0132 -0.0418  0.0945
  125OSM    HNF13313   2.388   6.218   6.370 -0.2081 -0.7289  0.8861
  125OSM    C2S13314   2.365   6.076   6.215 -0.1677  0.4948  0.0366
  125OSM    H2S13315   2.296   5.989   6.219 -1.2656  1.3745  0.5469
  125OSM    C3S13316   2.513   6.026   6.247  0.4430 -0.7652 -0.2466
  125OSM    H3S13317   2.579   6.114   6.233 -1.0988  0.2581 -1.5377
  125OSM     O313318   2.549   5.922   6.161  0.0599  0.2042  0.2449
  125OSM    HO313319   2.491   5.929   6.085 -1.3318 -0.1647  1.2478
  125OSM    C4S13320   2.518   5.976   6.388  0.3368  0.2148  0.5896
  125OSM    H4S13321   2.460   5.885   6.409 -0.2724  0.5778  0.5119
  125OSM    C5S13322   2.595   6.025   6.483 -0.1392  0.6221  0.5852
  125OSM    H5S13323   2.655   6.111   6.449  0.4864 -1.2910 -3.8161
  125OSM    C6S13324   2.608   5.956   6.621 -0.1107  0.4412 -0.2270
  125OSM    H6S13325   2.700   5.894   6.627 -0.4801 -0.0704  0.1986
  125OSM    H6T13326   2.527   5.882   6.637  1.6520 -1.5424  0.0237
  125OSM    C7S13327   2.591   6.047   6.744  0.0132  0.2795  0.2420
  125OSM    H7S13328   2.486   6.081   6.738 -0.9775 -2.6851 -2.8785
  125OSM    H7T13329   2.656   6.137   6.737 -1.5087  1.3409 -1.1164
  125OSM    C8S13330   2.609   5.972   6.873  0.3550  0.4458 -0.2179
  125OSM    H8S13331   2.716   5.942   6.868  0.5826  0.7406  1.9545
  125OSM    H8T13332   2.555   5.875   6.861  2.2905 -0.6324 -0.7396
  125OSM    C9S13333   2.582   6.049   7.000 -0.5148  0.0844 -0.4084
  125OSM    H9S13334   2.472   6.064   7.012 -0.3569  1.6108 -0.6730
  125OSM    H9T13335   2.620   6.153   6.987  0.3999 -0.5263 -3.1825
  125OSM   C10S13336   2.629   5.973   7.128  0.2600  0.2197  0.6354
  125OSM   H10S13337   2.738   5.953   7.121  0.5648  2.1865 -1.6349
  125OSM   H10T13338   2.575   5.876   7.122  2.0574 -0.7987 -0.0442
  125OSM   C11S13339   2.600   6.050   7.257  0.6904  0.5661  0.1268
  125OSM   H11S13340   2.489   6.051   7.265  0.5715 -2.5245  0.3371
  125OSM   H11T13341   2.635   6.155   7.261 -1.3704  1.3579 -1.1682
  125OSM   C12S13342   2.644   5.976   7.394 -0.0182  0.3150 -0.0473
  125OSM   H12S13343   2.751   6.000   7.407  0.8166 -2.2455 -1.4861
  125OSM   H12T13344   2.628   5.866   7.386  0.5751  0.2731 -0.7188
  125OSM   C13S13345   2.559   6.030   7.515 -0.4340  0.2907 -0.4055
  125OSM   H13S13346   2.537   6.138   7.500 -3.0377 -0.3886 -2.1197
  125OSM   H13T13347   2.619   6.009   7.606 -0.6108 -1.3259 -0.6313
  125OSM   C14S13348   2.427   5.959   7.528  0.0639  0.1627 -0.3845
  125OSM   H14S13349   2.378   5.962   7.428  1.0171  0.7196 -0.8520
  125OSM   H14T13350   2.362   6.017   7.597 -1.4293  0.1578 -1.7176
  125OSM   C15S13351   2.424   5.824   7.599  0.3988  0.0039  1.2170
  125OSM   H15S13352   2.505   5.826   7.675  0.9566  1.8741  0.6183
  125OSM   H15T13353   2.437   5.740   7.528 -0.2825  0.7083  0.2250
  125OSM   C16S13354   2.295   5.786   7.676  0.0070 -0.9672  0.1762
  125OSM   H16S13355   2.208   5.795   7.607  0.6026 -1.9474 -0.7310
  125OSM   H16T13356   2.283   5.857   7.760 -0.8851 -0.8964 -0.0035
  125OSM   C17S13357   2.306   5.646   7.735 -0.1389 -0.2256  0.2572
  125OSM   H17S13358   2.401   5.642   7.793  0.2678 -0.8244 -0.4377
  125OSM   H17T13359   2.299   5.573   7.651 -2.1041  0.8796 -0.6208
  125OSM   C18S13360   2.199   5.609   7.837 -0.3190 -0.0466  0.1310
  125OSM   H18S13361   2.186   5.679   7.922  1.6255  1.5741 -0.8374
  125OSM   H18T13362   2.225   5.509   7.879  1.0691  0.6977  1.0952
  125OSM   H18U13363   2.095   5.596   7.799  0.3716 -1.7540 -1.3518
  125OSM    C1F13364   2.194   6.229   6.321  0.2470 -0.7964  0.4987
  125OSM     OF13365   2.101   6.181   6.255  0.1829 -0.5255 -0.2359
  125OSM    C2F13366   2.174   6.344   6.421 -0.0850  0.7511 -0.3665
  125OSM    H2F13367   2.080   6.396   6.395 -0.5300  0.0106 -0.2643
  125OSM    H2G13368   2.259   6.415   6.408 -1.0865  2.6856  2.7468
  125OSM    C3F13369   2.173   6.312   6.573 -0.8022  0.7347 -0.0792
  125OSM    H3F13370   2.172   6.403   6.636 -0.9219  1.6288 -1.3456
  125OSM    H3G13371   2.262   6.248   6.593 -1.6290 -1.0070 -1.6744
  125OSM    C4F13372   2.049   6.227   6.604 -0.1853  0.0927  0.1814
  125OSM    H4F13373   2.074   6.162   6.691  4.3028  0.4298 -0.6151
  125OSM    H4G13374   2.021   6.167   6.516 -0.2908  1.0523 -0.4511
  125OSM    C5F13375   1.922   6.317   6.638  0.9704 -0.1535  0.5015
  125OSM    H5F13376   1.828   6.260   6.623 -0.0098  1.5216  0.0685
  125OSM    H5G13377   1.915   6.402   6.567 -0.8654  0.3643  1.2448
  125OSM    C6F13378   1.920   6.376   6.779  0.6119  0.5624  0.6132
  125OSM    H6F13379   2.024   6.402   6.809  1.6680 -0.7708 -1.6319
  125OSM    H6G13380   1.876   6.304   6.850 -0.4050 -0.5301 -1.0604
  125OSM    C7F13381   1.821   6.507   6.786 -0.3644  0.1228  0.5675
  125OSM    H7F13382   1.741   6.498   6.710  1.4394 -0.5051 -1.3869
  125OSM    H7G13383   1.875   6.591   6.738  0.0646 -0.3886  0.1301
  125OSM    C8F13384   1.781   6.534   6.927 -0.7779 -0.2552  0.0850
  125OSM    H8F13385   1.724   6.446   6.964 -0.6348 -0.5563 -0.4034
  125OSM    H8G13386   1.727   6.631   6.933  3.1352  2.1082  0.9377
  125OSM    C9F13387   1.906   6.558   7.012  0.2229  0.8503  0.0839
  125OSM    H9F13388   1.996   6.584   6.953 -1.8808  2.3664 -2.6947
  125OSM   C10F13389   1.920   6.530   7.140  0.5446  0.3759 -0.4842
  125OSM   H10F13390   2.020   6.545   7.184  1.4254 -1.8486 -1.5577
  125OSM   C11F13391   1.820   6.483   7.244  0.2601  0.8460 -0.0315
  125OSM   H11F13392   1.733   6.424   7.207  1.0330 -0.3555  0.0048
  125OSM   H11G13393   1.778   6.575   7.288 -2.1806  0.3660 -1.1921
  125OSM   C12F13394   1.897   6.403   7.354  0.0809  0.2535  0.4554
  125OSM   H12F13395   1.989   6.463   7.370  0.5135 -0.5116  0.9464
  125OSM   H12G13396   1.926   6.306   7.306 -0.4535 -0.2908  1.2083
  125OSM   C13F13397   1.817   6.394   7.483 -0.5128 -0.3157  0.8096
  125OSM   H13F13398   1.726   6.334   7.463  0.8374 -1.4735 -2.5744
  125OSM   H13G13399   1.795   6.492   7.530  2.5264 -0.4758  2.9030
  125OSM   C14F13400   1.896   6.305   7.584 -0.1613 -0.4131 -0.1351
  125OSM   H14F13401   2.003   6.336   7.592 -0.4475  1.2322 -1.8552
  125OSM   H14G13402   1.903   6.198   7.554 -0.2850 -0.0991 -1.3679
  125OSM   C15F13403   1.826   6.305   7.720 -0.6167 -0.8971  0.2172
  125OSM   H15F13404   1.727   6.262   7.695 -0.2486 -0.6959 -1.7981
  125OSM   H15G13405   1.814   6.410   7.756  0.3193 -0.2099 -1.3536
  125OSM   C16F13406   1.903   6.219   7.818 -0.5762  0.6082  0.0041
  125OSM   H16F13407   1.859   6.236   7.919 -0.7893 -0.1022  0.0331
  125OSM   H16G13408   2.007   6.256   7.831 -0.1833  0.4614 -2.3578
  125OSM   C17F13409   1.918   6.069   7.788  0.6456  0.4687 -0.1106
  125OSM   H17F13410   1.978   6.060   7.694 -3.7389 -0.7130 -3.1058
  125OSM   H17G13411   1.816   6.034   7.763  1.2872 -0.4927 -1.4926
  125OSM   C18F13412   1.977   5.987   7.908  0.0971 -0.0413 -0.7054
  125OSM   H18F13413   2.070   6.034   7.945 -0.7741  1.5630 -0.4619
  125OSM   H18G13414   1.985   5.881   7.874  0.2812  0.6334 -2.9824
  125OSM   H18H13415   1.909   5.991   7.995  1.8755  3.4167  0.7072
  126OSM      N13416   5.367   5.976   5.753 -0.2438  0.2380 -0.5493
  126OSM    C1513417   5.513   5.938   5.753  0.2496  0.2052  0.0440
  126OSM   H15A13418   5.562   5.992   5.673 -0.5908 -0.1656 -0.7353
  126OSM   H15B13419   5.520   5.830   5.750 -1.0545 -0.0236  2.5880
  126OSM   H15C13420   5.557   5.957   5.850 -1.8283  0.3652  0.9996
  126OSM    C1413421   5.361   6.121   5.745  0.2806  0.7270 -0.1174
  126OSM   H14A13422   5.259   6.156   5.737  0.5101  2.4359  2.8971
  126OSM   H14B13423   5.412   6.166   5.661 -2.0403 -1.1328 -2.7164
  126OSM   H14C13424   5.410   6.155   5.835  2.5788 -0.2841 -0.8906
  126OSM    C1313425   5.295   5.920   5.629  0.2125  0.5469 -0.6685
  126OSM   H13A13426   5.315   5.968   5.534  1.5064 -0.8216 -1.1254
  126OSM   H13B13427   5.192   5.925   5.662  0.9212 -0.8511  2.0273
  126OSM   H13C13428   5.304   5.812   5.623  2.7800  0.6397  0.1813
  126OSM    C1213429   5.300   5.915   5.877  1.1435  0.0007  0.5540
  126OSM   H12A13430   5.268   5.813   5.863  0.0147  0.4057  0.0572
  126OSM   H12B13431   5.200   5.954   5.888  0.6599 -1.1754  0.4423
  126OSM    C1113432   5.364   5.942   6.011  0.3230 -0.3224  0.5235
  126OSM   H11A13433   5.465   5.898   6.023  1.1620  0.8777 -1.4495
  126OSM   H11B13434   5.301   5.884   6.081 -1.5835  1.2840  0.2327
  126OSM      P13435   5.244   6.139   6.147 -0.1203  0.1174 -0.2832
  126OSM    O1313436   5.257   6.288   6.174 -0.3885 -0.0435  0.4859
  126OSM    O1413437   5.106   6.089   6.114 -0.3569 -0.0685 -0.1690
  126OSM    O1113438   5.295   6.069   6.281 -0.4449  0.1464  0.1188
  126OSM    O1213439   5.354   6.084   6.040 -0.4064 -0.1939 -0.8602
  126OSM    C1S13440   5.210   6.066   6.399  0.2322  0.2734 -0.3114
  126OSM    H1S13441   5.123   6.003   6.371  1.8519 -1.6606 -1.3373
  126OSM    H1T13442   5.181   6.171   6.420  1.4560  0.4912  0.4177
  126OSM     NF13443   5.179   6.007   6.633 -0.7478 -0.4891 -0.0037
  126OSM    HNF13444   5.188   6.063   6.714 -2.3213 -0.7299  0.3875
  126OSM    C2S13445   5.277   6.021   6.533 -1.0986 -0.4362 -0.9354
  126OSM    H2S13446   5.323   5.922   6.512 -0.2426  0.0881 -1.5574
  126OSM    C3S13447   5.405   6.116   6.565 -0.5866  0.1894  0.2092
  126OSM    H3S13448   5.377   6.223   6.575 -0.5386  0.0344  2.4464
  126OSM     O313449   5.501   6.119   6.461  0.0441 -0.0480 -0.6964
  126OSM    HO313450   5.451   6.112   6.379 -0.6962  1.2471 -0.3875
  126OSM    C4S13451   5.464   6.083   6.697 -0.4308  0.8222  0.2113
  126OSM    H4S13452   5.431   6.158   6.771 -1.3465  2.1949 -1.5009
  126OSM    C5S13453   5.548   5.989   6.731 -0.2878  0.1998  0.6963
  126OSM    H5S13454   5.599   5.943   6.645 -1.8704  0.3351 -0.3444
  126OSM    C6S13455   5.614   5.979   6.866 -0.0569  0.0736  0.3302
  126OSM    H6S13456   5.715   6.025   6.868  0.2926 -0.6650 -0.1482
  126OSM    H6T13457   5.619   5.873   6.897  0.1659 -0.0559 -0.1343
  126OSM    C7S13458   5.532   6.043   6.987  0.6543 -0.0774  0.3388
  126OSM    H7S13459   5.443   5.978   7.002  0.7829 -1.4313 -3.5851
  126OSM    H7T13460   5.500   6.149   6.986  0.8207  0.0123  1.8974
  126OSM    C8S13461   5.620   6.033   7.117  0.5269  0.4606 -0.4239
  126OSM    H8S13462   5.711   6.097   7.112 -1.4370  3.7031  1.4930
  126OSM    H8T13463   5.652   5.927   7.126 -0.4250  0.1744 -0.2935
  126OSM    C9S13464   5.554   6.091   7.243  0.2466 -0.0957 -0.3231
  126OSM    H9S13465   5.468   6.023   7.263  0.5439 -0.8273 -1.4207
  126OSM    H9T13466   5.524   6.193   7.213 -0.4488 -0.0494  0.5040
  126OSM   C10S13467   5.645   6.089   7.367 -0.4765  0.0705 -0.0991
  126OSM   H10S13468   5.716   6.172   7.352 -1.7381  0.8057 -2.4764
  126OSM   H10T13469   5.701   5.993   7.369  0.1217  0.3488 -1.9341
  126OSM   C11S13470   5.565   6.102   7.499  0.2863 -0.2918  0.2651
  126OSM   H11S13471   5.481   6.029   7.501  0.6487 -0.7068  1.7533
  126OSM   H11T13472   5.518   6.202   7.511 -2.0292 -1.1688 -0.9503
  126OSM   C12S13473   5.642   6.073   7.622 -0.8508 -0.7201 -0.2945
  126OSM   H12S13474   5.721   6.149   7.640 -1.3256 -0.0227 -1.0879
  126OSM   H12T13475   5.697   5.976   7.617 -0.3138 -0.3675 -1.8651
  126OSM   C13S13476   5.559   6.043   7.749 -0.1808 -0.5874  0.3069
  126OSM   H13S13477   5.500   5.951   7.731 -0.4905 -0.6246  1.4151
  126OSM   H13T13478   5.491   6.129   7.771 -0.1594 -0.7580  1.0779
  126OSM   C14S13479   5.640   6.022   7.873 -0.6918 -0.3960 -0.2221
  126OSM   H14S13480   5.716   6.103   7.881 -1.7066  0.5893 -0.3182
  126OSM   H14T13481   5.698   5.927   7.868  1.0606  0.6059  0.0632
  126OSM   C15S13482   5.564   6.013   8.011 -0.6001  0.1012  0.0371
  126OSM   H15S13483   5.487   5.934   8.004 -0.2346 -0.3702  1.1119
  126OSM   H15T13484   5.516   6.113   8.022  0.2640  0.6588 -1.1244
  126OSM   C16S13485   5.661   5.988   8.129 -0.6021  0.5665 -0.5796
  126OSM   H16S13486   5.731   6.073   8.132  1.2248 -0.8879 -0.4724
  126OSM   H16T13487   5.728   5.909   8.089  0.5481  1.5127 -0.5743
  126OSM   C17S13488   5.589   5.961   8.262  0.0731 -0.3018  0.1267
  126OSM   H17S13489   5.664   5.932   8.338  0.1850  0.9591  0.5200
  126OSM   H17T13490   5.513   5.881   8.256  2.2657 -2.5121  0.3939
  126OSM   C18S13491   5.530   6.093   8.318  0.2058  0.5775  1.0869
  126OSM   H18S13492   5.466   6.139   8.239  3.3689  3.0639 -0.2715
  126OSM   H18T13493   5.618   6.158   8.337  1.7742 -0.9647 -0.5103
  126OSM   H18U13494   5.475   6.067   8.411  1.1100 -1.4150  1.1190
  126OSM    C1F13495   5.080   5.921   6.632  0.6603  0.2132 -0.4080
  126OSM     OF13496   5.083   5.826   6.551 -0.2577  0.1541 -0.7973
  126OSM    C2F13497   4.972   5.944   6.735  0.1850  0.3297  0.3776
  126OSM    H2F13498   4.879   5.960   6.677  0.5974  2.4013  0.2158
  126OSM    H2G13499   4.990   6.033   6.798  1.6125  0.9984 -0.8953
  126OSM    C3F13500   4.967   5.817   6.823  0.9906  0.5767 -0.8161
  126OSM    H3F13501   4.992   5.723   6.770  3.0424  0.0011  1.0220
  126OSM    H3G13502   4.870   5.802   6.876  1.3079 -1.2892 -0.7142
  126OSM    C4F13503   5.064   5.826   6.944 -0.0686  0.3539  0.0168
  126OSM    H4F13504   5.159   5.859   6.897  0.2689 -2.1714 -1.2328
  126OSM    H4G13505   5.076   5.723   6.983 -3.3347 -0.0506  0.2166
  126OSM    C5F13506   5.014   5.911   7.057  0.9710  0.4149  0.5619
  126OSM    H5F13507   4.915   5.881   7.099  0.3810  1.0671 -0.3181
  126OSM    H5G13508   4.983   6.013   7.025 -2.5491 -1.0150 -1.0911
  126OSM    C6F13509   5.102   5.902   7.180  0.0311  0.1906 -0.3532
  126OSM    H6F13510   5.200   5.948   7.157  0.2829 -0.2317 -0.1545
  126OSM    H6G13511   5.135   5.798   7.202  0.9927  0.1710 -1.7556
  126OSM    C7F13512   5.050   5.977   7.311  0.2101 -0.3071 -0.3384
  126OSM    H7F13513   4.981   5.905   7.360  1.1936 -1.1250 -0.1360
  126OSM    H7G13514   4.993   6.067   7.277  2.2041  1.6722  1.2233
  126OSM    C8F13515   5.164   6.015   7.396 -0.6663  0.3704 -0.6367
  126OSM    H8F13516   5.240   6.077   7.343 -0.2911  2.2685  1.9244
  126OSM    H8G13517   5.223   5.924   7.421 -0.9912  0.6233  1.1876
  126OSM    C9F13518   5.113   6.085   7.515  0.1821 -0.1770  0.0872
  126OSM    H9F13519   5.080   6.189   7.503 -0.5707 -0.3249  0.7851
  126OSM   C10F13520   5.071   6.019   7.624 -0.1145 -0.1698  0.2589
  126OSM   H10F13521   5.030   6.078   7.707  0.1447  1.0283 -0.4308
  126OSM   C11F13522   5.082   5.875   7.653  0.1668  0.1007 -0.6793
  126OSM   H11F13523   5.155   5.824   7.586  0.8521 -1.9986  1.5162
  126OSM   H11G13524   4.980   5.832   7.641 -0.2105  1.2416 -1.7733
  126OSM   C12F13525   5.152   5.838   7.789 -0.1393 -0.3149  0.5961
  126OSM   H12F13526   5.096   5.892   7.868  1.0831  1.9681 -0.0118
  126OSM   H12G13527   5.257   5.874   7.792  0.0763 -0.3548 -2.8044
  126OSM   C13F13528   5.151   5.686   7.805 -0.3106  0.9825 -0.9682
  126OSM   H13F13529   5.199   5.655   7.710 -2.7745 -2.1046 -1.3844
  126OSM   H13G13530   5.049   5.643   7.801 -0.6319  1.7102 -0.7390
  126OSM   C14F13531   5.240   5.633   7.920  0.4565  0.0223  0.1175
  126OSM   H14F13532   5.332   5.691   7.943  2.4929 -2.6613 -0.7638
  126OSM   H14G13533   5.283   5.533   7.896  1.1943  0.5923 -1.0561
  126OSM   C15F13534   5.158   5.601   8.053 -0.3556  0.0188 -1.0322
  126OSM   H15F13535   5.077   5.526   8.046  0.1288 -0.6051 -0.1746
  126OSM   H15G13536   5.116   5.699   8.084 -3.2689 -2.0807  2.5032
  126OSM   C16F13537   5.260   5.555   8.159  0.2848  0.9441 -0.3896
  126OSM   H16F13538   5.352   5.617   8.151  0.5841  0.5623  0.0139
  126OSM   H16G13539   5.298   5.454   8.129  1.4228  0.4770  2.3275
  126OSM   C17F13540   5.224   5.558   8.308 -0.2732  0.1872 -0.5344
  126OSM   H17F13541   5.320   5.563   8.363  1.0976 -0.3315 -2.7335
  126OSM   H17G13542   5.173   5.467   8.346  0.8300  0.2147  1.0764
  126OSM   C18F13543   5.140   5.679   8.345  0.4936  0.0153  0.3821
  126OSM   H18F13544   5.197   5.774   8.328  0.6272 -0.1302  0.0058
  126OSM   H18G13545   5.124   5.671   8.454 -2.8583  0.6893  0.0452
  126OSM   H18H13546   5.040   5.677   8.296  1.1353  1.3054 -1.0963
  127OSM      N13547   0.163   2.413   5.934  0.2557 -0.0826 -0.5263
  127OSM    C1513548   0.301   2.366   5.942 -0.0214 -0.0917 -0.1194
  127OSM   H15A13549   0.364   2.447   5.977 -0.9231  0.9380 -0.7975
  127OSM   H15B13550   0.334   2.333   5.845 -0.3905  0.9309 -0.6133
  127OSM   H15C13551   0.315   2.284   6.010 -1.1454  0.6278  1.0299
  127OSM    C1413552   0.081   2.305   5.877  0.4639 -0.1653  0.5822
  127OSM   H14A13553   0.104   2.214   5.930 -1.4577 -0.8068  0.3822
  127OSM   H14B13554   0.098   2.285   5.772  0.5269 -1.2682  0.7913
  127OSM   H14C13555  -0.024   2.323   5.889  0.7113  0.5329  1.8881
  127OSM    C1313556   0.103   2.441   6.076  0.0748  0.4685  0.7446
  127OSM   H13A13557   0.132   2.353   6.133 -1.2061 -0.7226 -0.3652
  127OSM   H13B13558  -0.005   2.434   6.072  0.1573 -0.7300  0.0511
  127OSM   H13C13559   0.137   2.532   6.122 -0.1395  0.9686 -0.0735
  127OSM    C1213560   0.155   2.540   5.844  0.1341  0.5323 -0.0331
  127OSM   H12A13561   0.050   2.564   5.839 -0.5374 -2.2197 -0.6344
  127OSM   H12B13562   0.202   2.509   5.751  0.0599  0.9321 -0.2041
  127OSM    C1113563   0.227   2.664   5.893 -0.1860  0.3636  0.9845
  127OSM   H11A13564   0.190   2.672   5.998 -1.2286 -2.0352  0.8777
  127OSM   H11B13565   0.189   2.751   5.837  1.7067  0.3903 -0.3528
  127OSM      P13566   0.452   2.783   5.925  0.0888  0.5628  0.2267
  127OSM    O1313567   0.594   2.750   5.944 -0.2725 -0.5283 -0.7333
  127OSM    O1413568   0.407   2.889   5.832  0.9580 -0.2872  0.2177
  127OSM    O1113569   0.400   2.826   6.063 -0.2240 -0.4914 -0.4940
  127OSM    O1213570   0.370   2.654   5.883  0.1024 -0.0545 -0.1031
  127OSM    C1S13571   0.416   2.741   6.175 -0.1111 -0.2383 -0.4709
  127OSM    H1S13572   0.524   2.732   6.200  0.1055  1.8550 -0.4859
  127OSM    H1T13573   0.367   2.642   6.160  1.5864 -1.0416 -0.9505
  127OSM     NF13574   0.423   2.748   6.431  0.1316  0.1989  0.4430
  127OSM    HNF13575   0.387   2.662   6.467 -0.1808  0.4249  0.6816
  127OSM    C2S13576   0.356   2.806   6.307 -0.4063 -0.2234  0.7213
  127OSM    H2S13577   0.383   2.913   6.297 -1.1237 -0.1821 -1.0037
  127OSM    C3S13578   0.206   2.787   6.301 -0.5337 -0.5314 -0.2711
  127OSM    H3S13579   0.188   2.678   6.292 -0.4366 -0.6200  0.5131
  127OSM     O313580   0.139   2.845   6.189  0.2066  0.2069  0.0711
  127OSM    HO313581   0.215   2.862   6.134 -1.5217  1.3805 -2.1068
  127OSM    C4S13582   0.127   2.818   6.423  0.1115  0.3281  0.3831
  127OSM    H4S13583   0.110   2.726   6.481  1.0163 -0.6608 -0.8482
  127OSM    C5S13584   0.075   2.937   6.468 -0.2996  0.1216  0.2293
  127OSM    H5S13585   0.093   3.031   6.413 -2.6182 -0.4135 -1.6052
  127OSM    C6S13586  -0.009   2.932   6.593  0.0136 -0.1165 -0.4332
  127OSM    H6S13587  -0.052   2.834   6.620 -1.4453  0.7723  0.6063
  127OSM    H6T13588  -0.097   2.998   6.574  0.3417  0.8492  1.1803
  127OSM    C7S13589   0.085   2.976   6.705  0.0132 -0.8089  0.2042
  127OSM    H7S13590   0.131   3.074   6.677 -0.3985 -0.7413 -0.2377
  127OSM    H7T13591   0.163   2.899   6.722  1.9425  0.8655 -0.6392
  127OSM    C8S13592   0.005   2.981   6.834 -0.2071 -0.2263  0.0813
  127OSM    H8S13593  -0.046   2.885   6.856 -1.4376  0.5796  0.8518
  127OSM    H8T13594  -0.075   3.055   6.811 -0.4035 -0.3899  0.2313
  127OSM    C9S13595   0.096   3.032   6.956  0.3997 -0.1561  1.1252
  127OSM    H9S13596   0.118   3.139   6.940 -1.6990  0.4324  1.8513
  127OSM    H9T13597   0.191   2.974   6.963  0.9482  0.7066  0.9726
  127OSM   C10S13598   0.013   3.013   7.087 -0.1795 -0.2293 -0.5167
  127OSM   H10S13599   0.010   2.906   7.116 -2.9766 -0.2509 -0.5829
  127OSM   H10T13600  -0.084   3.062   7.063  0.5546  1.0065 -1.0963
  127OSM   C11S13601   0.083   3.084   7.207  0.2188 -0.0218  0.1741
  127OSM   H11S13602   0.096   3.191   7.180  1.0537 -0.6221 -2.0672
  127OSM   H11T13603   0.184   3.036   7.199  0.3306  0.4878 -2.9461
  127OSM   C12S13604   0.002   3.062   7.338 -0.3254 -0.4678 -0.6423
  127OSM   H12S13605  -0.047   2.963   7.349 -1.3692  0.0386 -0.5600
  127OSM   H12T13606  -0.081   3.135   7.327 -0.3720 -0.6603 -1.6457
  127OSM   C13S13607   0.088   3.101   7.453 -0.6397  0.0101  0.0965
  127OSM   H13S13608   0.136   3.201   7.438 -0.9615  0.0667 -0.5630
  127OSM   H13T13609   0.171   3.028   7.468  0.7403  1.3901 -0.5421
  127OSM   C14S13610   0.012   3.119   7.585 -0.1293 -0.1212  0.4667
  127OSM   H14S13611  -0.012   3.024   7.638 -0.9348  0.3384  0.9498
  127OSM   H14T13612  -0.086   3.170   7.574  0.5787  1.8514  2.5247
  127OSM   C15S13613   0.087   3.215   7.676 -0.0453  0.4510  0.3714
  127OSM   H15S13614   0.106   3.306   7.615  0.9030  0.2500  0.3546
  127OSM   H15T13615   0.190   3.180   7.699  0.7717  1.0389 -2.0734
  127OSM   C16S13616   0.010   3.265   7.802  0.2242 -0.1053  0.6359
  127OSM   H16S13617  -0.068   3.336   7.767  1.5887  0.8913 -0.5384
  127OSM   H16T13618   0.080   3.319   7.870 -1.5475  2.1988  0.7619
  127OSM   C17S13619  -0.053   3.153   7.884  0.1273 -0.2852  0.2529
  127OSM   H17S13620  -0.139   3.111   7.827  0.1050 -0.1427  0.1800
  127OSM   H17T13621  -0.110   3.188   7.973 -0.4773 -1.7994  0.4973
  127OSM   C18S13622   0.033   3.026   7.930 -0.0379 -0.6500 -0.3891
  127OSM   H18S13623   0.081   2.975   7.844 -0.7181 -1.3257 -0.3799
  127OSM   H18T13624  -0.035   2.946   7.966  1.0320 -0.8604  1.2723
  127OSM   H18U13625   0.098   3.059   8.013  1.3572 -0.3837 -1.5578
  127OSM    C1F13626   0.545   2.789   6.459 -0.3092  0.6511 -0.1634
  127OSM     OF13627   0.608   2.860   6.387 -0.0418  0.1567 -0.0279
  127OSM    C2F13628   0.604   2.740   6.585  0.0741  0.3057 -1.1889
  127OSM    H2F13629   0.610   2.630   6.598  1.9179  0.5945  1.0557
  127OSM    H2G13630   0.552   2.792   6.668  1.0748  1.2192 -1.1075
  127OSM    C3F13631   0.752   2.788   6.602  0.0524  0.8786  0.1374
  127OSM    H3F13632   0.750   2.896   6.577  0.5778  0.3576 -2.4525
  127OSM    H3G13633   0.822   2.740   6.532  1.8150 -1.0597  3.0263
  127OSM    C4F13634   0.814   2.769   6.745  0.3038 -0.8850 -0.4105
  127OSM    H4F13635   0.837   2.663   6.771 -0.5048 -1.1927 -0.9019
  127OSM    H4G13636   0.739   2.818   6.810  0.2934 -0.2761 -0.8755
  127OSM    C5F13637   0.940   2.850   6.760 -0.1775  0.0593 -0.7732
  127OSM    H5F13638   0.947   2.922   6.675  0.0089  1.6289  0.5133
  127OSM    H5G13639   1.029   2.785   6.759 -1.5233 -1.9825 -3.6080
  127OSM    C6F13640   0.943   2.937   6.899  0.3712 -0.1913  0.4224
  127OSM    H6F13641   0.843   2.984   6.888 -0.1937 -1.5158 -0.3404
  127OSM    H6G13642   1.029   3.008   6.898 -0.7409  1.2560  1.9452
  127OSM    C7F13643   0.959   2.853   7.025 -0.6809 -0.3324 -0.0710
  127OSM    H7F13644   1.039   2.777   7.012 -0.9327 -0.5694 -0.2604
  127OSM    H7G13645   0.863   2.799   7.040 -1.8101  1.9471  1.5198
  127OSM    C8F13646   0.999   2.937   7.148 -0.3591  0.0254 -0.7092
  127OSM    H8F13647   1.081   3.007   7.120 -0.5251 -0.5778 -2.8892
  127OSM    H8G13648   1.034   2.873   7.232 -3.1851  4.0367  4.1165
  127OSM    C9F13649   0.883   3.017   7.208 -0.1446  0.4125 -0.1238
  127OSM    H9F13650   0.842   3.098   7.146  0.1529 -0.5820 -1.6854
  127OSM   C10F13651   0.845   3.009   7.337  0.0601 -0.2841  0.6587
  127OSM   H10F13652   0.759   3.070   7.370 -1.9349 -1.8554 -1.2796
  127OSM   C11F13653   0.900   2.926   7.444 -0.2970 -0.7089  0.0512
  127OSM   H11F13654   0.984   2.858   7.421  2.1673  1.8632  0.8586
  127OSM   H11G13655   0.815   2.860   7.472 -2.3614  1.8392  0.2450
  127OSM   C12F13656   0.949   3.025   7.555  0.3514 -0.4372  0.2298
  127OSM   H12F13657   0.871   3.094   7.593  0.5168  0.9315 -1.7489
  127OSM   H12G13658   1.041   3.081   7.528  1.2223 -1.2662  1.3696
  127OSM   C13F13659   1.012   2.936   7.668 -0.0669  0.4096  0.3012
  127OSM   H13F13660   1.091   2.866   7.633 -0.7872 -1.3791  2.1130
  127OSM   H13G13661   0.928   2.871   7.698  0.1331 -0.8705 -1.7881
  127OSM   C14F13662   1.065   3.020   7.781 -0.4639 -1.0053  0.8310
  127OSM   H14F13663   0.981   3.090   7.802  1.3636  0.5643  3.6014
  127OSM   H14G13664   1.163   3.065   7.756 -1.1698 -0.5422 -1.3132
  127OSM   C15F13665   1.087   2.951   7.913  0.3674  0.1869 -0.6423
  127OSM   H15F13666   0.986   2.909   7.932 -0.1359  1.2279 -0.9334
  127OSM   H15G13667   1.106   3.036   7.982  0.8873  0.6562 -1.3545
  127OSM   C16F13668   1.194   2.835   7.931  0.7141  0.0073  0.0033
  127OSM   H16F13669   1.165   2.747   7.869  2.3370 -1.6184  1.4112
  127OSM   H16G13670   1.200   2.810   8.039 -0.0418  0.4580  0.1517
  127OSM   C17F13671   1.341   2.879   7.886  0.1441  0.4021 -0.1085
  127OSM   H17F13672   1.358   2.988   7.897 -1.9166  1.0856 -2.5985
  127OSM   H17G13673   1.346   2.868   7.775  1.8216  2.0433 -0.2593
  127OSM   C18F13674   1.456   2.800   7.948 -1.1634 -0.8731  0.0225
  127OSM   H18F13675   1.460   2.813   8.058  0.5719  1.4606 -0.2393
  127OSM   H18G13676   1.549   2.841   7.903 -1.3381 -1.2057 -0.6440
  127OSM   H18H13677   1.451   2.691   7.928  0.9548 -1.1893  0.9313
  128OSM      N13678   0.798   0.230   6.168 -0.1346 -0.5869  0.3340
  128OSM    C1513679   0.896   0.129   6.210  0.2168 -0.0732  0.6018
  128OSM   H15A13680   0.974   0.194   6.247  0.5457  0.4663 -0.9315
  128OSM   H15B13681   0.937   0.074   6.126 -0.4701  0.3188  0.0035
  128OSM   H15C13682   0.857   0.060   6.283  0.0390 -0.1423  0.4443
  128OSM    C1413683   0.689   0.156   6.093 -0.0482  0.8212  0.5894
  128OSM   H14A13684   0.637   0.087   6.158 -1.8641  0.8319 -0.7855
  128OSM   H14B13685   0.737   0.101   6.013  2.5585  2.3911  0.9642
  128OSM   H14C13686   0.616   0.218   6.044 -0.3685  0.1128  0.1522
  128OSM    C1313687   0.730   0.290   6.284 -0.2626 -0.2749 -0.2888
  128OSM   H13A13688   0.799   0.349   6.342  1.2872 -1.9799 -0.3355
  128OSM   H13B13689   0.699   0.205   6.343  2.1058 -0.5121  0.7005
  128OSM   H13C13690   0.645   0.351   6.255 -1.3276 -0.4276  2.2510
  128OSM    C1213691   0.863   0.341   6.091  0.3140  0.4971 -0.4897
  128OSM   H12A13692   0.792   0.416   6.061 -2.2622 -1.9364 -0.9292
  128OSM   H12B13693   0.912   0.295   6.007 -0.2969  4.6326 -3.3837
  128OSM    C1113694   0.970   0.424   6.175 -0.2268  0.2122 -0.4687
  128OSM   H11A13695   0.918   0.463   6.265 -1.5069  0.8690 -1.4691
  128OSM   H11B13696   0.995   0.510   6.111  1.2279  0.6007  0.5554
  128OSM      P13697   1.218   0.374   6.128 -0.8045 -0.4348  0.2240
  128OSM    O1313698   1.293   0.252   6.150 -0.7573  0.2163 -0.4413
  128OSM    O1413699   1.187   0.421   5.990 -0.4407 -0.4366 -0.4488
  128OSM    O1113700   1.276   0.505   6.205  0.7964 -0.0929  0.4560
  128OSM    O1213701   1.088   0.358   6.224 -0.3174  1.0338  0.1401
  128OSM    C1S13702   1.370   0.487   6.313 -0.1269  0.1097  0.0276
  128OSM    H1S13703   1.461   0.430   6.284  0.0253 -0.9973  2.4563
  128OSM    H1T13704   1.333   0.425   6.397  0.4235  0.0927  0.2649
  128OSM     NF13705   1.515   0.626   6.471 -0.8414 -0.2055  0.5915
  128OSM    HNF13706   1.504   0.638   6.570 -0.0516  3.0335  0.3875
  128OSM    C2S13707   1.397   0.627   6.385 -0.6923  0.0600 -0.2433
  128OSM    H2S13708   1.422   0.694   6.300 -2.0777 -1.9487 -2.3448
  128OSM    C3S13709   1.273   0.678   6.459 -0.1079 -0.5615  0.0185
  128OSM    H3S13710   1.271   0.622   6.555  1.5273 -0.1245  0.3374
  128OSM     O313711   1.152   0.657   6.385  0.3622  0.0394  0.0262
  128OSM    HO313712   1.178   0.574   6.344  1.1058  0.0411  0.4651
  128OSM    C4S13713   1.281   0.819   6.495 -0.7013  0.1437 -0.3485
  128OSM    H4S13714   1.316   0.826   6.599  0.1758  3.6098 -0.7581
  128OSM    C5S13715   1.268   0.933   6.418 -0.3836 -0.0128 -0.5431
  128OSM    H5S13716   1.241   0.925   6.311 -0.1098  0.2684 -0.6358
  128OSM    C6S13717   1.312   1.075   6.462  0.7147 -0.2597  0.5926
  128OSM    H6S13718   1.226   1.136   6.497 -0.1472 -2.4271  2.5512
  128OSM    H6T13719   1.351   1.130   6.374  0.5746  0.8530  1.2044
  128OSM    C7S13720   1.428   1.091   6.553  0.4128  0.5019 -0.6477
  128OSM    H7S13721   1.400   1.053   6.654  1.1943  1.4670 -0.0477
  128OSM    H7T13722   1.425   1.201   6.570 -2.1203  0.2142  1.5337
  128OSM    C8S13723   1.571   1.046   6.501  0.3017  0.5245 -0.6283
  128OSM    H8S13724   1.591   1.101   6.407  1.8802 -1.9630 -1.8685
  128OSM    H8T13725   1.547   0.944   6.461  2.0110 -1.1892  2.3542
  128OSM    C9S13726   1.679   1.030   6.613  0.1422  0.2783  0.3017
  128OSM    H9S13727   1.774   1.009   6.560 -0.2532 -2.0286  0.3751
  128OSM    H9T13728   1.665   0.936   6.670  0.1966 -0.2436 -0.5289
  128OSM   C10S13729   1.690   1.150   6.695  0.0816  0.1160  0.1380
  128OSM   H10S13730   1.607   1.149   6.769  1.5791  0.3674  1.8738
  128OSM   H10T13731   1.674   1.237   6.627 -1.8035  0.2869  0.7268
  128OSM   C11S13732   1.811   1.166   6.793 -0.0494 -0.3887  0.3370
  128OSM   H11S13733   1.795   1.264   6.841  1.0805  0.4517 -0.9386
  128OSM   H11T13734   1.908   1.176   6.739  1.3497 -0.7890  2.6562
  128OSM   C12S13735   1.817   1.058   6.892 -0.2472  0.2769 -0.3535
  128OSM   H12S13736   1.832   0.962   6.839  0.5337  0.2510 -0.0945
  128OSM   H12T13737   1.719   1.058   6.945  0.4867  0.5929  1.0676
  128OSM   C13S13738   1.935   1.088   6.991  0.0641  0.0089 -0.9036
  128OSM   H13S13739   1.924   1.183   7.047  0.0617 -0.4650 -0.0772
  128OSM   H13T13740   2.029   1.104   6.934  2.0996  1.4292  2.5002
  128OSM   C14S13741   1.947   0.989   7.109  0.0238  0.0843 -0.3730
  128OSM   H14S13742   1.968   0.887   7.070  0.7627  0.6522 -1.5216
  128OSM   H14T13743   1.847   0.992   7.157 -0.7197  1.6185 -1.9227
  128OSM   C15S13744   2.060   1.026   7.213 -0.6526 -0.1949  0.5407
  128OSM   H15S13745   2.061   1.129   7.255 -2.3291  0.0264  0.0789
  128OSM   H15T13746   2.148   1.022   7.145 -0.8538 -0.6124  0.3026
  128OSM   C16S13747   2.079   0.935   7.342  0.8863 -0.8690  0.0699
  128OSM   H16S13748   2.099   0.827   7.325  0.1921 -0.7748 -1.5042
  128OSM   H16T13749   1.976   0.947   7.381 -0.6243  2.8496 -4.1630
  128OSM   C17S13750   2.186   0.996   7.435  1.3238  0.6482  0.0668
  128OSM   H17S13751   2.174   1.104   7.457 -0.9795  0.6267 -0.8000
  128OSM   H17T13752   2.276   0.973   7.374 -0.4937  1.8197 -3.2909
  128OSM   C18S13753   2.177   0.922   7.568 -0.3860 -0.1749  0.6340
  128OSM   H18S13754   2.078   0.922   7.618 -1.3421  1.0946 -1.1313
  128OSM   H18T13755   2.262   0.941   7.636  0.0652  0.5374 -0.1112
  128OSM   H18U13756   2.173   0.815   7.539 -2.6710 -0.3243  1.2806
  128OSM    C1F13757   1.645   0.600   6.432  0.0751  1.0338 -0.0979
  128OSM     OF13758   1.668   0.603   6.316 -0.1415 -0.1151  0.6457
  128OSM    C2F13759   1.743   0.563   6.534 -0.0911 -0.1613  0.3477
  128OSM    H2F13760   1.838   0.549   6.478  0.3115  1.6590  0.5287
  128OSM    H2G13761   1.706   0.468   6.580 -1.5061 -0.1954 -0.7904
  128OSM    C3F13762   1.758   0.664   6.643 -0.1525 -0.0685  0.1210
  128OSM    H3F13763   1.666   0.688   6.701  0.7745 -2.7611  2.9424
  128OSM    H3G13764   1.788   0.762   6.600  0.0797  0.3406  1.1851
  128OSM    C4F13765   1.861   0.617   6.746  0.4723  0.3622 -0.2222
  128OSM    H4F13766   1.874   0.684   6.834 -1.1234 -0.6476  0.8376
  128OSM    H4G13767   1.961   0.595   6.704  1.2955  1.4672  1.0794
  128OSM    C5F13768   1.828   0.481   6.822  0.0523 -0.3018 -0.1488
  128OSM    H5F13769   1.851   0.398   6.750 -0.0939 -3.2265  2.9201
  128OSM    H5G13770   1.722   0.497   6.852  0.2473  2.7029 -0.8144
  128OSM    C6F13771   1.924   0.469   6.943 -0.1021 -0.3900 -0.2258
  128OSM    H6F13772   1.913   0.560   7.005 -1.1667  0.6150 -1.7996
  128OSM    H6G13773   2.030   0.476   6.912 -0.0903  1.8626  0.1509
  128OSM    C7F13774   1.894   0.349   7.028  0.3803 -0.1467 -0.1349
  128OSM    H7F13775   1.906   0.261   6.962  0.3302 -1.9739  2.1890
  128OSM    H7G13776   1.789   0.355   7.064  0.6802 -0.2526  0.7941
  128OSM    C8F13777   1.995   0.331   7.138  0.8115 -1.2095  0.5165
  128OSM    H8F13778   1.955   0.247   7.198 -0.9033 -1.6662 -1.1586
  128OSM    H8G13779   1.997   0.424   7.199  1.7190 -1.6233  1.1390
  128OSM    C9F13780   2.137   0.291   7.091 -0.0052  0.3316 -0.0263
  128OSM    H9F13781   2.171   0.342   7.000 -1.7595 -0.8741 -1.4343
  128OSM   C10F13782   2.215   0.186   7.121 -1.4745  0.1553 -0.0237
  128OSM   H10F13783   2.315   0.181   7.076 -1.1554  1.1977  0.5431
  128OSM   C11F13784   2.190   0.076   7.216 -0.5330 -0.1122 -0.5917
  128OSM   H11F13785   2.259  -0.010   7.203  0.7590  0.6224  0.9834
  128OSM   H11G13786   2.087   0.042   7.192 -1.1985  0.5133  1.1852
  128OSM   C12F13787   2.189   0.116   7.369  0.2633  1.2338  1.1486
  128OSM   H12F13788   2.147   0.217   7.383  0.3986  2.4330 -4.4666
  128OSM   H12G13789   2.298   0.121   7.391  0.1946  0.4606  1.7160
  128OSM   C13F13790   2.137   0.005   7.459  0.1584 -0.3396  0.3642
  128OSM   H13F13791   2.032  -0.015   7.430 -0.2366  0.9156  0.8638
  128OSM   H13G13792   2.144   0.041   7.564  1.5390  2.2195 -0.5284
  128OSM   C14F13793   2.224  -0.126   7.467  0.0056  0.5346  0.1976
  128OSM   H14F13794   2.332  -0.101   7.481 -0.1204  1.2228 -0.0138
  128OSM   H14G13795   2.196  -0.180   7.375 -0.2546  0.5321  0.2764
  128OSM   C15F13796   2.182  -0.218   7.583  0.5970  0.5817  0.0983
  128OSM   H15F13797   2.222  -0.317   7.552  0.0966  0.3678  0.1230
  128OSM   H15G13798   2.071  -0.223   7.579  0.6663 -2.2945 -0.1943
  128OSM   C16F13799   2.236  -0.179   7.718  0.2710 -0.2687  0.2575
  128OSM   H16F13800   2.182  -0.088   7.752 -0.8962  0.5460 -3.3908
  128OSM   H16G13801   2.346  -0.166   7.705  0.3640  0.7129  1.8109
  128OSM   C17F13802   2.221  -0.302   7.802 -0.2694 -0.1638 -0.8233
  128OSM   H17F13803   2.263  -0.397   7.763  1.1052 -0.2821  0.8117
  128OSM   H17G13804   2.111  -0.312   7.817 -0.0497 -2.2866 -0.2366
  128OSM   C18F13805   2.275  -0.273   7.943 -0.4432  0.1380 -0.5076
  128OSM   H18F13806   2.222  -0.185   7.986 -2.9122 -1.6017  0.2510
  128OSM   H18G13807   2.384  -0.252   7.940 -0.1496 -1.3663 -1.4845
  128OSM   H18H13808   2.257  -0.354   8.017  0.2951  2.4350  2.3859
  129OSM      N13809   0.041   4.416   5.781  0.5908 -0.7881 -0.1788
  129OSM    C1513810   0.122   4.398   5.909 -0.6016 -0.8873  0.0504
  129OSM   H15A13811   0.192   4.480   5.909 -0.1589 -1.2622 -0.2767
  129OSM   H15B13812   0.176   4.305   5.897 -0.8391 -1.2110  1.3478
  129OSM   H15C13813   0.057   4.404   5.996 -2.8760  2.6931 -1.6783
  129OSM    C1413814  -0.015   4.556   5.769 -0.6052  0.1943 -0.3401
  129OSM   H14A13815   0.057   4.634   5.791 -0.2942  0.0090 -0.6740
  129OSM   H14B13816  -0.091   4.562   5.845 -1.3307 -1.0385 -0.9303
  129OSM   H14C13817  -0.051   4.586   5.672  0.1723  2.7159  0.0940
  129OSM    C1313818   0.142   4.408   5.668  0.1703 -0.1245  0.4968
  129OSM   H13A13819   0.227   4.474   5.665  0.7382 -0.8847 -1.1275
  129OSM   H13B13820   0.095   4.420   5.572  0.4954 -0.6393  0.2705
  129OSM   H13C13821   0.179   4.307   5.659 -2.2237 -0.9329 -1.0880
  129OSM    C1213822  -0.070   4.312   5.759 -0.1623 -0.1180  0.7559
  129OSM   H12A13823  -0.116   4.331   5.663  3.2633  0.4150 -0.9262
  129OSM   H12B13824  -0.146   4.345   5.829 -1.3903  3.0603 -1.8462
  129OSM    C1113825  -0.024   4.160   5.770 -0.5382 -0.5260 -0.2252
  129OSM   H11A13826  -0.116   4.098   5.772  0.4104 -2.0665 -1.6715
  129OSM   H11B13827   0.025   4.153   5.870  0.2372 -0.6398 -0.5995
  129OSM      P13828   0.032   4.022   5.546  0.3693 -0.0124  0.3270
  129OSM    O1313829  -0.104   4.059   5.497  0.7643  0.1308 -0.1735
  129OSM    O1413830   0.146   4.020   5.449 -0.0000 -0.6953 -0.1791
  129OSM    O1113831   0.025   3.882   5.610 -0.0671  0.7027 -0.4113
  129OSM    O1213832   0.070   4.123   5.665  0.1054  0.2448  0.4308
  129OSM    C1S13833   0.142   3.827   5.678  0.2261 -0.3682  0.1927
  129OSM    H1S13834   0.235   3.879   5.648  0.0157 -0.0635  0.0647
  129OSM    H1T13835   0.147   3.717   5.661 -1.7060 -0.4003 -0.3769
  129OSM     NF13836   0.238   3.807   5.908 -0.2682 -0.0235  0.6329
  129OSM    HNF13837   0.228   3.729   5.969 -1.0675 -1.0776 -0.7896
  129OSM    C2S13838   0.119   3.832   5.833 -0.1876  0.3237  1.0036
  129OSM    H2S13839   0.096   3.940   5.849  0.1255  0.3210  1.4871
  129OSM    C3S13840  -0.009   3.743   5.869 -0.2376 -0.2382 -0.7816
  129OSM    H3S13841  -0.007   3.640   5.826 -0.5870 -0.7091  0.3107
  129OSM     O313842  -0.123   3.799   5.809  0.4109 -0.2997 -0.2645
  129OSM    HO313843  -0.095   3.847   5.731  0.5104  1.8429  1.0050
  129OSM    C4S13844  -0.024   3.738   6.016  0.5291  0.2190 -0.1470
  129OSM    H4S13845  -0.000   3.640   6.060 -0.9817 -0.1612 -0.1155
  129OSM    C5S13846  -0.055   3.836   6.097 -0.3297 -0.6459  0.2303
  129OSM    H5S13847  -0.084   3.928   6.043  0.3669 -1.6593 -2.0060
  129OSM    C6S13848  -0.072   3.833   6.245  0.0236  0.9945 -0.1192
  129OSM    H6S13849  -0.182   3.838   6.259 -0.8295 -3.0447 -3.2716
  129OSM    H6T13850  -0.026   3.927   6.281  2.0937  0.9734 -2.3938
  129OSM    C7S13851  -0.007   3.716   6.320 -0.4721 -0.4562  0.2016
  129OSM    H7S13852  -0.060   3.625   6.285 -1.1280 -0.5850  1.4558
  129OSM    H7T13853  -0.008   3.736   6.430  1.0808  1.2893 -0.0500
  129OSM    C8S13854   0.145   3.691   6.314 -0.7655  0.1919  0.8849
  129OSM    H8S13855   0.189   3.776   6.370  0.5146 -0.8536  1.5204
  129OSM    H8T13856   0.175   3.680   6.207  1.9387 -0.9029  1.6611
  129OSM    C9S13857   0.198   3.559   6.386  0.2394  0.0051  0.1345
  129OSM    H9S13858   0.308   3.568   6.371 -0.2685  3.8367 -2.9218
  129OSM    H9T13859   0.153   3.478   6.325 -0.8467 -0.1723  1.1383
  129OSM   C10S13860   0.174   3.556   6.537  0.0986 -0.5073  0.3032
  129OSM   H10S13861   0.199   3.459   6.583  2.4107 -0.8381 -1.4958
  129OSM   H10T13862   0.065   3.577   6.548 -0.2189 -0.8284 -1.7810
  129OSM   C11S13863   0.246   3.659   6.632 -0.3066  0.5632 -0.9986
  129OSM   H11S13864   0.214   3.764   6.615 -2.4802  0.5890  2.3195
  129OSM   H11T13865   0.354   3.655   6.606  0.2089  1.6774  0.7771
  129OSM   C12S13866   0.234   3.626   6.777 -0.4578  0.3247  0.3584
  129OSM   H12S13867   0.131   3.631   6.819  0.2906  2.4660  2.1983
  129OSM   H12T13868   0.278   3.719   6.820 -0.0331  0.0989  0.4160
  129OSM   C13S13869   0.304   3.501   6.828 -0.3935  0.0843  0.5453
  129OSM   H13S13870   0.368   3.462   6.747 -1.3724 -0.1585 -0.1381
  129OSM   H13T13871   0.227   3.421   6.837 -0.5181 -0.3743 -3.1572
  129OSM   C14S13872   0.383   3.521   6.955 -0.4631  0.3855  0.7932
  129OSM   H14S13873   0.452   3.606   6.939 -0.3113  0.0418 -0.4323
  129OSM   H14T13874   0.430   3.423   6.975 -2.6199 -1.3201 -1.8302
  129OSM   C15S13875   0.308   3.548   7.087 -0.2718  0.0802 -0.4340
  129OSM   H15S13876   0.220   3.482   7.080  0.6060 -1.5020  2.2310
  129OSM   H15T13877   0.281   3.656   7.088 -2.1464 -0.3630  1.3721
  129OSM   C16S13878   0.384   3.495   7.216  0.4776  0.2787  0.0531
  129OSM   H16S13879   0.468   3.566   7.235  0.9591  0.0974 -1.3023
  129OSM   H16T13880   0.415   3.390   7.200 -0.5269 -0.0268  0.0418
  129OSM   C17S13881   0.296   3.493   7.345  0.6593 -0.4208  0.3025
  129OSM   H17S13882   0.211   3.427   7.321  0.5749 -0.4950  0.7967
  129OSM   H17T13883   0.248   3.592   7.355  0.5314 -0.2419 -1.8044
  129OSM   C18S13884   0.379   3.470   7.478  0.7800  0.2174  0.3685
  129OSM   H18S13885   0.319   3.491   7.569  0.0907  1.3237 -0.3245
  129OSM   H18T13886   0.463   3.541   7.466 -0.2938  1.7893  1.6620
  129OSM   H18U13887   0.412   3.364   7.475 -1.2324 -0.4762  0.8636
  129OSM    C1F13888   0.361   3.875   5.903  0.0527 -0.2310 -0.1536
  129OSM     OF13889   0.377   3.957   5.818  0.5473  0.0952 -0.0237
  129OSM    C2F13890   0.463   3.826   6.003 -0.1137 -0.1194  0.4707
  129OSM    H2F13891   0.558   3.877   5.977 -0.8814  0.0662 -2.2734
  129OSM    H2G13892   0.477   3.716   5.991 -0.1924 -0.1674  0.8070
  129OSM    C3F13893   0.421   3.862   6.147 -0.3042 -0.1867 -0.2313
  129OSM    H3F13894   0.497   3.826   6.219 -1.3666 -0.1123  0.9714
  129OSM    H3G13895   0.324   3.817   6.180  0.7653 -1.6322  1.1023
  129OSM    C4F13896   0.419   4.016   6.170  0.0131 -0.1551  0.9927
  129OSM    H4F13897   0.349   4.054   6.092  0.7601 -1.5275 -0.3960
  129OSM    H4G13898   0.515   4.063   6.141 -0.2911 -1.1992 -2.1176
  129OSM    C5F13899   0.368   4.077   6.306 -0.2896  0.2196 -0.1535
  129OSM    H5F13900   0.286   4.008   6.336  0.9928 -1.8286 -1.1828
  129OSM    H5G13901   0.324   4.177   6.283  2.1059  1.3892  0.0675
  129OSM    C6F13902   0.472   4.087   6.415  0.1307 -0.2515  0.1771
  129OSM    H6F13903   0.500   3.983   6.441  0.2652 -0.0185  0.9890
  129OSM    H6G13904   0.444   4.141   6.508  2.4157  0.4357  0.5384
  129OSM    C7F13905   0.600   4.162   6.377 -0.2090 -0.2087  0.3811
  129OSM    H7F13906   0.634   4.143   6.273  0.7978  1.1827  0.4245
  129OSM    H7G13907   0.683   4.145   6.449  1.7566  2.3653 -1.0982
  129OSM    C8F13908   0.601   4.323   6.387  0.6297 -0.0939 -0.0380
  129OSM    H8F13909   0.581   4.349   6.493  2.7430  2.9166 -0.2479
  129OSM    H8G13910   0.516   4.367   6.330  0.1685 -1.7891 -0.7114
  129OSM    C9F13911   0.730   4.389   6.337 -0.2849  0.0976  0.1419
  129OSM    H9F13912   0.733   4.407   6.229  1.7139 -1.1833 -0.0649
  129OSM   C10F13913   0.830   4.439   6.413 -0.2075  0.4130 -0.4789
  129OSM   H10F13914   0.923   4.472   6.365  0.9901 -0.9362  0.7939
  129OSM   C11F13915   0.840   4.433   6.560 -0.0698 -0.7681  0.2166
  129OSM   H11F13916   0.845   4.328   6.597  1.9477 -0.7175  0.1837
  129OSM   H11G13917   0.742   4.464   6.601 -0.7355 -2.8734  0.3279
  129OSM   C12F13918   0.955   4.504   6.628 -0.0089 -0.4960 -0.2703
  129OSM   H12F13919   0.969   4.608   6.588  1.0082 -0.4506  0.1597
  129OSM   H12G13920   1.050   4.451   6.605  0.9885  1.8363 -1.9712
  129OSM   C13F13921   0.944   4.515   6.778  1.0155 -0.4144  0.3919
  129OSM   H13F13922   0.941   4.415   6.825 -0.4094 -1.7016 -2.2000
  129OSM   H13G13923   0.849   4.561   6.810  1.9469  1.3862  0.7136
  129OSM   C14F13924   1.066   4.592   6.840  0.6583 -0.7723 -0.3806
  129OSM   H14F13925   1.047   4.688   6.786 -0.7363 -0.8546 -0.0750
  129OSM   H14G13926   1.160   4.550   6.799  0.4319 -1.8477  0.1667
  129OSM   C15F13927   1.072   4.628   6.989 -0.0934 -0.3058  0.5868
  129OSM   H15F13928   1.161   4.693   7.003  2.1286 -2.6315 -1.5916
  129OSM   H15G13929   1.104   4.539   7.047  0.5031  1.8141  3.7543
  129OSM   C16F13930   0.949   4.707   7.041 -0.0938 -0.0831 -0.1575
  129OSM   H16F13931   0.854   4.674   6.993  0.0140  1.4103 -1.4860
  129OSM   H16G13932   0.963   4.812   7.009  1.0064 -0.1829 -0.0485
  129OSM   C17F13933   0.946   4.697   7.197  0.0084  0.2409 -0.6789
  129OSM   H17F13934   1.032   4.750   7.243  0.5355 -1.4319  0.3326
  129OSM   H17G13935   0.960   4.592   7.229 -0.7043  0.2322 -0.3807
  129OSM   C18F13936   0.809   4.751   7.244 -0.0130  0.0388  0.1250
  129OSM   H18F13937   0.729   4.685   7.207 -1.0060 -0.2993  2.6536
  129OSM   H18G13938   0.803   4.861   7.227  0.5356  0.1403  0.5330
  129OSM   H18H13939   0.796   4.749   7.355 -0.2361  0.1830  0.1022
  130OSM      N13940   3.130   5.389   5.657 -0.2328 -0.1799  0.0243
  130OSM    C1513941   2.984   5.395   5.646 -0.0904  0.4344  0.2261
  130OSM   H15A13942   2.956   5.473   5.577  0.9252 -0.9395 -1.8292
  130OSM   H15B13943   2.940   5.396   5.745 -0.8131  1.1427 -0.0902
  130OSM   H15C13944   2.949   5.307   5.594  1.8849 -1.0432  1.2744
  130OSM    C1413945   3.177   5.343   5.528  0.6359  0.6168  0.2514
  130OSM   H14A13946   3.166   5.420   5.452 -0.8996 -1.1371 -1.4184
  130OSM   H14B13947   3.130   5.253   5.492  0.0341  0.6548  0.9188
  130OSM   H14C13948   3.283   5.326   5.529  0.4926 -2.0737 -4.0774
  130OSM    C1313949   3.191   5.522   5.677  0.1867  0.9077 -0.1544
  130OSM   H13A13950   3.164   5.590   5.597 -0.2013 -2.2559 -2.9683
  130OSM   H13B13951   3.299   5.523   5.679  0.1750  1.4003  0.9376
  130OSM   H13C13952   3.164   5.559   5.774 -2.0616  0.0847 -0.3966
  130OSM    C1213953   3.170   5.285   5.764  0.1922 -0.0559  0.5137
  130OSM   H12A13954   3.277   5.273   5.759  0.1211 -1.3115  1.4610
  130OSM   H12B13955   3.151   5.186   5.725  1.5116 -0.8320  1.7677
  130OSM    C1113956   3.120   5.280   5.907 -0.6551  0.0672 -0.1337
  130OSM   H11A13957   3.188   5.209   5.958 -2.1144 -0.3293  1.3745
  130OSM   H11B13958   3.022   5.228   5.909  0.0520 -1.3874 -1.7827
  130OSM      P13959   3.010   5.471   6.043  0.1460 -0.1279  0.0269
  130OSM    O1313960   3.043   5.609   6.082  0.3544 -0.0404 -0.2700
  130OSM    O1413961   2.885   5.447   5.964 -0.4267 -0.6631  0.4506
  130OSM    O1113962   3.014   5.381   6.168 -0.2952 -0.3261 -0.0111
  130OSM    O1213963   3.130   5.409   5.963  0.8859 -0.6995 -0.6206
  130OSM    C1S13964   3.115   5.401   6.259 -0.2516 -0.4640 -0.1463
  130OSM    H1S13965   3.209   5.444   6.219 -0.4966 -0.4187 -0.6818
  130OSM    H1T13966   3.142   5.299   6.294 -0.0641  0.8696  4.0908
  130OSM     NF13967   3.184   5.489   6.484 -0.4795 -0.4229 -0.4005
  130OSM    HNF13968   3.179   5.428   6.563  0.3087  0.6165  0.4829
  130OSM    C2S13969   3.074   5.483   6.391  0.2662 -0.6323  0.3687
  130OSM    H2S13970   3.066   5.587   6.353  0.0354 -0.4571  0.8927
  130OSM    C3S13971   2.942   5.423   6.447 -0.0768 -0.0670 -0.3343
  130OSM    H3S13972   2.968   5.316   6.459  0.6459  0.2276  0.8135
  130OSM     O313973   2.830   5.419   6.355  0.2252  0.0164  0.1631
  130OSM    HO313974   2.869   5.433   6.268  1.3335  0.9208  0.7683
  130OSM    C4S13975   2.905   5.482   6.579  0.8679  0.1408  0.0590
  130OSM    H4S13976   2.911   5.405   6.657  0.3508 -0.0143 -0.0537
  130OSM    C5S13977   2.872   5.607   6.613 -0.5687  0.4243  0.5148
  130OSM    H5S13978   2.871   5.683   6.533 -0.2450  1.5029  1.5144
  130OSM    C6S13979   2.867   5.661   6.756  0.2281  0.0999 -0.5662
  130OSM    H6S13980   2.761   5.668   6.787  0.6325 -0.2121  1.0230
  130OSM    H6T13981   2.897   5.768   6.755  0.2142  0.1590  1.1349
  130OSM    C7S13982   2.936   5.579   6.860 -0.7803 -0.2906 -0.9020
  130OSM    H7S13983   3.043   5.599   6.841 -0.6709  2.6871  1.7848
  130OSM    H7T13984   2.916   5.470   6.865  2.1364 -0.8825 -0.7220
  130OSM    C8S13985   2.903   5.649   6.993 -0.4529  0.3246  0.5637
  130OSM    H8S13986   2.792   5.655   6.999 -0.4147  1.3382  0.3737
  130OSM    H8T13987   2.947   5.751   6.986 -1.0724  0.5945  0.5485
  130OSM    C9S13988   2.954   5.576   7.114 -0.5752  0.2202 -0.4720
  130OSM    H9S13989   3.055   5.541   7.084 -1.2769 -2.5214  0.0616
  130OSM    H9T13990   2.883   5.491   7.126  1.6804 -1.3792  3.1414
  130OSM   C10S13991   2.951   5.664   7.251 -0.5208 -0.4010 -0.3324
  130OSM   H10S13992   2.849   5.707   7.249  0.3041  1.9399  2.1961
  130OSM   H10T13993   3.025   5.746   7.240  2.3158 -2.8994 -1.3555
  130OSM   C11S13994   2.990   5.585   7.381 -0.5705  0.1337 -0.1986
  130OSM   H11S13995   3.094   5.612   7.407 -0.9054 -1.4586  3.5005
  130OSM   H11T13996   2.964   5.477   7.376  0.6461 -0.3190  2.0323
  130OSM   C12S13997   2.915   5.636   7.504 -0.4486 -0.0567 -0.0964
  130OSM   H12S13998   2.932   5.576   7.596  2.1355  1.7272  0.7161
  130OSM   H12T13999   2.808   5.633   7.475 -1.3910 -2.4384  3.0456
  130OSM   C13S14000   2.971   5.782   7.544 -0.4459 -0.1238  0.0178
  130OSM   H13S14001   2.959   5.851   7.458 -2.4921  0.4604  0.7323
  130OSM   H13T14002   3.080   5.773   7.566 -0.5222 -1.1141  0.0710
  130OSM   C14S14003   2.880   5.824   7.660 -0.0522  0.4280 -0.2429
  130OSM   H14S14004   2.878   5.737   7.729 -1.8619 -0.4439 -1.2991
  130OSM   H14T14005   2.778   5.857   7.629 -0.3168  1.3527  1.4607
  130OSM   C15S14006   2.924   5.950   7.734 -0.1625 -0.5330 -0.2418
  130OSM   H15S14007   2.943   6.015   7.646  0.5185 -1.7580 -1.0124
  130OSM   H15T14008   3.009   5.929   7.802  0.3085 -0.8505 -0.9301
  130OSM   C16S14009   2.821   6.006   7.834 -0.5240 -0.0567 -1.0440
  130OSM   H16S14010   2.831   5.955   7.932  0.2735  0.9403 -0.5781
  130OSM   H16T14011   2.719   5.984   7.796 -0.6397  1.9187 -2.0358
  130OSM   C17S14012   2.833   6.156   7.864 -0.0184  1.0967  0.3760
  130OSM   H17S14013   2.807   6.212   7.772 -0.4471 -1.8190 -1.3879
  130OSM   H17T14014   2.937   6.176   7.898 -1.0370  2.5049  2.9659
  130OSM   C18S14015   2.754   6.213   7.987  0.9815 -0.2327 -0.1416
  130OSM   H18S14016   2.652   6.168   7.989  0.7084  0.3647 -0.4768
  130OSM   H18T14017   2.753   6.323   7.995 -0.6982 -0.3006  1.0597
  130OSM   H18U14018   2.809   6.170   8.073  0.5816  1.4194  0.9771
  130OSM    C1F14019   3.301   5.552   6.460  0.2772  0.4258  0.3648
  130OSM     OF14020   3.307   5.627   6.358 -0.0828 -0.0896 -0.2116
  130OSM    C2F14021   3.411   5.529   6.551  0.4412 -0.5812  0.4677
  130OSM    H2F14022   3.452   5.426   6.554  0.4028 -0.6328 -0.5088
  130OSM    H2G14023   3.384   5.567   6.652  0.7429 -1.2295  0.7970
  130OSM    C3F14024   3.533   5.615   6.506 -0.1309 -0.1987  0.3377
  130OSM    H3F14025   3.503   5.721   6.508 -2.1364 -0.7336  1.1639
  130OSM    H3G14026   3.566   5.583   6.405  0.5816  0.5088  0.3437
  130OSM    C4F14027   3.659   5.589   6.594 -0.2222 -0.5461 -0.1977
  130OSM    H4F14028   3.745   5.640   6.545  0.9210 -2.4468 -0.2943
  130OSM    H4G14029   3.693   5.484   6.607  0.9189 -0.0883  0.6697
  130OSM    C5F14030   3.652   5.657   6.738  0.8958 -0.3137 -0.0026
  130OSM    H5F14031   3.585   5.592   6.799  1.4351 -2.1280 -1.2771
  130OSM    H5G14032   3.593   5.751   6.735  0.5804 -0.5112 -0.0464
  130OSM    C6F14033   3.778   5.664   6.819 -0.5910  0.2635 -0.0027
  130OSM    H6F14034   3.833   5.568   6.827  0.6328  0.9261 -0.2596
  130OSM    H6G14035   3.741   5.695   6.919  1.0800  1.9749  0.1518
  130OSM    C7F14036   3.884   5.768   6.774 -0.3624  0.0310 -0.3846
  130OSM    H7F14037   3.833   5.865   6.790 -1.0003 -0.5654  1.4751
  130OSM    H7G14038   3.891   5.748   6.665 -2.0511  1.3371 -0.7802
  130OSM    C8F14039   4.004   5.775   6.867  0.2910  0.5523 -0.0200
  130OSM    H8F14040   4.061   5.680   6.863  0.7521  0.8825 -2.5376
  130OSM    H8G14041   3.958   5.774   6.968  0.0806 -1.2581 -0.1106
  130OSM    C9F14042   4.099   5.886   6.830 -0.5870 -0.1151  0.6421
  130OSM    H9F14043   4.133   5.878   6.726 -1.4545 -0.3803  0.3715
  130OSM   C10F14044   4.142   5.997   6.899  0.4241 -0.1649  0.2284
  130OSM   H10F14045   4.208   6.067   6.845 -1.6847  1.9663  0.2285
  130OSM   C11F14046   4.100   6.040   7.037 -0.4099 -0.7226 -0.5698
  130OSM   H11F14047   4.010   5.989   7.077 -2.6115  1.1522 -2.8212
  130OSM   H11G14048   4.077   6.147   7.016 -1.4847 -0.9229 -0.4725
  130OSM   C12F14049   4.199   6.052   7.151 -0.4426  0.7817  0.1174
  130OSM   H12F14050   4.284   6.112   7.110  1.1433 -0.5818  1.2606
  130OSM   H12G14051   4.239   5.953   7.184 -2.4099 -0.6202 -1.4434
  130OSM   C13F14052   4.138   6.113   7.278  0.2722 -0.1413  0.3242
  130OSM   H13F14053   4.038   6.067   7.295 -1.4516  3.3995  0.7945
  130OSM   H13G14054   4.112   6.221   7.273 -0.6962 -0.2316  2.3621
  130OSM   C14F14055   4.222   6.087   7.403 -0.4096 -0.4411  0.4713
  130OSM   H14F14056   4.324   6.125   7.384  0.4140 -2.1971  1.2320
  130OSM   H14G14057   4.240   5.979   7.415  2.7947 -0.3343 -1.9833
  130OSM   C15F14058   4.160   6.165   7.522 -0.3276  0.2082  1.0514
  130OSM   H15F14059   4.060   6.124   7.547 -1.1282  2.4465  1.7091
  130OSM   H15G14060   4.133   6.265   7.484  0.6283 -0.4624 -1.6789
  130OSM   C16F14061   4.265   6.177   7.634  0.2091 -0.2648  0.7334
  130OSM   H16F14062   4.320   6.269   7.606 -1.1942 -0.1138 -1.8379
  130OSM   H16G14063   4.341   6.096   7.632  0.5456  0.0235 -1.6650
  130OSM   C17F14064   4.199   6.181   7.770  0.1379 -0.0710  0.3931
  130OSM   H17F14065   4.145   6.086   7.793 -1.4142  0.9926  1.3392
  130OSM   H17G14066   4.124   6.260   7.790  0.0082  0.2357 -1.1883
  130OSM   C18F14067   4.295   6.194   7.888  0.2007 -0.0124  0.2099
  130OSM   H18F14068   4.359   6.103   7.893  1.4426  0.8640  0.9446
  130OSM   H18G14069   4.244   6.213   7.985  1.9360  1.0692  0.9552
  130OSM   H18H14070   4.374   6.270   7.870  0.5404 -0.6609 -1.2023
  131OSM      N14071   2.128   2.067   5.920 -0.3792  0.3790  0.0720
  131OSM    C1514072   2.069   2.200   5.943  0.7057 -0.1651 -0.0275
  131OSM   H15A14073   2.043   2.267   5.862  1.9876  2.2038  1.3818
  131OSM   H15B14074   2.147   2.261   5.987  0.9151  0.4406 -1.1962
  131OSM   H15C14075   1.993   2.216   6.019  0.2757 -0.2609 -0.4371
  131OSM    C1414076   2.048   2.001   5.817 -0.2474 -0.1555 -0.4508
  131OSM   H14A14077   1.956   1.961   5.858 -1.5324 -1.0428 -3.8179
  131OSM   H14B14078   2.093   1.912   5.774  1.3646  0.4991 -0.1637
  131OSM   H14C14079   2.008   2.059   5.735 -2.0775  0.5689  0.8774
  131OSM    C1314080   2.256   2.085   5.845  0.2256  0.5659  0.2731
  131OSM   H13A14081   2.241   2.161   5.769 -0.0081  0.9198  0.6692
  131OSM   H13B14082   2.293   1.998   5.792 -2.3046 -0.7656  0.5106
  131OSM   H13C14083   2.332   2.124   5.910  0.7265  1.2938 -0.7242
  131OSM    C1214084   2.139   1.980   6.036  0.2690  0.0247  0.5232
  131OSM   H12A14085   2.165   1.878   6.009 -0.1921 -0.1548  0.7401
  131OSM   H12B14086   2.043   1.968   6.084  1.1050 -0.5711  2.1379
  131OSM    C1114087   2.232   2.034   6.145  0.2183 -0.3457 -0.0972
  131OSM   H11A14088   2.210   2.001   6.249 -1.7861  1.3298  0.0703
  131OSM   H11B14089   2.207   2.142   6.154 -2.0535 -0.8459  0.2233
  131OSM      P14090   2.426   1.873   6.114 -0.2556  0.1785 -0.0309
  131OSM    O1314091   2.348   1.798   6.013 -0.2352 -0.4640 -0.2669
  131OSM    O1414092   2.572   1.874   6.110  0.8894 -0.6272 -0.1570
  131OSM    O1114093   2.382   1.819   6.262 -0.0821 -0.0279  0.0924
  131OSM    O1214094   2.372   2.022   6.111  0.2112  0.2020  0.0363
  131OSM    C1S14095   2.425   1.896   6.382 -0.0785  0.7488  0.3124
  131OSM    H1S14096   2.416   2.005   6.367 -0.1747  0.6946 -0.0542
  131OSM    H1T14097   2.530   1.870   6.406 -0.7381 -2.8411 -0.1204
  131OSM     NF14098   2.369   1.940   6.624  0.0311 -0.2032 -0.5850
  131OSM    HNF14099   2.429   1.903   6.695 -2.0725 -1.7560  0.4795
  131OSM    C2S14100   2.341   1.848   6.508 -0.1266  0.2140 -0.2644
  131OSM    H2S14101   2.235   1.846   6.476 -0.6505  0.1307  1.3971
  131OSM    C3S14102   2.368   1.696   6.553 -0.3844  0.0973 -0.5912
  131OSM    H3S14103   2.462   1.693   6.611 -2.1181  3.5633  2.9022
  131OSM     O314104   2.359   1.606   6.438 -0.2729 -0.1484  0.3507
  131OSM    HO314105   2.346   1.670   6.367 -1.8957 -1.5053 -0.6566
  131OSM    C4S14106   2.268   1.660   6.661 -0.3832  0.2145  0.0718
  131OSM    H4S14107   2.270   1.712   6.757  0.1266  1.5454 -0.6480
  131OSM    C5S14108   2.178   1.560   6.649 -1.1253 -0.5214 -0.3966
  131OSM    H5S14109   2.174   1.506   6.553  0.9048  0.0089 -0.8163
  131OSM    C6S14110   2.077   1.520   6.753 -0.6958 -0.3228  0.0191
  131OSM    H6S14111   2.075   1.409   6.759  1.0357 -0.4791 -1.3956
  131OSM    H6T14112   1.983   1.553   6.704  0.2227 -1.4691 -2.7569
  131OSM    C7S14113   2.084   1.576   6.893 -0.0376  0.1057 -0.1133
  131OSM    H7S14114   2.052   1.682   6.904 -4.3215 -1.1985  1.8436
  131OSM    H7T14115   2.189   1.578   6.930  1.3079 -2.7774 -3.2816
  131OSM    C8S14116   2.004   1.493   6.993  0.4246 -0.1511 -0.3323
  131OSM    H8S14117   2.031   1.385   6.984 -0.6781 -0.4035 -0.7117
  131OSM    H8T14118   1.900   1.493   6.955  0.2567 -2.0599  0.0042
  131OSM    C9S14119   2.025   1.538   7.137 -0.5483 -0.1316 -0.1946
  131OSM    H9S14120   1.981   1.636   7.165  0.1260 -0.3043  1.5930
  131OSM    H9T14121   2.132   1.560   7.154 -1.0380  1.2915  1.4012
  131OSM   C10S14122   1.974   1.440   7.242 -0.4596 -0.3165  0.4427
  131OSM   H10S14123   1.999   1.341   7.197 -0.2653  0.1758 -0.5569
  131OSM   H10T14124   1.864   1.453   7.246 -0.8705 -2.9216 -0.0843
  131OSM   C11S14125   2.035   1.465   7.372  0.0991 -0.4598 -0.0663
  131OSM   H11S14126   2.042   1.575   7.386 -0.4494 -0.5404  0.9590
  131OSM   H11T14127   2.140   1.430   7.384  0.1917 -0.0383  0.3508
  131OSM   C12S14128   1.967   1.405   7.497 -0.0402  0.1487  0.3274
  131OSM   H12S14129   1.967   1.294   7.496  0.3989  0.1436  0.7976
  131OSM   H12T14130   1.863   1.442   7.487 -0.1183 -0.3430 -0.8947
  131OSM   C13S14131   2.024   1.449   7.637  0.0227  0.1408  0.0522
  131OSM   H13S14132   2.017   1.559   7.648 -2.1264  0.0198  0.3374
  131OSM   H13T14133   2.131   1.418   7.636  0.0521  0.2615 -0.9538
  131OSM   C14S14134   1.948   1.374   7.747  0.7387 -0.4579  0.1700
  131OSM   H14S14135   2.009   1.390   7.839  0.2255  1.1742  0.2580
  131OSM   H14T14136   1.940   1.265   7.726  1.4823 -0.3143 -0.8809
  131OSM   C15S14137   1.804   1.414   7.766  0.0889 -0.2090 -0.3049
  131OSM   H15S14138   1.745   1.387   7.676 -0.2955 -0.5109  0.0272
  131OSM   H15T14139   1.799   1.525   7.773 -0.6511 -0.3124  1.8806
  131OSM   C16S14140   1.737   1.363   7.898  0.0569 -0.8250  0.0170
  131OSM   H16S14141   1.800   1.385   7.988  2.4642 -0.5743 -1.6310
  131OSM   H16T14142   1.724   1.256   7.870 -0.3365 -0.1244 -2.7254
  131OSM   C17S14143   1.598   1.423   7.907  0.3677 -0.6701 -0.2328
  131OSM   H17S14144   1.536   1.411   7.816 -0.8478  0.8868  0.3346
  131OSM   H17T14145   1.600   1.534   7.923 -2.1511 -0.5788 -0.2585
  131OSM   C18S14146   1.524   1.367   8.029 -0.3299 -0.8604 -0.6302
  131OSM   H18S14147   1.427   1.419   8.046  0.2340  1.2022 -3.0658
  131OSM   H18T14148   1.584   1.371   8.122 -1.2897 -1.2715  0.0149
  131OSM   H18U14149   1.486   1.265   8.011  0.3198 -0.9105 -1.8252
  131OSM    C1F14150   2.353   2.074   6.625 -0.1228  0.3155  0.4894
  131OSM     OF14151   2.302   2.127   6.531 -0.0101 -0.1394 -0.2197
  131OSM    C2F14152   2.424   2.152   6.727  0.0301  0.3937  0.1360
  131OSM    H2F14153   2.529   2.171   6.698  0.6421  0.0519  2.0486
  131OSM    H2G14154   2.435   2.078   6.809  1.3135  1.6906  1.1807
  131OSM    C3F14155   2.354   2.288   6.763 -0.5424 -0.0518 -0.4965
  131OSM    H3F14156   2.252   2.272   6.806 -0.1564  0.9871  0.8443
  131OSM    H3G14157   2.344   2.345   6.668 -3.4499  0.7096  0.1517
  131OSM    C4F14158   2.425   2.387   6.858 -0.0323 -0.2104 -0.1109
  131OSM    H4F14159   2.370   2.483   6.868 -2.6967 -0.9843 -4.7022
  131OSM    H4G14160   2.525   2.409   6.815  1.4801 -3.3356  1.4192
  131OSM    C5F14161   2.457   2.336   6.989 -0.8017  0.1203 -0.1988
  131OSM    H5F14162   2.534   2.255   6.987 -1.0179 -0.2509  2.4592
  131OSM    H5G14163   2.365   2.289   7.028  0.0120 -2.0200 -0.6871
  131OSM    C6F14164   2.508   2.439   7.097  0.2702  0.2934  0.6142
  131OSM    H6F14165   2.418   2.490   7.139  0.5498  0.7452  0.6647
  131OSM    H6G14166   2.581   2.496   7.036  1.1037 -1.8386 -0.4668
  131OSM    C7F14167   2.580   2.381   7.219 -0.1890  0.3621  0.0230
  131OSM    H7F14168   2.675   2.331   7.191  0.1470  0.5494  0.7927
  131OSM    H7G14169   2.522   2.298   7.264  0.2372  0.9677  1.7688
  131OSM    C8F14170   2.590   2.493   7.327  0.2594  0.2709 -0.4780
  131OSM    H8F14171   2.484   2.519   7.346 -0.0775  0.1137 -1.9707
  131OSM    H8G14172   2.644   2.575   7.274  0.9318 -1.0304 -1.8704
  131OSM    C9F14173   2.662   2.465   7.457 -1.2109  0.3206 -0.2577
  131OSM    H9F14174   2.769   2.446   7.446 -1.5993 -1.5962 -0.9568
  131OSM   C10F14175   2.615   2.460   7.584  0.0747  0.3708  0.0794
  131OSM   H10F14176   2.682   2.432   7.667 -0.5213 -2.6717 -0.3438
  131OSM   C11F14177   2.474   2.464   7.624 -0.2438 -0.9664  0.3137
  131OSM   H11F14178   2.452   2.385   7.699  0.4615 -1.4505  0.0205
  131OSM   H11G14179   2.410   2.439   7.537 -1.0988 -0.6480  0.8281
  131OSM   C12F14180   2.437   2.605   7.684 -0.4717  0.4987 -0.5063
  131OSM   H12F14181   2.520   2.620   7.756  0.2193  1.4770 -1.4649
  131OSM   H12G14182   2.341   2.602   7.739  0.0032  0.1885  0.3255
  131OSM   C13F14183   2.435   2.719   7.575  0.1615  0.0550  0.1244
  131OSM   H13F14184   2.381   2.683   7.486  1.0781 -0.3686 -0.2709
  131OSM   H13G14185   2.537   2.742   7.538  0.0985 -0.1050 -0.1504
  131OSM   C14F14186   2.365   2.839   7.640  0.2630 -0.3279 -0.0289
  131OSM   H14F14187   2.260   2.813   7.667 -0.5982  1.0538 -1.8525
  131OSM   H14G14188   2.364   2.918   7.562  1.0680  1.2227  1.4664
  131OSM   C15F14189   2.437   2.919   7.749  0.1688  0.4170  0.8796
  131OSM   H15F14190   2.536   2.946   7.705 -0.3772  0.9642 -0.0271
  131OSM   H15G14191   2.452   2.860   7.842 -0.2284  1.9788  1.9870
  131OSM   C16F14192   2.373   3.049   7.784 -0.1618 -0.1891  0.2156
  131OSM   H16F14193   2.271   3.029   7.823 -1.5329  3.2326 -1.1772
  131OSM   H16G14194   2.359   3.097   7.684 -0.3288  1.8311  1.1639
  131OSM   C17F14195   2.452   3.138   7.880  0.3581 -0.9063 -0.5723
  131OSM   H17F14196   2.405   3.239   7.870 -0.5006 -1.2088  0.2035
  131OSM   H17G14197   2.558   3.142   7.847 -0.1166  0.1413 -2.0535
  131OSM   C18F14198   2.435   3.083   8.025 -0.9771 -0.3553 -0.0658
  131OSM   H18F14199   2.488   2.985   8.025  0.6848  0.4649  1.9952
  131OSM   H18G14200   2.333   3.064   8.063 -1.1677  2.1636  0.8299
  131OSM   H18H14201   2.491   3.139   8.103 -1.6643 -0.3929  0.4566
  132OSM      N14202   3.843   4.447   6.499 -0.0531 -0.2934  0.3664
  132OSM    C1514203   3.956   4.416   6.404  0.1218 -0.0625  0.2203
  132OSM   H15A14204   3.922   4.407   6.302  0.2031  0.7925  0.1168
  132OSM   H15B14205   4.009   4.323   6.418 -0.5387 -1.1763 -3.6209
  132OSM   H15C14206   4.023   4.501   6.400 -2.7562  2.3785  0.7041
  132OSM    C1414207   3.908   4.483   6.630  0.1992 -0.1035 -0.3561
  132OSM   H14A14208   3.840   4.539   6.693 -0.4363 -0.2940 -0.8647
  132OSM   H14B14209   3.995   4.545   6.612  0.4806  0.0763  1.3889
  132OSM   H14C14210   3.943   4.398   6.688  0.8551  1.7324  2.1365
  132OSM    C1314211   3.768   4.570   6.446  0.3463  0.0457  0.0922
  132OSM   H13A14212   3.672   4.576   6.494 -0.9058 -2.1347 -1.9309
  132OSM   H13B14213   3.732   4.555   6.345  0.3935 -2.8215  0.4197
  132OSM   H13C14214   3.829   4.657   6.461  2.2698 -1.3964  1.1103
  132OSM    C1214215   3.745   4.331   6.515  0.3792  0.1022  0.6440
  132OSM   H12A14216   3.809   4.245   6.529  3.1319  0.9091 -4.5575
  132OSM   H12B14217   3.706   4.314   6.416  0.9140 -0.1666  0.4722
  132OSM    C1114218   3.635   4.336   6.613 -0.1915 -0.0903 -0.0087
  132OSM   H11A14219   3.671   4.359   6.715  2.5842  1.4368 -1.2077
  132OSM   H11B14220   3.591   4.234   6.610  1.8188 -0.9935  0.0909
  132OSM      P14221   3.399   4.432   6.631  0.1008 -0.3261 -0.3949
  132OSM    O1314222   3.305   4.472   6.522 -0.5993 -0.3788  0.0053
  132OSM    O1414223   3.370   4.303   6.696  0.0925 -0.4083  0.3578
  132OSM    O1114224   3.401   4.545   6.740  0.0921  0.0403  0.0691
  132OSM    O1214225   3.539   4.436   6.571 -0.0723  0.2266  0.2350
  132OSM    C1S14226   3.275   4.596   6.792 -0.1466 -0.0664 -0.0895
  132OSM    H1S14227   3.195   4.585   6.716  0.9869  2.0939 -1.6904
  132OSM    H1T14228   3.298   4.703   6.813 -3.2195  1.1113 -2.0360
  132OSM     NF14229   3.108   4.577   6.965  0.0650  0.0023 -0.1712
  132OSM    HNF14230   3.093   4.643   7.038  1.4287  0.9464 -0.6985
  132OSM    C2S14231   3.238   4.529   6.928 -0.5905  0.2547  0.1999
  132OSM    H2S14232   3.234   4.420   6.908  0.1239 -0.1017  1.8202
  132OSM    C3S14233   3.352   4.555   7.038  0.1386  0.0352 -0.1575
  132OSM    H3S14234   3.363   4.665   7.040 -3.1844  0.4739  0.3389
  132OSM     O314235   3.481   4.499   7.012 -0.0444  0.3353  0.9568
  132OSM    HO314236   3.480   4.485   6.917  1.1308  0.6872  0.8787
  132OSM    C4S14237   3.298   4.503   7.159 -0.2952 -0.3840 -0.5623
  132OSM    H4S14238   3.314   4.395   7.172  0.9714 -0.1578 -0.1613
  132OSM    C5S14239   3.249   4.565   7.269 -0.4075  0.0305  0.1472
  132OSM    H5S14240   3.223   4.672   7.264  0.2782  0.1328 -2.2775
  132OSM    C6S14241   3.217   4.500   7.395  0.4421 -0.4167 -0.5671
  132OSM    H6S14242   3.138   4.553   7.452  2.5688  2.2308  0.0971
  132OSM    H6T14243   3.307   4.527   7.453  1.1755  0.5336 -2.0862
  132OSM    C7S14244   3.196   4.350   7.415  0.5895  0.0038 -0.5118
  132OSM    H7S14245   3.274   4.295   7.358 -0.2512 -0.0639 -1.6294
  132OSM    H7T14246   3.091   4.330   7.382  0.4519  2.3156 -1.6584
  132OSM    C8S14247   3.192   4.298   7.561 -0.6479  0.9952  0.5146
  132OSM    H8S14248   3.290   4.323   7.607  1.1282  0.4864 -2.6833
  132OSM    H8T14249   3.183   4.187   7.561 -2.0761  1.0901  0.1342
  132OSM    C9S14250   3.071   4.347   7.639 -0.6988  0.0018  0.2312
  132OSM    H9S14251   2.985   4.296   7.592 -3.2052  1.2002  3.2267
  132OSM    H9T14252   3.051   4.456   7.636  2.9392  0.8258  0.7213
  132OSM   C10S14253   3.072   4.283   7.780 -0.1002  0.4260  0.4676
  132OSM   H10S14254   3.133   4.344   7.849 -0.0967  1.3336 -0.3124
  132OSM   H10T14255   3.111   4.180   7.764 -0.4266  0.2258  0.9376
  132OSM   C11S14256   2.927   4.284   7.844 -0.3024 -0.4655  0.4868
  132OSM   H11S14257   2.858   4.254   7.763  0.0598 -0.1148  0.0384
  132OSM   H11T14258   2.913   4.388   7.880  1.4726 -0.4021  1.1037
  132OSM   C12S14259   2.906   4.184   7.954  0.1633 -0.3765 -0.5275
  132OSM   H12S14260   2.895   4.081   7.914 -0.4096  0.3060 -2.2214
  132OSM   H12T14261   2.809   4.222   7.992 -1.6929 -2.0554 -3.1957
  132OSM   C13S14262   3.002   4.196   8.073  0.2231 -0.1390  0.3212
  132OSM   H13S14263   3.013   4.296   8.119 -1.4878 -0.1273  0.7852
  132OSM   H13T14264   3.105   4.175   8.036  0.4158  0.2930  0.6144
  132OSM   C14S14265   2.971   4.110   8.191 -0.4775  0.3164  0.4020
  132OSM   H14S14266   2.954   4.011   8.142  0.5314  0.6481 -0.6667
  132OSM   H14T14267   2.877   4.140   8.243 -1.0806 -0.3541 -0.2850
  132OSM   C15S14268   3.092   4.085   8.287  0.2180 -0.5987  0.4933
  132OSM   H15S14269   3.104   4.181   8.342  0.6354 -1.5117  2.0550
  132OSM   H15T14270   3.180   4.060   8.224 -0.4975  0.6173 -1.0608
  132OSM   C16S14271   3.072   3.962   8.374 -0.6889 -0.6737 -0.6304
  132OSM   H16S14272   3.058   3.868   8.317 -0.3244 -2.1878  1.6357
  132OSM   H16T14273   2.978   3.985   8.429 -0.1399 -0.0587  0.0712
  132OSM   C17S14274   3.184   3.942   8.474 -0.3479 -0.4415  0.1858
  132OSM   H17S14275   3.272   3.919   8.410 -0.5265 -1.1052  0.1738
  132OSM   H17T14276   3.169   3.854   8.540  3.8265 -0.3783  1.5486
  132OSM   C18S14277   3.236   4.054   8.567 -0.3900  0.4107 -0.5152
  132OSM   H18S14278   3.176   4.064   8.660 -0.5002 -0.3934 -0.4847
  132OSM   H18T14279   3.249   4.150   8.513 -1.4073  1.0480  0.3297
  132OSM   H18U14280   3.333   4.025   8.612 -1.3834 -0.3128  1.2720
  132OSM    C1F14281   2.999   4.522   6.915  1.0713  0.2692  0.8922
  132OSM     OF14282   3.007   4.424   6.839  0.2822  0.3684  0.3975
  132OSM    C2F14283   2.870   4.568   6.976 -0.7703  0.6098  0.6444
  132OSM    H2F14284   2.828   4.481   7.032 -1.4518  0.5246  0.0235
  132OSM    H2G14285   2.802   4.588   6.890 -0.7041 -2.9087 -0.4023
  132OSM    C3F14286   2.858   4.696   7.060  0.3171 -0.8830 -0.3286
  132OSM    H3F14287   2.749   4.708   7.080  0.6471 -0.1476  1.1876
  132OSM    H3G14288   2.891   4.783   6.998 -2.3527 -0.5098 -1.3514
  132OSM    C4F14289   2.935   4.696   7.200  0.7609 -0.4054  0.5343
  132OSM    H4F14290   3.024   4.762   7.185  1.8057 -1.6387  1.0604
  132OSM    H4G14291   2.960   4.588   7.210 -0.2498 -0.6722  0.2116
  132OSM    C5F14292   2.858   4.750   7.319  0.3869  0.7426 -0.2653
  132OSM    H5F14293   2.774   4.679   7.333  1.0660  0.1379  0.8157
  132OSM    H5G14294   2.804   4.839   7.279  2.7865  1.8854 -1.1491
  132OSM    C6F14295   2.940   4.790   7.445  0.2870 -0.1896 -0.0197
  132OSM    H6F14296   3.016   4.866   7.416 -0.2585  0.9951  1.4792
  132OSM    H6G14297   2.998   4.708   7.493  2.1044  2.4297  2.7161
  132OSM    C7F14298   2.861   4.854   7.554  0.7528 -0.1586 -0.5048
  132OSM    H7F14299   2.780   4.788   7.590  1.1300  0.4015  1.5284
  132OSM    H7G14300   2.810   4.943   7.513  0.9497 -0.1333 -0.6996
  132OSM    C8F14301   2.942   4.902   7.681 -0.3481 -0.1731  0.7284
  132OSM    H8F14302   2.921   5.006   7.715  1.2136  0.4427 -0.0918
  132OSM    H8G14303   3.050   4.905   7.655 -0.2818  0.9519  1.0760
  132OSM    C9F14304   2.920   4.811   7.798 -0.8538 -0.0483 -0.0683
  132OSM    H9F14305   2.818   4.794   7.833 -0.7873  0.6518  0.4894
  132OSM   C10F14306   3.019   4.739   7.861  0.3250  0.0433  0.2472
  132OSM   H10F14307   2.994   4.680   7.951  0.0057 -0.3270 -0.0854
  132OSM   C11F14308   3.159   4.745   7.806 -0.5691 -0.0789 -0.2835
  132OSM   H11F14309   3.199   4.849   7.799  2.7811 -1.1461  0.8714
  132OSM   H11G14310   3.168   4.699   7.706  1.7816  0.0048 -0.1833
  132OSM   C12F14311   3.249   4.663   7.898 -0.4659  0.3382  0.7681
  132OSM   H12F14312   3.212   4.560   7.912 -2.0717  0.6182 -0.9557
  132OSM   H12G14313   3.240   4.717   7.995 -1.0151  1.4227  0.1385
  132OSM   C13F14314   3.399   4.640   7.849  0.5146 -1.3884 -0.6940
  132OSM   H13F14315   3.433   4.562   7.922  2.2408  0.5225  0.6386
  132OSM   H13G14316   3.461   4.729   7.869 -1.6027 -0.5160  3.1002
  132OSM   C14F14317   3.415   4.588   7.713  0.3447  0.0697 -0.4077
  132OSM   H14F14318   3.383   4.669   7.644  1.0415  0.8931  0.2070
  132OSM   H14G14319   3.344   4.509   7.682 -0.6359  1.0711 -0.8088
  132OSM   C15F14320   3.562   4.541   7.688  0.0617  0.2649 -0.3249
  132OSM   H15F14321   3.584   4.456   7.756  0.2826  0.2728 -0.3857
  132OSM   H15G14322   3.632   4.615   7.732  0.2997  0.3239 -0.8006
  132OSM   C16F14323   3.607   4.526   7.538 -0.1216 -0.1407 -0.0339
  132OSM   H16F14324   3.593   4.623   7.486 -0.0219  0.6973  1.4750
  132OSM   H16G14325   3.543   4.449   7.488 -1.2647  0.7859 -0.0497
  132OSM   C17F14326   3.753   4.478   7.529  0.2052 -0.4865 -0.2477
  132OSM   H17F14327   3.764   4.377   7.573  1.5777 -0.0746  0.4238
  132OSM   H17G14328   3.821   4.535   7.596  0.0515 -1.1904  0.5215
  132OSM   C18F14329   3.810   4.493   7.384  0.0670  0.0240  0.7108
  132OSM   H18F14330   3.847   4.594   7.356 -0.2331 -0.3202 -1.0878
  132OSM   H18G14331   3.733   4.466   7.309 -0.6207 -2.8670  2.3139
  132OSM   H18H14332   3.899   4.428   7.369 -0.5997 -0.7595  0.0873
  133OSM      N14333   4.001   3.689   6.095  0.4180  0.2965  0.1978
  133OSM    C1514334   4.073   3.813   6.051  0.0730  0.0617 -0.1640
  133OSM   H15A14335   4.006   3.897   6.048  0.2501  0.2465  0.6735
  133OSM   H15B14336   4.112   3.797   5.951  0.6954 -2.1501  0.3709
  133OSM   H15C14337   4.158   3.830   6.115 -1.2149 -2.4248  2.4022
  133OSM    C1414338   3.874   3.666   6.020 -0.1622  0.0644 -0.2285
  133OSM   H14A14339   3.803   3.635   6.095 -0.6380  0.3113 -0.5714
  133OSM   H14B14340   3.877   3.600   5.935 -3.2836  1.0604 -1.2628
  133OSM   H14C14341   3.838   3.761   5.983 -0.0071  0.6942  1.1509
  133OSM    C1314342   4.093   3.576   6.063  0.0690 -0.5481 -0.9105
  133OSM   H13A14343   4.194   3.601   6.091 -0.3617  0.4591 -0.1881
  133OSM   H13B14344   4.104   3.558   5.957 -1.2231 -0.8642 -1.0154
  133OSM   H13C14345   4.071   3.485   6.116  1.6997 -0.4081  0.0770
  133OSM    C1214346   3.983   3.692   6.247 -0.4694  0.4369  0.5081
  133OSM   H12A14347   4.078   3.700   6.297  0.8833 -0.5056 -1.7788
  133OSM   H12B14348   3.945   3.597   6.280 -1.4017  0.7505  0.3675
  133OSM    C1114349   3.878   3.790   6.306 -0.7203 -0.3875  0.3420
  133OSM   H11A14350   3.912   3.892   6.275  2.7925 -1.3548  0.5274
  133OSM   H11B14351   3.904   3.783   6.414 -1.5228  0.1988  0.5861
  133OSM      P14352   3.633   3.842   6.329  0.0063  0.0579 -0.1275
  133OSM    O1314353   3.643   3.973   6.255  0.4442 -0.2017 -0.1211
  133OSM    O1414354   3.505   3.771   6.321  0.2285 -0.4792 -0.7195
  133OSM    O1114355   3.679   3.856   6.475 -0.0195  0.4831 -0.4151
  133OSM    O1214356   3.747   3.748   6.267 -0.3483 -0.2565 -0.2944
  133OSM    C1S14357   3.587   3.902   6.575  0.1157 -0.0430 -0.3724
  133OSM    H1S14358   3.498   3.836   6.583 -0.9582  1.5347  1.2932
  133OSM    H1T14359   3.551   4.005   6.554 -0.3123  0.1088  1.0305
  133OSM     NF14360   3.544   3.940   6.808 -0.2383 -0.2118 -0.1416
  133OSM    HNF14361   3.548   4.028   6.855 -1.5194 -1.1945  1.9642
  133OSM    C2S14362   3.652   3.907   6.715  0.1259  0.3153 -0.1207
  133OSM    H2S14363   3.688   3.805   6.740  0.3266  0.4062 -0.0330
  133OSM    C3S14364   3.776   4.007   6.719 -0.2403  0.2340 -0.1718
  133OSM    H3S14365   3.734   4.107   6.694  0.4117  0.4967 -0.2218
  133OSM     O314366   3.869   3.996   6.613 -0.2230 -0.6122  0.4729
  133OSM    HO314367   3.830   3.935   6.549 -2.4739  1.2140 -0.0404
  133OSM    C4S14368   3.838   3.993   6.854  0.3868  0.5873 -0.0113
  133OSM    H4S14369   3.864   3.888   6.867 -0.4488  0.4130  0.3378
  133OSM    C5S14370   3.853   4.091   6.947  0.2112 -0.2756 -0.4149
  133OSM    H5S14371   3.815   4.193   6.936 -3.6281 -1.6647 -1.6695
  133OSM    C6S14372   3.886   4.078   7.088  0.0597 -0.3177 -0.1596
  133OSM    H6S14373   3.933   4.172   7.124 -0.3260 -0.1151 -0.1771
  133OSM    H6T14374   3.946   3.987   7.108  1.9003  0.3107 -2.3962
  133OSM    C7S14375   3.755   4.062   7.171 -0.3292 -0.8463 -0.9325
  133OSM    H7S14376   3.694   3.977   7.134  1.5629 -1.6261 -2.4117
  133OSM    H7T14377   3.693   4.153   7.152  0.6885 -0.1092 -0.8033
  133OSM    C8S14378   3.789   4.056   7.324 -0.2812 -0.1364 -0.0156
  133OSM    H8S14379   3.832   4.157   7.346 -1.4143  0.5016 -0.6495
  133OSM    H8T14380   3.866   3.980   7.352  0.0508 -0.1615 -0.9735
  133OSM    C9S14381   3.666   4.043   7.415  0.2078  0.3319  0.4140
  133OSM    H9S14382   3.626   3.940   7.403 -1.7813  1.3163 -2.5300
  133OSM    H9T14383   3.596   4.118   7.373 -0.4862 -0.8640 -0.6531
  133OSM   C10S14384   3.697   4.074   7.563  0.2543  0.0298  0.5142
  133OSM   H10S14385   3.778   4.149   7.551 -0.9619  1.4923  1.1641
  133OSM   H10T14386   3.729   3.978   7.608  0.3945  0.0908  0.5438
  133OSM   C11S14387   3.580   4.139   7.635 -0.2434 -0.0246 -0.9179
  133OSM   H11S14388   3.494   4.069   7.639 -0.0748 -0.3650 -2.5158
  133OSM   H11T14389   3.543   4.234   7.592 -1.1073 -0.1598 -0.4980
  133OSM   C12S14390   3.616   4.168   7.780  0.1280  0.2555 -0.0079
  133OSM   H12S14391   3.707   4.230   7.787  1.9132 -2.2899  1.0286
  133OSM   H12T14392   3.650   4.076   7.832  1.2018  0.4146 -0.4206
  133OSM   C13S14393   3.493   4.223   7.862 -0.6513 -0.4163  0.5336
  133OSM   H13S14394   3.423   4.139   7.884 -0.9180 -0.0056  1.2967
  133OSM   H13T14395   3.443   4.299   7.799  1.3707  1.2230  0.7896
  133OSM   C14S14396   3.533   4.286   8.002  0.3484 -0.5133  0.1994
  133OSM   H14S14397   3.587   4.381   7.981  1.0531 -0.7497  0.8813
  133OSM   H14T14398   3.597   4.211   8.052 -2.0071 -1.3772  2.1097
  133OSM   C15S14399   3.404   4.322   8.083  0.6778  0.5032 -0.4229
  133OSM   H15S14400   3.338   4.237   8.110 -0.8250  1.8884  0.4663
  133OSM   H15T14401   3.338   4.385   8.020 -0.6179 -0.1502  0.2541
  133OSM   C16S14402   3.448   4.388   8.215  0.0745 -0.1470 -0.6614
  133OSM   H16S14403   3.371   4.450   8.266  2.6410  2.1738  0.6575
  133OSM   H16T14404   3.540   4.448   8.198 -0.8591  0.7186 -2.9426
  133OSM   C17S14405   3.496   4.283   8.319 -0.6242 -0.6831  0.0790
  133OSM   H17S14406   3.557   4.204   8.270  1.0044 -0.6984  1.9990
  133OSM   H17T14407   3.404   4.233   8.357 -0.6086  0.1388  1.2338
  133OSM   C18S14408   3.569   4.345   8.438  0.6086 -0.2005 -0.9451
  133OSM   H18S14409   3.502   4.419   8.487  0.4654 -0.4419 -0.7758
  133OSM   H18T14410   3.661   4.396   8.403  2.3697 -2.6491 -0.1320
  133OSM   H18U14411   3.589   4.271   8.518  0.0013  0.0733 -0.5304
  133OSM    C1F14412   3.447   3.859   6.851 -0.1963 -1.0087 -0.6514
  133OSM     OF14413   3.441   3.738   6.826  0.1902 -0.0777  0.4003
  133OSM    C2F14414   3.348   3.926   6.941 -0.0905 -0.0667  0.6635
  133OSM    H2F14415   3.263   3.854   6.942  0.9589 -1.3666  0.2140
  133OSM    H2G14416   3.304   4.014   6.889 -0.0982 -0.2432  0.3672
  133OSM    C3F14417   3.399   3.956   7.080 -0.3677 -0.3192  0.2260
  133OSM    H3F14418   3.505   3.989   7.077 -0.6150  0.7233  1.6657
  133OSM    H3G14419   3.400   3.858   7.132 -1.0690 -1.7756 -2.2963
  133OSM    C4F14420   3.320   4.060   7.162  0.1614 -0.0242  0.4077
  133OSM    H4F14421   3.308   4.161   7.116  0.6107 -0.1171  0.0870
  133OSM    H4G14422   3.383   4.083   7.250 -0.5235 -1.0150  1.1755
  133OSM    C5F14423   3.183   4.017   7.215 -0.2362 -0.0020  0.2012
  133OSM    H5F14424   3.117   4.004   7.127 -0.7086  1.2780  0.3554
  133OSM    H5G14425   3.145   4.094   7.285 -0.3778  0.1384 -0.0316
  133OSM    C6F14426   3.187   3.879   7.295 -0.4519 -0.6817  0.4556
  133OSM    H6F14427   3.195   3.804   7.214 -3.1388  3.3848 -4.0860
  133OSM    H6G14428   3.079   3.868   7.319 -0.8541 -0.1806 -1.0648
  133OSM    C7F14429   3.294   3.863   7.407  0.6956  0.1664 -0.3144
  133OSM    H7F14430   3.279   3.944   7.481 -0.5544 -0.2303 -0.1030
  133OSM    H7G14431   3.394   3.882   7.364  0.3774  1.6357 -0.4470
  133OSM    C8F14432   3.286   3.731   7.496 -0.5522 -0.4599 -0.8263
  133OSM    H8F14433   3.362   3.741   7.577  1.3001  0.8419 -2.6339
  133OSM    H8G14434   3.331   3.646   7.441  2.0655 -1.2084  2.1373
  133OSM    C9F14435   3.157   3.703   7.566  0.1876 -0.5059 -0.0439
  133OSM    H9F14436   3.084   3.676   7.488  1.0261 -3.4849  0.0721
  133OSM   C10F14437   3.124   3.707   7.700 -0.3897 -0.5499 -0.3715
  133OSM   H10F14438   3.019   3.696   7.731  0.2313  0.8268  2.5762
  133OSM   C11F14439   3.212   3.749   7.815 -0.6848 -0.4684  1.0914
  133OSM   H11F14440   3.160   3.823   7.880  1.7027  1.4507  0.9615
  133OSM   H11G14441   3.306   3.800   7.784 -0.5064 -1.0876  0.6025
  133OSM   C12F14442   3.263   3.635   7.908 -0.5188  0.1374  0.7175
  133OSM   H12F14443   3.316   3.692   7.987 -1.1086  1.1276  0.4246
  133OSM   H12G14444   3.343   3.578   7.856 -0.6880 -0.6709  1.3282
  133OSM   C13F14445   3.153   3.542   7.969 -0.1453 -0.9306  0.7447
  133OSM   H13F14446   3.174   3.438   7.938  0.9351  0.0830 -2.1865
  133OSM   H13G14447   3.050   3.571   7.940 -0.9074 -2.5706  1.6488
  133OSM   C14F14448   3.160   3.556   8.126 -0.3210 -0.2359  0.4435
  133OSM   H14F14449   3.117   3.656   8.146  0.5779  0.8703 -2.5196
  133OSM   H14G14450   3.268   3.555   8.153 -0.3830 -0.2308  0.6908
  133OSM   C15F14451   3.089   3.440   8.204 -0.0677  0.1665 -0.1345
  133OSM   H15F14452   3.146   3.347   8.183  0.0975  0.5323 -1.3896
  133OSM   H15G14453   2.982   3.426   8.179 -1.1571  3.7766  1.7463
  133OSM   C16F14454   3.080   3.485   8.352 -1.3934 -0.2080 -0.3733
  133OSM   H16F14455   3.042   3.589   8.344  1.3441  0.8791 -0.4700
  133OSM   H16G14456   3.184   3.500   8.389 -1.6917  3.1441 -0.5944
  133OSM   C17F14457   3.007   3.383   8.438 -0.0446  1.1451  0.3568
  133OSM   H17F14458   3.061   3.288   8.420 -0.5855  0.8607  0.2156
  133OSM   H17G14459   2.907   3.365   8.392  0.2741  1.1540 -0.3450
  133OSM   C18F14460   2.997   3.421   8.584  0.0953  0.4701  0.2075
  133OSM   H18F14461   3.095   3.430   8.635 -0.4530 -0.5247  1.5047
  133OSM   H18G14462   2.942   3.338   8.633  2.1876 -0.5830  0.9202
  133OSM   H18H14463   2.936   3.513   8.598 -0.3416  0.1580  0.3884
  134OSM      N14464   3.676   0.110   5.736 -0.3418  0.5485 -0.0280
  134OSM    C1514465   3.819   0.169   5.759 -0.1288 -0.3651 -0.2002
  134OSM   H15A14466   3.813   0.275   5.778 -0.6540 -0.3518 -0.4020
  134OSM   H15B14467   3.879   0.153   5.671  1.1299  0.0974  0.5479
  134OSM   H15C14468   3.856   0.123   5.849  0.1340 -1.8492 -1.0336
  134OSM    C1414469   3.609   0.178   5.620 -0.7168  0.5378 -0.6118
  134OSM   H14A14470   3.656   0.156   5.525  0.0270 -3.3002  0.4758
  134OSM   H14B14471   3.617   0.285   5.631 -1.0155  0.3323  2.6527
  134OSM   H14C14472   3.503   0.159   5.617 -0.3545 -2.1945  0.6600
  134OSM    C1314473   3.685  -0.041   5.713 -0.0623  0.1785  0.0192
  134OSM   H13A14474   3.587  -0.085   5.701  0.7339 -1.2435 -1.7005
  134OSM   H13B14475   3.727  -0.096   5.796  0.1380  0.0186 -0.1869
  134OSM   H13C14476   3.740  -0.067   5.623 -1.3298  1.7567 -1.2532
  134OSM    C1214477   3.600   0.123   5.862 -0.5730  0.2780  0.5850
  134OSM   H12A14478   3.611   0.227   5.890 -0.7438  0.8061 -1.1514
  134OSM   H12B14479   3.650   0.064   5.936  1.3530 -0.9123 -1.5242
  134OSM    C1114480   3.450   0.085   5.864  0.4122 -0.2066  0.4586
  134OSM   H11A14481   3.414   0.049   5.962 -2.0226 -0.1135 -0.3219
  134OSM   H11B14482   3.450  -0.004   5.797  2.4681  1.0008 -1.2928
  134OSM      P14483   3.225   0.236   5.861  0.1510  0.4770 -0.1782
  134OSM    O1314484   3.190   0.350   5.772 -0.3981 -0.0449 -0.0251
  134OSM    O1414485   3.136   0.114   5.859  0.1289 -0.7282 -0.1633
  134OSM    O1114486   3.238   0.292   6.007  0.7283  0.4819  0.1545
  134OSM    O1214487   3.368   0.181   5.812 -0.0543  0.3854 -0.3540
  134OSM    C1S14488   3.358   0.361   6.059  0.0549  0.0299  0.6806
  134OSM    H1S14489   3.345   0.471   6.056 -0.5036 -0.0501 -0.5653
  134OSM    H1T14490   3.453   0.329   6.011 -1.3740 -3.6119 -0.0566
  134OSM     NF14491   3.456   0.412   6.285 -0.0011  0.0064  0.0242
  134OSM    HNF14492   3.532   0.376   6.339 -2.1391 -1.0515  2.5514
  134OSM    C2S14493   3.372   0.322   6.214 -0.0862  0.5477 -0.8685
  134OSM    H2S14494   3.274   0.338   6.265  0.6061 -0.6751  0.9410
  134OSM    C3S14495   3.382   0.164   6.231  0.6093 -0.7196  0.0746
  134OSM    H3S14496   3.467   0.128   6.170  1.8018  0.6820  0.8248
  134OSM     O314497   3.254   0.110   6.198 -0.1263  0.5934  1.0176
  134OSM    HO314498   3.219   0.175   6.136  0.1608 -0.6972 -0.5838
  134OSM    C4S14499   3.397   0.118   6.374 -0.4654  0.1187  0.5502
  134OSM    H4S14500   3.315   0.145   6.442 -2.3127 -0.5836 -1.2861
  134OSM    C5S14501   3.515   0.073   6.426 -1.0828  0.5481  0.7268
  134OSM    H5S14502   3.599   0.068   6.355 -1.4871 -2.4952  0.3432
  134OSM    C6S14503   3.533   0.036   6.572  0.1765  0.4023 -0.4647
  134OSM    H6S14504   3.591  -0.059   6.579 -1.7876 -0.7795  0.5526
  134OSM    H6T14505   3.432   0.011   6.612  0.0391 -0.6806 -1.4310
  134OSM    C7S14506   3.602   0.143   6.652 -0.2160  0.8351  0.3052
  134OSM    H7S14507   3.544   0.238   6.649 -1.8913 -0.1384  0.4318
  134OSM    H7T14508   3.698   0.162   6.600 -1.4815 -0.9213 -3.0274
  134OSM    C8S14509   3.623   0.102   6.796 -0.0766 -0.2557  0.0844
  134OSM    H8S14510   3.696   0.019   6.790  1.2562  0.8955 -0.3993
  134OSM    H8T14511   3.530   0.059   6.839  1.3080 -2.2485  1.2429
  134OSM    C9S14512   3.669   0.212   6.886 -0.3301  0.5439 -0.0521
  134OSM    H9S14513   3.599   0.296   6.870 -1.0424 -0.0303  0.0057
  134OSM    H9T14514   3.774   0.243   6.867  0.2853 -0.2265  1.8335
  134OSM   C10S14515   3.638   0.182   7.033 -0.5934 -0.6320 -0.7386
  134OSM   H10S14516   3.530   0.165   7.052 -0.2529  0.2191  2.6120
  134OSM   H10T14517   3.662   0.271   7.095  1.3054 -0.7229 -1.2639
  134OSM   C11S14518   3.701   0.053   7.079 -0.4637 -0.1780  0.0380
  134OSM   H11S14519   3.809   0.064   7.055 -0.0224 -1.7328  1.1801
  134OSM   H11T14520   3.668  -0.037   7.022  1.2725 -0.6193 -0.3521
  134OSM   C12S14521   3.667   0.033   7.225 -0.0260 -0.7127  0.5184
  134OSM   H12S14522   3.728  -0.055   7.254  1.4381  0.1837  0.2156
  134OSM   H12T14523   3.560   0.013   7.249  0.3996 -1.5689  1.8302
  134OSM   C13S14524   3.717   0.151   7.317  0.7281 -0.1702  0.2254
  134OSM   H13S14525   3.653   0.235   7.283 -0.2931 -1.5710 -1.4669
  134OSM   H13T14526   3.826   0.167   7.300  0.5863  0.6610  0.0440
  134OSM   C14S14527   3.685   0.120   7.464 -0.9510 -0.3810 -0.6675
  134OSM   H14S14528   3.608   0.040   7.470 -1.6664  0.0791 -2.9047
  134OSM   H14T14529   3.647   0.218   7.501 -0.3605  0.3549 -1.9746
  134OSM   C15S14530   3.809   0.075   7.544 -0.1054 -0.1225  0.6426
  134OSM   H15S14531   3.896   0.144   7.536 -0.9911  0.8569 -1.0478
  134OSM   H15T14532   3.841  -0.026   7.509 -0.2822 -0.3009  0.9943
  134OSM   C16S14533   3.784   0.079   7.693  0.1634  0.0731  0.5900
  134OSM   H16S14534   3.687   0.029   7.717 -0.0754 -0.4024 -1.2115
  134OSM   H16T14535   3.786   0.184   7.730  3.6819  0.0592  0.7566
  134OSM   C17S14536   3.884   0.001   7.781  0.1719 -0.2102 -0.7578
  134OSM   H17S14537   3.992   0.025   7.771  0.0842 -0.6541 -3.5972
  134OSM   H17T14538   3.871  -0.105   7.750 -0.1893 -1.0377  2.0293
  134OSM   C18S14539   3.842   0.026   7.930 -0.8774  0.1838  0.9166
  134OSM   H18S14540   3.731   0.018   7.938 -1.0241  1.6192  0.5433
  134OSM   H18T14541   3.866   0.126   7.972 -1.9372  1.7234 -1.8400
  134OSM   H18U14542   3.885  -0.050   7.998 -0.6050  0.1016  0.6519
  134OSM    C1F14543   3.437   0.553   6.289 -0.2068 -0.0267 -0.5773
  134OSM     OF14544   3.340   0.606   6.239 -0.0049  0.5630 -0.5692
  134OSM    C2F14545   3.542   0.636   6.354  0.1082 -0.6987  0.1007
  134OSM    H2F14546   3.506   0.741   6.361  1.3366 -0.3422  1.5541
  134OSM    H2G14547   3.639   0.641   6.300  0.8323 -0.8986  1.3522
  134OSM    C3F14548   3.589   0.593   6.501  0.4640 -0.1380 -0.3838
  134OSM    H3F14549   3.590   0.482   6.500 -4.5541 -0.4349 -2.8634
  134OSM    H3G14550   3.504   0.627   6.564 -1.0655  0.8348 -2.8138
  134OSM    C4F14551   3.720   0.661   6.554 -0.5863 -0.2084 -0.9293
  134OSM    H4F14552   3.711   0.771   6.566  1.4151 -0.0372 -0.6625
  134OSM    H4G14553   3.800   0.635   6.482  1.9076 -1.1997  1.9532
  134OSM    C5F14554   3.772   0.603   6.691 -0.0688  0.4282  0.0030
  134OSM    H5F14555   3.874   0.639   6.714  0.0080  0.5332 -0.4885
  134OSM    H5G14556   3.781   0.493   6.700  0.5503  0.1771 -2.8271
  134OSM    C6F14557   3.684   0.676   6.795 -0.5436 -0.7716  0.3250
  134OSM    H6F14558   3.579   0.675   6.760 -0.5583 -0.0126  0.3389
  134OSM    H6G14559   3.720   0.781   6.794 -0.2666 -0.7692  2.9407
  134OSM    C7F14560   3.678   0.610   6.934  0.1340  0.4319  0.3393
  134OSM    H7F14561   3.773   0.567   6.973 -0.6902 -1.6993  0.1582
  134OSM    H7G14562   3.620   0.515   6.926  0.2417  0.4851 -1.4012
  134OSM    C8F14563   3.608   0.699   7.033  0.1428 -1.2291  0.6138
  134OSM    H8F14564   3.570   0.653   7.127 -0.6821 -2.4201 -0.2636
  134OSM    H8G14565   3.526   0.752   6.980  0.8427  0.3505  1.0523
  134OSM    C9F14566   3.701   0.815   7.066  0.1167 -0.3347 -0.2465
  134OSM    H9F14567   3.773   0.844   6.988 -0.9846  0.9237 -0.8545
  134OSM   C10F14568   3.717   0.888   7.185  0.2162 -0.1906  0.5929
  134OSM   H10F14569   3.783   0.977   7.178  0.1055 -0.0862  0.8877
  134OSM   C11F14570   3.637   0.879   7.309  0.9545  0.8414 -0.3095
  134OSM   H11F14571   3.707   0.867   7.395  0.7385 -0.1870 -0.2679
  134OSM   H11G14572   3.559   0.800   7.307  2.4600 -0.6984 -0.4643
  134OSM   C12F14573   3.581   1.021   7.349 -0.3511  0.0006  0.1976
  134OSM   H12F14574   3.516   1.052   7.264 -1.2152  0.1907  0.9051
  134OSM   H12G14575   3.667   1.090   7.355  0.8934 -1.2790 -1.8869
  134OSM   C13F14576   3.506   1.031   7.476 -0.4077  0.3186 -0.6034
  134OSM   H13F14577   3.563   1.003   7.567  0.0476 -0.8025 -1.2105
  134OSM   H13G14578   3.430   0.950   7.477 -0.0770 -0.1141  3.3531
  134OSM   C14F14579   3.443   1.167   7.509  0.1449 -0.7309  0.2736
  134OSM   H14F14580   3.383   1.194   7.420  1.0045 -3.1393 -1.1318
  134OSM   H14G14581   3.518   1.250   7.511 -0.2928 -0.2557 -1.5607
  134OSM   C15F14582   3.356   1.170   7.635 -0.1919 -0.0626 -0.2158
  134OSM   H15F14583   3.280   1.091   7.618  0.5899 -0.5077 -1.8181
  134OSM   H15G14584   3.301   1.266   7.641 -2.1672 -1.1573  0.1422
  134OSM   C16F14585   3.437   1.147   7.756  0.2201  0.3188 -1.2090
  134OSM   H16F14586   3.540   1.186   7.739  1.7972 -2.2387  1.6036
  134OSM   H16G14587   3.458   1.041   7.777  1.3089  0.4140 -1.7687
  134OSM   C17F14588   3.369   1.208   7.881  0.1242 -0.2027 -0.6590
  134OSM   H17F14589   3.287   1.140   7.915  0.0537  0.4793  0.6116
  134OSM   H17G14590   3.315   1.304   7.864 -3.2921 -1.9747 -0.7949
  134OSM   C18F14591   3.466   1.231   7.994 -0.3630  0.4172  0.0665
  134OSM   H18F14592   3.546   1.301   7.962 -0.2135  0.7770  1.1983
  134OSM   H18G14593   3.515   1.134   8.018  0.0441 -0.0930 -2.4742
  134OSM   H18H14594   3.421   1.278   8.084  0.6284  0.5455  0.5069
  135OSM      N14595   2.561   0.228   6.181 -0.1817 -0.1344 -0.1728
  135OSM    C1514596   2.586   0.291   6.048 -0.8041  0.5631 -0.2021
  135OSM   H15A14597   2.599   0.398   6.042  1.2080  0.4964  1.4717
  135OSM   H15B14598   2.509   0.266   5.977 -2.0017  1.2020  0.8350
  135OSM   H15C14599   2.680   0.255   6.009 -0.0613 -1.3934  2.9815
  135OSM    C1414600   2.433   0.290   6.225 -0.5549 -0.0589 -0.7864
  135OSM   H14A14601   2.421   0.291   6.333  2.4641  4.8644 -0.1947
  135OSM   H14B14602   2.347   0.246   6.177 -0.1205 -1.5013 -0.2961
  135OSM   H14C14603   2.438   0.397   6.209 -2.4950  0.2009  0.0572
  135OSM    C1314604   2.537   0.083   6.162 -0.0106  0.1325 -0.8137
  135OSM   H13A14605   2.621   0.020   6.138 -1.2682 -2.3433  0.8291
  135OSM   H13B14606   2.475   0.064   6.076  0.0705 -0.5234 -0.7312
  135OSM   H13C14607   2.485   0.044   6.248  2.0263 -2.2569 -0.5560
  135OSM    C1214608   2.671   0.244   6.284 -0.2062  0.6054 -0.1351
  135OSM   H12A14609   2.763   0.192   6.259 -1.4645 -2.0372  0.3512
  135OSM   H12B14610   2.634   0.183   6.366  1.4899  2.4481  2.1653
  135OSM    C1114611   2.701   0.385   6.340 -0.0285  0.0229  0.4225
  135OSM   H11A14612   2.757   0.397   6.435  1.4968  2.2168 -0.6717
  135OSM   H11B14613   2.607   0.434   6.372  0.5262  0.9111  0.6980
  135OSM      P14614   2.905   0.444   6.186 -0.0995 -0.3648 -0.0177
  135OSM    O1314615   2.897   0.305   6.132  0.4884 -0.2450 -0.2660
  135OSM    O1414616   2.939   0.557   6.093  0.1392  0.1310 -0.3146
  135OSM    O1114617   2.974   0.439   6.328 -0.3881  0.2971 -0.7164
  135OSM    O1214618   2.757   0.477   6.239 -0.3122 -0.1888 -0.3954
  135OSM    C1S14619   2.962   0.559   6.406  0.1272  0.4174 -0.0740
  135OSM    H1S14620   2.858   0.597   6.403  0.7900  2.3044 -2.9886
  135OSM    H1T14621   3.032   0.635   6.367 -0.3977  0.1841 -1.5298
  135OSM     NF14622   2.972   0.664   6.638 -0.1447  0.1504  0.5209
  135OSM    HNF14623   3.053   0.717   6.662 -0.6789  0.2463  2.2556
  135OSM    C2S14624   2.993   0.541   6.563  0.2926  0.1299 -0.3475
  135OSM    H2S14625   2.914   0.476   6.605  1.8570 -1.7883 -0.2341
  135OSM    C3S14626   3.126   0.482   6.586  0.2945 -0.2296 -0.0373
  135OSM    H3S14627   3.205   0.557   6.563 -1.4192  1.2430 -1.4764
  135OSM     O314628   3.160   0.377   6.499  0.0979  0.6507  0.1052
  135OSM    HO314629   3.093   0.389   6.432  0.1708 -2.2600 -0.5997
  135OSM    C4S14630   3.155   0.430   6.729 -0.0505  0.2470  0.2903
  135OSM    H4S14631   3.225   0.492   6.787  0.0612  0.1077  0.3033
  135OSM    C5S14632   3.122   0.317   6.791  0.8136 -0.2494 -0.9460
  135OSM    H5S14633   3.061   0.243   6.736 -2.7245  0.9278  1.0856
  135OSM    C6S14634   3.163   0.283   6.931  0.2421  0.3195  0.0649
  135OSM    H6S14635   3.238   0.200   6.929 -0.6571 -0.4917 -1.6033
  135OSM    H6T14636   3.075   0.233   6.978  0.9335  0.4622  1.5868
  135OSM    C7S14637   3.215   0.396   7.028  0.5771  0.5512 -1.0633
  135OSM    H7S14638   3.151   0.487   7.026 -0.5704 -0.2420 -2.0516
  135OSM    H7T14639   3.313   0.422   6.983  0.3059  1.8573 -0.9594
  135OSM    C8S14640   3.240   0.343   7.179 -0.2020 -0.5664 -0.1308
  135OSM    H8S14641   3.287   0.242   7.169 -0.9154 -1.0670  1.3295
  135OSM    H8T14642   3.143   0.334   7.232 -0.0442  0.3627  0.3275
  135OSM    C9S14643   3.330   0.425   7.267  0.3067 -0.4886  0.0278
  135OSM    H9S14644   3.300   0.532   7.272 -1.0676 -0.4992 -4.0880
  135OSM    H9T14645   3.432   0.405   7.228  0.4726 -0.6896  0.5627
  135OSM   C10S14646   3.329   0.378   7.411 -0.2989 -0.2014 -0.0448
  135OSM   H10S14647   3.325   0.267   7.413 -0.8199 -0.1948 -0.5068
  135OSM   H10T14648   3.231   0.413   7.450 -0.8877  1.9891 -3.1158
  135OSM   C11S14649   3.443   0.435   7.501  0.4950  0.0840 -0.0597
  135OSM   H11S14650   3.438   0.544   7.480 -1.4817 -0.3382 -2.2905
  135OSM   H11T14651   3.545   0.396   7.482  0.0885 -0.4889 -1.1883
  135OSM   C12S14652   3.433   0.400   7.656 -0.5531  0.3595 -0.2586
  135OSM   H12S14653   3.430   0.290   7.670  0.4007  0.3022 -0.4142
  135OSM   H12T14654   3.338   0.448   7.689 -0.7266  0.0683 -0.3387
  135OSM   C13S14655   3.567   0.442   7.731  0.3393 -0.4552 -0.5433
  135OSM   H13S14656   3.584   0.551   7.726  1.2479 -0.6166 -1.1604
  135OSM   H13T14657   3.657   0.396   7.686 -0.2131 -0.4934 -1.6513
  135OSM   C14S14658   3.553   0.411   7.889  0.3218 -0.3208 -0.1636
  135OSM   H14S14659   3.588   0.306   7.900  2.5238  0.3710  0.0720
  135OSM   H14T14660   3.453   0.430   7.933 -0.2244 -1.5486 -0.8230
  135OSM   C15S14661   3.642   0.497   7.985  0.0140 -0.1036  0.0131
  135OSM   H15S14662   3.744   0.521   7.950 -0.9354  1.8973 -1.6138
  135OSM   H15T14663   3.636   0.435   8.077  1.6434  0.9316  0.8555
  135OSM   C16S14664   3.572   0.637   8.006  0.5244 -0.5938 -0.8383
  135OSM   H16S14665   3.472   0.622   8.052  0.7194 -2.2270 -0.8863
  135OSM   H16T14666   3.547   0.679   7.907 -2.5901  1.8964  0.8203
  135OSM   C17S14667   3.648   0.735   8.093 -1.3362  0.1903 -0.2821
  135OSM   H17S14668   3.610   0.839   8.082  2.2598  1.6899  0.3362
  135OSM   H17T14669   3.749   0.744   8.049 -1.2518 -1.4279 -0.4798
  135OSM   C18S14670   3.643   0.712   8.245  0.1989  0.4072  0.8531
  135OSM   H18S14671   3.542   0.677   8.274  0.0725 -0.7163 -0.7924
  135OSM   H18T14672   3.689   0.795   8.302  0.7754  0.4675  0.3132
  135OSM   H18U14673   3.704   0.621   8.267  0.4948 -0.0182 -1.4142
  135OSM    C1F14674   2.852   0.719   6.668  0.6181 -0.1289  0.6970
  135OSM     OF14675   2.743   0.674   6.622  0.0816 -1.0340 -0.4115
  135OSM    C2F14676   2.858   0.840   6.765  0.4435  0.5277  0.8133
  135OSM    H2F14677   2.920   0.923   6.723  0.9456 -1.4574 -2.7100
  135OSM    H2G14678   2.914   0.811   6.857 -0.6206 -0.6829  1.1034
  135OSM    C3F14679   2.724   0.902   6.802  0.0506  0.7802  0.3035
  135OSM    H3F14680   2.656   0.884   6.716 -1.1715  0.0722  1.3736
  135OSM    H3G14681   2.728   1.011   6.823 -0.2863  1.0571 -0.9814
  135OSM    C4F14682   2.670   0.840   6.929  0.0997 -0.7142 -0.5509
  135OSM    H4F14683   2.687   0.730   6.926  1.1287 -0.6319  0.9666
  135OSM    H4G14684   2.561   0.859   6.931  0.3284  1.6041 -3.2718
  135OSM    C5F14685   2.735   0.893   7.054  0.1579  0.1832 -0.2675
  135OSM    H5F14686   2.749   1.003   7.052  0.2973  0.2080  1.2498
  135OSM    H5G14687   2.836   0.849   7.064 -0.1217 -0.4022  0.0671
  135OSM    C6F14688   2.660   0.855   7.186 -0.3781  0.5538 -0.0365
  135OSM    H6F14689   2.668   0.745   7.204 -2.7771  0.6914  2.5778
  135OSM    H6G14690   2.551   0.875   7.179 -0.6979 -1.1979 -0.7475
  135OSM    C7F14691   2.706   0.913   7.316  0.7173 -0.4685 -0.4923
  135OSM    H7F14692   2.693   1.024   7.314 -0.0464 -0.5151  0.9441
  135OSM    H7G14693   2.813   0.894   7.340  0.4038 -1.3844  0.2573
  135OSM    C8F14694   2.613   0.862   7.424 -0.7961 -0.9833 -0.2408
  135OSM    H8F14695   2.509   0.872   7.386  0.2372 -1.1770 -3.4076
  135OSM    H8G14696   2.622   0.936   7.507 -0.2687 -0.9201 -0.3515
  135OSM    C9F14697   2.644   0.728   7.481 -0.7234  0.2966 -0.4781
  135OSM    H9F14698   2.628   0.649   7.406 -0.7095 -1.5964  1.3955
  135OSM   C10F14699   2.697   0.696   7.600  0.0758 -0.8932  0.1270
  135OSM   H10F14700   2.709   0.589   7.624  0.4210 -0.2573  3.2750
  135OSM   C11F14701   2.731   0.790   7.714  0.3264 -0.0793 -0.3890
  135OSM   H11F14702   2.660   0.874   7.725 -0.3595 -0.9187  2.4314
  135OSM   H11G14703   2.827   0.843   7.694  0.5682  0.0138  0.9315
  135OSM   C12F14704   2.756   0.725   7.855  0.6906 -0.7460  0.0422
  135OSM   H12F14705   2.804   0.806   7.913 -0.0922 -1.1769  1.3479
  135OSM   H12G14706   2.830   0.644   7.840 -0.6249 -2.0307  0.2613
  135OSM   C13F14707   2.626   0.676   7.919 -0.0822  0.2495  0.3451
  135OSM   H13F14708   2.571   0.617   7.843 -0.8264 -0.2400  1.2342
  135OSM   H13G14709   2.575   0.764   7.963  1.0746 -0.5678  3.6285
  135OSM   C14F14710   2.656   0.572   8.033 -0.0987 -0.3420  0.4457
  135OSM   H14F14711   2.713   0.617   8.117 -2.8966 -1.1798  2.9722
  135OSM   H14G14712   2.720   0.491   7.992  0.9502  0.7119 -0.0627
  135OSM   C15F14713   2.530   0.516   8.098  0.2929 -0.1408 -0.2505
  135OSM   H15F14714   2.470   0.469   8.017  1.4618  0.3113 -1.4205
  135OSM   H15G14715   2.476   0.598   8.150  0.8018 -0.0393  0.1220
  135OSM   C16F14716   2.558   0.403   8.204 -0.8414 -0.1264 -0.3707
  135OSM   H16F14717   2.470   0.391   8.270  0.1441 -0.1099  0.9799
  135OSM   H16G14718   2.635   0.440   8.276 -2.7924 -1.5627  2.6282
  135OSM   C17F14719   2.606   0.270   8.138 -0.0787  0.1999  0.2059
  135OSM   H17F14720   2.698   0.299   8.082  0.7600 -0.6679  1.0910
  135OSM   H17G14721   2.534   0.235   8.062  1.6009  0.1131 -1.4177
  135OSM   C18F14722   2.633   0.158   8.237 -0.1267 -0.5368  0.3919
  135OSM   H18F14723   2.704   0.208   8.306  0.5767 -0.9952  0.0135
  135OSM   H18G14724   2.683   0.065   8.201 -1.5135 -2.6723  3.5620
  135OSM   H18H14725   2.552   0.117   8.301 -0.0822 -0.0405  0.7759
  136OSM      N14726   0.475   0.965   5.974  0.1232 -0.5360 -1.2495
  136OSM    C1514727   0.581   0.901   5.891  0.5238 -0.4423  0.3763
  136OSM   H15A14728   0.664   0.969   5.881  1.2700 -1.2242  1.0751
  136OSM   H15B14729   0.543   0.856   5.801  0.2495 -1.8066  1.1472
  136OSM   H15C14730   0.618   0.820   5.952 -0.3197 -0.1884  1.2621
  136OSM    C1414731   0.348   0.894   5.939 -0.4541  0.6725  0.4309
  136OSM   H14A14732   0.332   0.916   5.835  2.1167 -1.3149 -0.4983
  136OSM   H14B14733   0.257   0.927   5.986 -0.3504  1.8699 -0.1763
  136OSM   H14C14734   0.364   0.787   5.937  1.3713  0.8785 -2.8030
  136OSM    C1314735   0.511   0.957   6.119 -0.9389 -0.3283 -0.0319
  136OSM   H13A14736   0.433   1.003   6.180 -2.7540 -0.2263 -2.2876
  136OSM   H13B14737   0.603   1.009   6.142 -0.6673 -1.4583  1.6073
  136OSM   H13C14738   0.527   0.852   6.139  2.0822 -0.1624 -1.1005
  136OSM    C1214739   0.480   1.113   5.927 -0.5923  0.4956  0.4252
  136OSM   H12A14740   0.473   1.113   5.819  1.8091  1.1957  0.2036
  136OSM   H12B14741   0.579   1.151   5.944  1.0455 -2.5747 -1.2441
  136OSM    C1114742   0.376   1.214   5.978  0.2151 -0.9152  0.0899
  136OSM   H11A14743   0.373   1.222   6.088  1.8317  0.2246  0.0771
  136OSM   H11B14744   0.276   1.171   5.955 -0.7786 -0.6454  3.3990
  136OSM      P14745   0.512   1.434   5.945 -0.1418 -0.0324 -0.1346
  136OSM    O1314746   0.610   1.399   5.843  0.2436 -0.0958 -0.1992
  136OSM    O1414747   0.475   1.576   5.961 -0.6082  0.3178 -0.2312
  136OSM    O1114748   0.560   1.364   6.081  0.2012  0.2087  0.5941
  136OSM    O1214749   0.392   1.342   5.926 -0.1897 -0.5617  0.3774
  136OSM    C1S14750   0.567   1.434   6.210  0.5121  0.0365  0.2626
  136OSM    H1S14751   0.467   1.473   6.240  1.4392  2.4815  0.3865
  136OSM    H1T14752   0.636   1.520   6.198 -0.5621  0.6565 -1.9750
  136OSM     NF14753   0.607   1.429   6.452  0.4028 -0.4772  0.2209
  136OSM    HNF14754   0.686   1.485   6.476  0.3731 -0.7467  0.9714
  136OSM    C2S14755   0.625   1.353   6.328 -0.0914 -0.4641  0.0583
  136OSM    H2S14756   0.571   1.257   6.338  1.4460 -1.4377 -0.4972
  136OSM    C3S14757   0.774   1.297   6.306 -0.5402 -0.0090 -0.5163
  136OSM    H3S14758   0.848   1.378   6.320 -0.1507 -0.2934 -0.9250
  136OSM     O314759   0.789   1.237   6.179 -0.0012  0.5240 -0.2372
  136OSM    HO314760   0.712   1.270   6.131 -0.8323  0.2783  0.8740
  136OSM    C4S14761   0.829   1.203   6.418 -0.2022  0.6884 -0.1665
  136OSM    H4S14762   0.885   1.253   6.499 -2.0392  0.5515  1.2503
  136OSM    C5S14763   0.832   1.067   6.414 -0.2854 -0.1888 -0.2062
  136OSM    H5S14764   0.825   1.018   6.316  0.9549  1.0007 -0.9179
  136OSM    C6S14765   0.901   0.979   6.519 -0.0399  0.0992 -0.1934
  136OSM    H6S14766   0.977   0.916   6.468  0.0933  1.1758 -1.3939
  136OSM    H6T14767   0.818   0.917   6.559  0.0992  0.8860  1.3735
  136OSM    C7S14768   0.970   1.044   6.641  0.3773 -0.5609  0.9548
  136OSM    H7S14769   0.909   1.120   6.694  1.4591 -0.4812  2.1480
  136OSM    H7T14770   1.056   1.107   6.607  0.2164 -0.0330  1.5207
  136OSM    C8S14771   1.012   0.931   6.734 -0.4153 -0.4613  0.1937
  136OSM    H8S14772   1.057   0.850   6.673  1.1706  0.1105  0.5706
  136OSM    H8T14773   0.916   0.896   6.780 -1.2658 -2.5148 -2.8512
  136OSM    C9S14774   1.114   0.980   6.843  0.0110 -0.8719  0.2640
  136OSM    H9S14775   1.173   1.060   6.793 -1.0787  0.8649  1.6586
  136OSM    H9T14776   1.171   0.891   6.877  1.9165  0.6602  1.2801
  136OSM   C10S14777   1.056   1.068   6.951  0.0114  0.3188  0.1486
  136OSM   H10S14778   1.007   1.005   7.029  2.1627 -3.2363 -1.1157
  136OSM   H10T14779   0.978   1.133   6.906 -1.3584 -0.5715  1.1379
  136OSM   C11S14780   1.165   1.158   7.025 -0.6017  0.3788  0.2593
  136OSM   H11S14781   1.224   1.224   6.958 -0.1467  2.1989  2.3163
  136OSM   H11T14782   1.244   1.086   7.057  0.9480  1.6501 -0.5457
  136OSM   C12S14783   1.118   1.243   7.140 -0.0048 -0.3451  0.3479
  136OSM   H12S14784   1.020   1.290   7.119  0.3606  1.2995  1.9567
  136OSM   H12T14785   1.185   1.332   7.146  2.2363 -1.4818 -4.0975
  136OSM   C13S14786   1.123   1.168   7.270 -0.1953  0.3211  0.4119
  136OSM   H13S14787   1.212   1.109   7.300 -1.7848 -1.8369  1.1695
  136OSM   H13T14788   1.050   1.085   7.265 -1.8831  1.7353  0.3433
  136OSM   C14S14789   1.086   1.256   7.394  0.9882 -0.3255 -0.0455
  136OSM   H14S14790   0.983   1.296   7.382  1.5195  1.1158  0.0034
  136OSM   H14T14791   1.150   1.347   7.396  0.1253  0.2924 -0.2587
  136OSM   C15S14792   1.095   1.181   7.529  0.8400 -0.1602  0.4010
  136OSM   H15S14793   1.062   1.076   7.513  0.5790  0.0592 -0.6015
  136OSM   H15T14794   1.035   1.237   7.603  1.6923  0.5335  0.5865
  136OSM   C16S14795   1.242   1.184   7.564 -0.1394  1.0578 -0.3820
  136OSM   H16S14796   1.273   1.291   7.558  1.2599  0.7254  0.5585
  136OSM   H16T14797   1.293   1.115   7.494 -0.5111 -1.3170  1.5594
  136OSM   C17S14798   1.268   1.121   7.703  0.8207  0.1222 -0.0658
  136OSM   H17S14799   1.362   1.062   7.700  0.7061 -0.0264 -1.0574
  136OSM   H17T14800   1.187   1.048   7.722  0.7981  0.1890  0.0934
  136OSM   C18S14801   1.259   1.229   7.801 -0.1987 -0.4683 -0.5327
  136OSM   H18S14802   1.338   1.307   7.797 -0.7893  0.2957  1.2768
  136OSM   H18T14803   1.273   1.177   7.898 -2.0445  0.1324  0.1091
  136OSM   H18U14804   1.158   1.275   7.799 -0.3912 -0.7885  0.7757
  136OSM    C1F14805   0.488   1.451   6.504  0.1921 -0.0311 -0.9218
  136OSM     OF14806   0.385   1.423   6.445  0.1370 -0.2461  0.2596
  136OSM    C2F14807   0.483   1.529   6.640 -0.3607 -0.2998 -0.4899
  136OSM    H2F14808   0.482   1.637   6.614 -0.7487 -0.6671 -2.1290
  136OSM    H2G14809   0.570   1.497   6.701 -2.0226 -3.5907  0.3836
  136OSM    C3F14810   0.350   1.487   6.695  0.1640  0.2169 -0.6119
  136OSM    H3F14811   0.346   1.376   6.701 -2.1537  0.1242 -2.3939
  136OSM    H3G14812   0.259   1.512   6.636 -0.1240  0.6405  0.0075
  136OSM    C4F14813   0.329   1.544   6.838  0.1301  0.1935  0.9224
  136OSM    H4F14814   0.220   1.534   6.857  0.0083  0.7767  0.5613
  136OSM    H4G14815   0.361   1.650   6.851 -1.6502  0.6897  1.5720
  136OSM    C5F14816   0.389   1.456   6.943  0.0869  0.0524 -0.3458
  136OSM    H5F14817   0.499   1.455   6.932  0.0915  0.4470 -0.3753
  136OSM    H5G14818   0.349   1.352   6.941  1.2226 -0.3985  0.0253
  136OSM    C6F14819   0.353   1.508   7.079  0.4590  0.2752 -0.7358
  136OSM    H6F14820   0.245   1.527   7.090  0.6895  3.0693 -2.4111
  136OSM    H6G14821   0.410   1.602   7.091  0.1035  0.2786  1.2083
  136OSM    C7F14822   0.405   1.417   7.193  0.6022 -0.2750 -0.2631
  136OSM    H7F14823   0.511   1.393   7.168  1.3761  1.5232  1.0478
  136OSM    H7G14824   0.345   1.324   7.195  1.6353 -1.0623 -2.5348
  136OSM    C8F14825   0.403   1.486   7.330  0.0503 -0.4074  0.0185
  136OSM    H8F14826   0.459   1.582   7.337 -1.5303  0.6918 -1.5261
  136OSM    H8G14827   0.455   1.413   7.394 -2.1344 -1.5165  0.6253
  136OSM    C9F14828   0.262   1.511   7.380 -0.0599  0.4667 -0.1296
  136OSM    H9F14829   0.185   1.531   7.305  0.3398 -1.4650 -1.1298
  136OSM   C10F14830   0.225   1.486   7.505  0.3050 -0.2857 -0.4599
  136OSM   H10F14831   0.121   1.499   7.539 -0.1349 -2.4028 -0.8347
  136OSM   C11F14832   0.308   1.442   7.616  0.8955 -0.2617  0.2948
  136OSM   H11F14833   0.281   1.511   7.699  0.6037 -0.9546  0.7948
  136OSM   H11G14834   0.418   1.441   7.602  1.0015  0.1035  1.0501
  136OSM   C12F14835   0.271   1.299   7.664 -0.6666  0.1648 -0.1473
  136OSM   H12F14836   0.287   1.228   7.580 -0.4564 -3.1625  2.5279
  136OSM   H12G14837   0.167   1.287   7.699 -0.1782 -0.8418  1.0427
  136OSM   C13F14838   0.370   1.239   7.768 -0.8692  0.1335 -0.1200
  136OSM   H13F14839   0.381   1.312   7.851  2.4977 -1.5214  1.0714
  136OSM   H13G14840   0.464   1.228   7.710 -0.0750  0.3681  1.0865
  136OSM   C14F14841   0.338   1.089   7.818 -0.3002 -0.2626 -0.8613
  136OSM   H14F14842   0.288   1.036   7.734 -0.4295 -1.5710  0.0099
  136OSM   H14G14843   0.258   1.101   7.894 -0.4194  1.0387 -1.1731
  136OSM   C15F14844   0.451   1.013   7.880  0.1552  0.0995 -0.5241
  136OSM   H15F14845   0.516   0.963   7.805  0.4455 -0.9978  0.4322
  136OSM   H15G14846   0.415   0.922   7.932  1.2214  0.5860  1.1423
  136OSM   C16F14847   0.540   1.097   7.977 -0.5570  0.4207 -0.6011
  136OSM   H16F14848   0.485   1.170   8.040  2.2830  1.7720  0.4936
  136OSM   H16G14849   0.612   1.157   7.918  0.7044 -0.5284 -0.0822
  136OSM   C17F14850   0.642   1.013   8.072  0.2579 -0.1290 -0.6898
  136OSM   H17F14851   0.696   0.950   7.997 -1.9933  1.0601 -3.5052
  136OSM   H17G14852   0.567   0.956   8.131  0.4965  0.1386 -0.1242
  136OSM   C18F14853   0.722   1.085   8.176  0.0247  0.1841  0.5252
  136OSM   H18F14854   0.738   1.189   8.140 -0.6485 -0.1478 -0.8134
  136OSM   H18G14855   0.823   1.051   8.207  1.1964  2.3006 -0.6942
  136OSM   H18H14856   0.661   1.080   8.269 -1.9892 -1.7260 -0.8132
  137OSM      N14857   5.741   0.214   6.031 -0.6929  0.0173  0.1491
  137OSM    C1514858   5.878   0.229   6.095  1.1837  0.1171  0.5993
  137OSM   H15A14859   5.936   0.146   6.058 -0.2661 -0.7780  0.2365
  137OSM   H15B14860   5.875   0.208   6.201 -0.9343  2.3429  1.0775
  137OSM   H15C14861   5.917   0.329   6.098 -1.5262  1.2929  0.0235
  137OSM    C1414862   5.650   0.328   6.076  0.5291 -0.5961 -0.0308
  137OSM   H14A14863   5.553   0.330   6.028 -0.2380  2.2539  1.4081
  137OSM   H14B14864   5.702   0.422   6.073  1.6726 -1.2163 -0.0796
  137OSM   H14C14865   5.604   0.327   6.173 -3.6728  2.0493 -1.7105
  137OSM    C1314866   5.766   0.237   5.888 -0.5649  0.0052 -0.9438
  137OSM   H13A14867   5.829   0.162   5.843  0.8275  0.5341  0.0542
  137OSM   H13B14868   5.817   0.332   5.882  0.7473 -0.6345 -0.3653
  137OSM   H13C14869   5.672   0.235   5.836  0.3967 -1.3350 -2.7564
  137OSM    C1214870   5.670   0.077   6.054  0.5122  0.6470 -0.1833
  137OSM   H12A14871   5.723  -0.009   6.015 -2.5852 -3.0782  2.9072
  137OSM   H12B14872   5.574   0.081   6.006  1.4487  2.3134 -2.0729
  137OSM    C1114873   5.656   0.047   6.205  0.1477  0.5245  0.2383
  137OSM   H11A14874   5.754   0.043   6.257  1.7327  2.7146 -2.3459
  137OSM   H11B14875   5.607  -0.052   6.223 -0.6512  1.1705  1.7721
  137OSM      P14876   5.434   0.105   6.335 -0.0155 -0.5102 -0.0056
  137OSM    O1314877   5.369   0.233   6.371  0.0948  0.2160  0.2863
  137OSM    O1414878   5.349   0.003   6.261 -0.5964  0.3174 -0.0679
  137OSM    O1114879   5.472   0.040   6.475  0.7118  0.0718 -0.3219
  137OSM    O1214880   5.571   0.140   6.270 -0.9375  0.1199 -0.3290
  137OSM    C1S14881   5.538   0.111   6.582 -0.1156 -0.2985 -0.8052
  137OSM    H1S14882   5.577   0.212   6.555 -0.7912 -0.2792 -1.7514
  137OSM    H1T14883   5.631   0.058   6.611  2.0373  2.7645 -1.5267
  137OSM     NF14884   5.488   0.241   6.786 -0.0162  0.2061 -0.4138
  137OSM    HNF14885   5.537   0.225   6.872  0.8232 -0.8703 -1.0572
  137OSM    C2S14886   5.446   0.128   6.704 -0.7016  0.5703 -0.4558
  137OSM    H2S14887   5.343   0.144   6.665 -1.2219 -1.5855 -0.1185
  137OSM    C3S14888   5.446  -0.006   6.782 -0.3062  0.2056 -1.0216
  137OSM    H3S14889   5.552  -0.023   6.811 -0.5698  2.1549  1.4475
  137OSM     O314890   5.423  -0.121   6.708 -0.4613  0.6221 -0.6572
  137OSM    HO314891   5.439  -0.095   6.617  2.0080 -3.9446 -1.8268
  137OSM    C4S14892   5.375   0.004   6.913 -0.2767  0.6022 -0.0248
  137OSM    H4S14893   5.431   0.055   6.993  0.2878 -0.6876  0.4266
  137OSM    C5S14894   5.258  -0.045   6.948 -0.5734  0.3038 -0.5611
  137OSM    H5S14895   5.213  -0.113   6.874 -0.2211  0.9193 -1.3593
  137OSM    C6S14896   5.186  -0.032   7.082  0.1967 -0.0366  0.4705
  137OSM    H6S14897   5.156  -0.132   7.119 -0.7595  0.1118  0.1289
  137OSM    H6T14898   5.096   0.031   7.065 -0.6776 -1.7959 -1.9480
  137OSM    C7S14899   5.251   0.039   7.195 -0.4025 -0.6491  0.1857
  137OSM    H7S14900   5.273   0.145   7.170 -1.9467  0.0007  1.4109
  137OSM    H7T14901   5.344  -0.016   7.221 -0.1048 -0.5538 -0.6453
  137OSM    C8S14902   5.176   0.044   7.327 -0.2196 -0.2193  0.6948
  137OSM    H8S14903   5.153  -0.062   7.349 -0.1377 -0.4511 -0.3011
  137OSM    H8T14904   5.079   0.095   7.304  0.2793  0.0644 -0.9171
  137OSM    C9S14905   5.243   0.121   7.436 -0.1093  0.3943  0.8760
  137OSM    H9S14906   5.270   0.227   7.416  0.5080 -0.1228 -1.1976
  137OSM    H9T14907   5.341   0.070   7.450  0.7476  1.7018 -0.1354
  137OSM   C10S14908   5.171   0.111   7.578 -0.1816 -0.2241  0.4747
  137OSM   H10S14909   5.140   0.005   7.575 -1.0366  0.0328 -0.4585
  137OSM   H10T14910   5.083   0.180   7.579  1.0072  1.3601  1.2304
  137OSM   C11S14911   5.257   0.137   7.698  0.1969  0.2279  0.2634
  137OSM   H11S14912   5.270   0.248   7.698  0.0862  0.2412  0.4374
  137OSM   H11T14913   5.359   0.094   7.683 -0.0683 -1.2272  2.3034
  137OSM   C12S14914   5.199   0.080   7.824 -0.0438  0.8702  0.3909
  137OSM   H12S14915   5.164  -0.023   7.801  1.7849  0.3291 -0.1507
  137OSM   H12T14916   5.098   0.126   7.838 -1.4466 -1.7049 -0.5841
  137OSM   C13S14917   5.291   0.103   7.948  0.0226  0.8291 -0.4404
  137OSM   H13S14918   5.298   0.212   7.968  2.8794  0.6912 -0.2634
  137OSM   H13T14919   5.393   0.065   7.926 -1.0544 -2.3341 -0.4774
  137OSM   C14S14920   5.240   0.024   8.066 -0.5057  0.1316 -0.4530
  137OSM   H14S14921   5.242  -0.084   8.043 -0.4943  0.4258 -1.8898
  137OSM   H14T14922   5.135   0.055   8.086 -1.2147 -1.7599 -1.0220
  137OSM   C15S14923   5.330   0.041   8.187 -0.2555  0.4126 -0.1192
  137OSM   H15S14924   5.407   0.115   8.156  0.3133 -0.1739 -0.1130
  137OSM   H15T14925   5.397  -0.046   8.200  2.1374  2.5976  4.9347
  137OSM   C16S14926   5.258   0.062   8.322  0.1336 -0.2623 -0.2948
  137OSM   H16S14927   5.333   0.055   8.404 -0.1088  0.2278 -0.0219
  137OSM   H16T14928   5.187  -0.021   8.343 -0.7575  0.4097 -0.5829
  137OSM   C17S14929   5.190   0.201   8.330  0.0009  0.0198 -0.5200
  137OSM   H17S14930   5.147   0.218   8.431  2.9894 -0.2779  0.9409
  137OSM   H17T14931   5.108   0.210   8.256 -0.0308  0.0636 -0.4808
  137OSM   C18S14932   5.294   0.318   8.319  0.4734 -0.2977 -0.0613
  137OSM   H18S14933   5.392   0.303   8.369 -0.0438 -2.2394  0.4423
  137OSM   H18T14934   5.247   0.411   8.357  0.0998 -0.0801 -1.0332
  137OSM   H18U14935   5.313   0.340   8.212 -0.8087  3.0430  0.2904
  137OSM    C1F14936   5.463   0.368   6.757  0.0219 -0.2899  0.7012
  137OSM     OF14937   5.446   0.409   6.642  0.3366  0.3550 -0.3362
  137OSM    C2F14938   5.453   0.470   6.861  0.3129  0.1277 -0.1379
  137OSM    H2F14939   5.478   0.432   6.963  2.0300 -1.6777 -1.1487
  137OSM    H2G14940   5.352   0.515   6.864  1.2565  2.3390  0.1210
  137OSM    C3F14941   5.554   0.583   6.838  0.1595 -0.4596 -0.8674
  137OSM    H3F14942   5.501   0.654   6.772  1.5919  0.2818 -1.2582
  137OSM    H3G14943   5.646   0.558   6.782  0.0142  3.0832 -2.9741
  137OSM    C4F14944   5.594   0.666   6.963  0.3755  0.4352  0.0815
  137OSM    H4F14945   5.637   0.762   6.928  0.8642  0.9186  1.9078
  137OSM    H4G14946   5.675   0.615   7.020  0.3987 -0.9377 -1.1273
  137OSM    C5F14947   5.476   0.691   7.061  0.0058  0.9222 -0.1219
  137OSM    H5F14948   5.435   0.595   7.098  0.1794  1.0701  0.4571
  137OSM    H5G14949   5.400   0.757   7.014  0.2772  1.5456  0.2945
  137OSM    C6F14950   5.520   0.760   7.194  0.0527 -0.0422 -0.2667
  137OSM    H6F14951   5.556   0.863   7.176 -0.0815  0.1927  0.7505
  137OSM    H6G14952   5.598   0.703   7.249 -1.0477 -0.8179  0.5344
  137OSM    C7F14953   5.390   0.786   7.273 -0.5856 -0.4762 -0.1402
  137OSM    H7F14954   5.345   0.688   7.301  2.1978 -1.7678  0.0817
  137OSM    H7G14955   5.319   0.839   7.206 -0.1748  0.8447  0.4198
  137OSM    C8F14956   5.394   0.872   7.403 -0.0760 -0.6896 -0.0596
  137OSM    H8F14957   5.458   0.831   7.484 -1.3757  0.2389  1.5141
  137OSM    H8G14958   5.286   0.872   7.431 -0.2364  1.5207 -0.5130
  137OSM    C9F14959   5.429   1.016   7.365 -0.1353  0.8128  0.0745
  137OSM    H9F14960   5.401   1.050   7.264 -1.6669  0.5394  0.3915
  137OSM   C10F14961   5.496   1.101   7.450  1.1991  0.4755 -0.3542
  137OSM   H10F14962   5.537   1.195   7.409  1.0301  0.4474 -0.5951
  137OSM   C11F14963   5.524   1.061   7.594 -0.3346 -0.4928  0.0015
  137OSM   H11F14964   5.633   1.047   7.609  0.2512  1.7630 -1.6339
  137OSM   H11G14965   5.492   0.963   7.635 -0.7310 -0.1761  0.4628
  137OSM   C12F14966   5.479   1.171   7.701  0.5376  0.5431 -0.9818
  137OSM   H12F14967   5.393   1.225   7.655  0.6762 -0.2318 -2.1848
  137OSM   H12G14968   5.563   1.241   7.722  0.0349  0.6194  1.0675
  137OSM   C13F14969   5.451   1.133   7.848  0.6142 -0.2941 -0.2311
  137OSM   H13F14970   5.541   1.077   7.880  1.2991  0.1225 -1.3677
  137OSM   H13G14971   5.363   1.066   7.853  0.0791  0.3477 -0.9057
  137OSM   C14F14972   5.437   1.262   7.945  0.3438  0.3442  0.0691
  137OSM   H14F14973   5.344   1.318   7.920  1.0652  0.6946 -2.0246
  137OSM   H14G14974   5.527   1.316   7.910  1.5161 -0.9986  0.9042
  137OSM   C15F14975   5.435   1.237   8.097  0.1323  0.2066  0.8871
  137OSM   H15F14976   5.522   1.171   8.120  0.6308  0.8202  0.8160
  137OSM   H15G14977   5.349   1.173   8.125  1.5888 -2.0131  0.6269
  137OSM   C16F14978   5.455   1.364   8.186 -1.0185  0.6160 -0.7078
  137OSM   H16F14979   5.374   1.439   8.178  0.4230  2.3934  0.4378
  137OSM   H16G14980   5.556   1.395   8.153  1.2836 -3.1387  1.9631
  137OSM   C17F14981   5.452   1.328   8.339 -0.1820 -0.2734 -0.4183
  137OSM   H17F14982   5.526   1.246   8.351  0.8261  0.2477 -2.5726
  137OSM   H17G14983   5.356   1.288   8.377 -0.6786 -0.0369 -1.4025
  137OSM   C18F14984   5.509   1.446   8.427  0.3540  0.0397 -0.1880
  137OSM   H18F14985   5.584   1.502   8.367  0.5952 -1.8886 -1.7864
  137OSM   H18G14986   5.545   1.409   8.525 -0.8707  1.3496  0.7959
  137OSM   H18H14987   5.427   1.517   8.451  0.4604 -0.2339  1.0214
  138OSM      N14988   5.142   2.110   6.009 -0.7069  0.0934  0.1600
  138OSM    C1514989   5.023   2.188   5.967 -0.2940 -0.2863  0.8297
  138OSM   H15A14990   4.952   2.195   6.048 -0.5342 -1.3452  0.7292
  138OSM   H15B14991   4.969   2.148   5.882  1.9819 -2.2518  0.2075
  138OSM   H15C14992   5.052   2.288   5.941 -2.7259 -0.0244 -1.2539
  138OSM    C1414993   5.113   1.963   6.004  0.3323  0.6783 -0.0710
  138OSM   H14A14994   5.078   1.931   5.907  0.4204 -0.5156  0.2796
  138OSM   H14B14995   5.053   1.922   6.085 -0.3482  0.2966 -0.7577
  138OSM   H14C14996   5.205   1.909   6.014 -0.1794 -0.1442  0.3438
  138OSM    C1314997   5.249   2.127   5.907  0.0850 -0.2915 -0.2124
  138OSM   H13A14998   5.336   2.065   5.923 -0.9145 -1.8370 -0.5317
  138OSM   H13B14999   5.276   2.231   5.899 -0.6535  0.0741  1.5699
  138OSM   H13C15000   5.209   2.099   5.810  1.8335 -0.5084 -0.9148
  138OSM    C1215001   5.189   2.148   6.148  0.3148  0.4115  0.3492
  138OSM   H12A15002   5.191   2.256   6.141 -2.4603  0.6080  1.4711
  138OSM   H12B15003   5.292   2.125   6.169  0.4171 -0.5284 -1.0422
  138OSM    C1115004   5.104   2.109   6.265  0.2876  0.2955  0.4151
  138OSM   H11A15005   5.157   2.126   6.361  1.7348 -0.9876 -0.1131
  138OSM   H11B15006   5.093   1.998   6.262 -0.4319  0.3869 -1.9710
  138OSM      P15007   4.954   2.328   6.276 -0.5049  0.4933  0.0673
  138OSM    O1315008   5.034   2.401   6.181 -0.6596  0.5869  0.2298
  138OSM    O1415009   4.807   2.357   6.272 -0.4338  0.8251  0.0197
  138OSM    O1115010   5.006   2.367   6.422 -0.0600 -0.0508  0.2455
  138OSM    O1215011   4.978   2.173   6.255 -0.1724  0.5968 -0.1125
  138OSM    C1S15012   4.985   2.280   6.531  0.3650 -0.8796 -0.4688
  138OSM    H1S15013   5.039   2.186   6.507 -4.7069 -4.2035 -0.4009
  138OSM    H1T15014   4.878   2.252   6.537  0.3250 -0.7004 -0.3429
  138OSM     NF15015   4.999   2.263   6.776 -0.2057  0.1425 -0.2104
  138OSM    HNF15016   4.912   2.276   6.823  0.3228  1.4727  0.4690
  138OSM    C2S15017   5.033   2.348   6.664  0.2991  0.0495 -0.6409
  138OSM    H2S15018   5.144   2.347   6.660  0.2990 -1.8862 -0.8717
  138OSM    C3S15019   4.976   2.489   6.681 -0.4932 -0.6580  0.7846
  138OSM    H3S15020   4.867   2.477   6.669 -0.9933  2.0255  1.9687
  138OSM     O315021   4.997   2.583   6.573  0.3811 -0.7429  0.1314
  138OSM    HO315022   5.023   2.520   6.506 -0.7974 -1.4609  0.3289
  138OSM    C4S15023   5.018   2.552   6.816 -0.4177 -0.1543 -0.0887
  138OSM    H4S15024   4.943   2.539   6.895  0.2617 -1.3944  0.3944
  138OSM    C5S15025   5.140   2.601   6.851  0.8349 -0.6942  0.2607
  138OSM    H5S15026   5.227   2.595   6.785  3.5696  0.5429  3.4651
  138OSM    C6S15027   5.176   2.648   6.992  0.6183  0.3860  0.7918
  138OSM    H6S15028   5.160   2.758   6.998  0.2968  0.3290  0.9917
  138OSM    H6T15029   5.282   2.621   7.010  0.7821 -0.4547 -1.1690
  138OSM    C7S15030   5.094   2.583   7.102  0.5514  0.4423 -0.0967
  138OSM    H7S15031   5.108   2.473   7.103  3.1528  0.7080 -0.1942
  138OSM    H7T15032   4.989   2.619   7.100  1.3352  3.4192  3.2761
  138OSM    C8S15033   5.138   2.642   7.239  0.1691  0.5677  1.0712
  138OSM    H8S15034   5.136   2.752   7.231  0.1028  0.4838 -0.5138
  138OSM    H8T15035   5.245   2.619   7.259  0.6475 -0.5030 -2.0692
  138OSM    C9S15036   5.058   2.583   7.352 -0.1865  0.0440  0.0937
  138OSM    H9S15037   5.055   2.472   7.349 -1.9257  0.0758 -2.5076
  138OSM    H9T15038   4.958   2.631   7.360 -0.3310 -0.4080  1.2281
  138OSM   C10S15039   5.124   2.612   7.487  0.3243 -0.0293  0.0485
  138OSM   H10S15040   5.150   2.720   7.486 -0.1292  0.0866 -0.9527
  138OSM   H10T15041   5.217   2.552   7.482  0.1382 -0.2492 -1.0987
  138OSM   C11S15042   5.043   2.564   7.607  0.3045 -0.1897 -0.9031
  138OSM   H11S15043   5.063   2.455   7.613 -0.0936 -0.1609  1.9897
  138OSM   H11T15044   4.934   2.586   7.596  0.5568  3.6759  2.0803
  138OSM   C12S15045   5.097   2.616   7.743  0.0523  0.4062 -0.2352
  138OSM   H12S15046   5.079   2.725   7.747 -0.7193  0.2470  0.9088
  138OSM   H12T15047   5.207   2.600   7.749  0.0409  0.8325  1.6911
  138OSM   C13S15048   5.031   2.543   7.864  0.0497  0.2601 -0.0283
  138OSM   H13S15049   5.060   2.436   7.850  1.0588  0.2602  1.8376
  138OSM   H13T15050   4.920   2.533   7.867  0.0161  0.7160  0.3160
  138OSM   C14S15051   5.075   2.599   8.002 -0.2865  0.5929 -0.3632
  138OSM   H14S15052   5.027   2.697   8.023  0.4365  1.6218 -3.0261
  138OSM   H14T15053   5.183   2.623   7.989  0.0872  0.0771  1.4987
  138OSM   C15S15054   5.052   2.493   8.106  0.0652 -0.1692 -0.0867
  138OSM   H15S15055   5.133   2.419   8.091  0.3617  0.0056  0.5963
  138OSM   H15T15056   4.953   2.443   8.100  1.4909 -3.1826 -0.4627
  138OSM   C16S15057   5.077   2.541   8.251 -0.3923  0.1139  0.1122
  138OSM   H16S15058   5.168   2.603   8.262 -0.4684  0.5484 -1.5172
  138OSM   H16T15059   5.087   2.457   8.323 -1.5505  0.7551  1.0474
  138OSM   C17S15060   4.963   2.627   8.303 -0.0850  0.2274 -0.2586
  138OSM   H17S15061   4.873   2.562   8.311  0.1783 -0.0145  0.9411
  138OSM   H17T15062   4.934   2.706   8.231 -2.7868 -0.7457 -0.3873
  138OSM   C18S15063   4.983   2.690   8.443 -0.2221  0.4858 -0.5171
  138OSM   H18S15064   5.048   2.779   8.431 -1.3281  1.3625 -0.1414
  138OSM   H18T15065   5.020   2.607   8.507 -3.4430 -0.2063  0.6819
  138OSM   H18U15066   4.888   2.722   8.491  0.9917  3.3013  0.1790
  138OSM    C1F15067   5.072   2.153   6.796 -0.2192  0.1807  0.5064
  138OSM     OF15068   5.167   2.123   6.718  0.3814 -0.0043 -1.0676
  138OSM    C2F15069   5.046   2.064   6.918  0.6251 -0.6595 -0.8461
  138OSM    H2F15070   5.137   2.011   6.953 -0.9659 -1.6881  2.1033
  138OSM    H2G15071   4.966   1.992   6.890 -0.1603  0.3414 -1.2110
  138OSM    C3F15072   5.016   2.164   7.046 -0.4410  0.5639 -0.4228
  138OSM    H3F15073   4.915   2.208   7.031 -0.5310  0.2605 -0.7305
  138OSM    H3G15074   5.096   2.242   7.045  0.9424 -0.8104 -0.8585
  138OSM    C4F15075   5.018   2.082   7.174  0.2291 -0.6936 -0.7246
  138OSM    H4F15076   5.116   2.030   7.178  1.1371  1.0213  2.1282
  138OSM    H4G15077   4.936   2.009   7.157  0.6039 -1.0682 -0.9452
  138OSM    C5F15078   4.991   2.164   7.303  0.4399  0.7548  0.0247
  138OSM    H5F15079   4.890   2.208   7.288  0.7316  0.9082 -1.5959
  138OSM    H5G15080   5.066   2.245   7.306  1.4732 -0.1551 -0.7205
  138OSM    C6F15081   5.001   2.078   7.431 -0.0389  0.7246 -0.9210
  138OSM    H6F15082   5.105   2.044   7.448 -1.7344 -4.0393  1.6503
  138OSM    H6G15083   4.939   1.986   7.430  1.6384 -0.5884  2.2662
  138OSM    C7F15084   4.959   2.160   7.558 -0.1054 -0.2396  0.3402
  138OSM    H7F15085   4.858   2.204   7.542  0.6889  1.5955  0.0863
  138OSM    H7G15086   5.032   2.243   7.553  0.4887 -0.8236 -1.0665
  138OSM    C8F15087   4.984   2.077   7.690  0.0317 -0.5907  0.2500
  138OSM    H8F15088   5.079   2.023   7.673 -0.9128 -1.9847 -0.7591
  138OSM    H8G15089   4.909   1.996   7.700 -1.0815  0.4891  0.9863
  138OSM    C9F15090   4.975   2.174   7.803  1.1062 -0.0538  0.0586
  138OSM    H9F15091   4.907   2.257   7.778  0.5703 -0.7406 -0.8351
  138OSM   C10F15092   5.021   2.167   7.926 -0.8064 -1.0138 -0.8881
  138OSM   H10F15093   4.993   2.246   7.996 -0.2069 -2.1103  0.6356
  138OSM   C11F15094   5.110   2.060   7.981 -0.5001 -0.0000 -0.0254
  138OSM   H11F15095   5.208   2.107   8.005  0.3859 -1.7158 -0.1448
  138OSM   H11G15096   5.137   1.985   7.904  2.4392 -0.6478  1.4759
  138OSM   C12F15097   5.037   1.980   8.096 -0.1181  0.0650  0.5758
  138OSM   H12F15098   4.930   1.955   8.076 -0.0715  0.4296 -0.1665
  138OSM   H12G15099   5.040   2.048   8.184 -3.4132  2.1516 -0.7197
  138OSM   C13F15100   5.117   1.855   8.124  0.2987  0.6127  0.6701
  138OSM   H13F15101   5.222   1.888   8.141  0.2261  2.6653 -2.1602
  138OSM   H13G15102   5.119   1.797   8.030 -0.7956  0.2022  0.8922
  138OSM   C14F15103   5.057   1.768   8.235  0.0702  0.2652  0.2190
  138OSM   H14F15104   4.964   1.720   8.199  0.0583  1.2821 -1.1582
  138OSM   H14G15105   5.028   1.828   8.324 -1.1521  0.6493 -0.4148
  138OSM   C15F15106   5.165   1.669   8.275 -0.7524 -0.4370 -0.0527
  138OSM   H15F15107   5.251   1.723   8.320  0.9510 -1.7839 -1.5236
  138OSM   H15G15108   5.204   1.631   8.178 -1.8856  2.9317 -2.0104
  138OSM   C16F15109   5.132   1.543   8.353 -0.3363  0.3656 -0.1672
  138OSM   H16F15110   5.218   1.473   8.368  0.2404  1.2733  0.9258
  138OSM   H16G15111   5.064   1.481   8.292  1.2908  0.4102 -2.1187
  138OSM   C17F15112   5.066   1.563   8.486  0.5822 -0.1354 -0.0534
  138OSM   H17F15113   4.956   1.559   8.470  0.7572 -1.7121 -1.1269
  138OSM   H17G15114   5.095   1.668   8.508  2.0298 -0.2738 -1.1369
  138OSM   C18F15115   5.094   1.451   8.577 -0.0615 -0.0875 -0.4762
  138OSM   H18F15116   5.062   1.352   8.539 -5.3781  1.3128 -0.3264
  138OSM   H18G15117   5.049   1.453   8.679  0.8202 -0.5437 -0.0651
  138OSM   H18H15118   5.205   1.447   8.588 -0.2686 -1.0393  1.9410
  139OSM      N15119   3.574   2.115   5.957 -0.0168 -0.4339  0.4367
  139OSM    C1515120   3.589   1.986   5.881  0.5686 -0.8365 -0.3305
  139OSM   H15A15121   3.498   1.975   5.824  1.1948  1.3703 -1.8842
  139OSM   H15B15122   3.596   1.902   5.949  0.0639 -0.7511 -0.1675
  139OSM   H15C15123   3.675   1.981   5.816  0.4433  0.7706 -0.6569
  139OSM    C1415124   3.656   2.218   5.877 -0.4814 -0.8885  0.4562
  139OSM   H14A15125   3.628   2.222   5.772  0.7734  1.6117  0.1522
  139OSM   H14B15126   3.761   2.193   5.873  0.0483  1.0699  1.0773
  139OSM   H14C15127   3.656   2.317   5.921 -1.7237  0.7751 -2.8956
  139OSM    C1315128   3.429   2.149   5.967 -0.0690 -0.1839  0.3426
  139OSM   H13A15129   3.388   2.065   6.022 -1.7437  1.0729  1.1373
  139OSM   H13B15130   3.385   2.159   5.869  1.9641  0.2696 -0.5713
  139OSM   H13C15131   3.407   2.237   6.026  1.2107  0.5020 -0.1742
  139OSM    C1215132   3.637   2.104   6.101 -0.2003 -0.1839  0.0871
  139OSM   H12A15133   3.744   2.089   6.094  0.4490  1.8296  3.4447
  139OSM   H12B15134   3.609   2.012   6.150 -3.4849  1.0331  0.7440
  139OSM    C1115135   3.628   2.223   6.203 -0.2770 -0.1851  0.0534
  139OSM   H11A15136   3.669   2.196   6.303 -1.9961 -0.3611  0.7668
  139OSM   H11B15137   3.520   2.247   6.217 -0.1870  2.0353 -2.4271
  139OSM      P15138   3.844   2.369   6.156  0.0289  0.3851 -0.4245
  139OSM    O1315139   3.904   2.239   6.105  0.8820 -0.1904 -0.3381
  139OSM    O1415140   3.883   2.490   6.076 -0.1552 -0.3981  0.4340
  139OSM    O1115141   3.881   2.388   6.310 -0.4544  0.4914 -0.4036
  139OSM    O1215142   3.685   2.343   6.150  0.0785 -0.8729 -0.3046
  139OSM    C1S15143   3.800   2.460   6.397 -0.8393  0.6132  0.4271
  139OSM    H1S15144   3.695   2.473   6.364 -1.3834 -1.0683  1.3383
  139OSM    H1T15145   3.840   2.563   6.397  1.3705 -0.1735  1.2461
  139OSM     NF15146   3.724   2.520   6.622  0.1166 -0.3848  0.0081
  139OSM    HNF15147   3.778   2.578   6.682 -1.0750  1.9428 -1.0744
  139OSM    C2S15148   3.785   2.409   6.547  0.3208 -0.4011 -0.0486
  139OSM    H2S15149   3.730   2.312   6.555  1.4003 -0.8865  3.6251
  139OSM    C3S15150   3.930   2.375   6.602 -0.4409 -0.2243  0.5737
  139OSM    H3S15151   3.997   2.462   6.585  2.4162 -1.8092  2.7528
  139OSM     O315152   3.996   2.271   6.526  0.0546 -0.1268  0.7787
  139OSM    HO315153   3.956   2.291   6.441 -0.5481 -0.3414  1.0086
  139OSM    C4S15154   3.930   2.326   6.748 -0.6878 -0.9383  0.5828
  139OSM    H4S15155   3.951   2.404   6.822 -1.6942  0.8298 -0.8951
  139OSM    C5S15156   3.905   2.203   6.796  0.4218  0.0136 -0.0069
  139OSM    H5S15157   3.881   2.114   6.735  0.0443 -1.1217  1.7102
  139OSM    C6S15158   3.897   2.156   6.942 -0.6820  0.3756 -0.4350
  139OSM    H6S15159   3.994   2.109   6.968 -0.8037  0.0338 -0.5945
  139OSM    H6T15160   3.828   2.070   6.951 -0.1198 -0.1487 -1.0020
  139OSM    C7S15161   3.880   2.255   7.055  0.0262 -0.5177 -0.1106
  139OSM    H7S15162   3.794   2.321   7.031 -0.8808 -1.6890 -0.1130
  139OSM    H7T15163   3.967   2.324   7.060 -0.6009  0.1830  1.5764
  139OSM    C8S15164   3.855   2.193   7.197  0.1322 -0.1455 -0.0517
  139OSM    H8S15165   3.935   2.117   7.202 -0.1410 -0.6204 -1.9464
  139OSM    H8T15166   3.751   2.154   7.199 -0.6586  1.8711 -0.0129
  139OSM    C9S15167   3.881   2.302   7.298  0.0873  0.0324 -0.0976
  139OSM    H9S15168   3.842   2.403   7.271 -0.3951 -0.3098 -0.7272
  139OSM    H9T15169   3.991   2.309   7.311  0.3278 -1.5998 -0.9700
  139OSM   C10S15170   3.822   2.266   7.434  0.6257 -0.2176  0.4677
  139OSM   H10S15171   3.826   2.157   7.455  0.8672 -0.5032 -0.9920
  139OSM   H10T15172   3.717   2.305   7.433  1.3139  1.7393  0.2328
  139OSM   C11S15173   3.888   2.335   7.552  0.0069  0.3520 -0.1347
  139OSM   H11S15174   3.897   2.441   7.520  0.7869 -0.2868 -2.1918
  139OSM   H11T15175   3.994   2.302   7.561  0.0707  0.5036 -0.3169
  139OSM   C12S15176   3.833   2.315   7.691  0.2942 -0.1554  0.0847
  139OSM   H12S15177   3.783   2.218   7.711  1.4213 -1.3234 -2.3546
  139OSM   H12T15178   3.746   2.382   7.706 -0.1276 -0.8785  0.9852
  139OSM   C13S15179   3.930   2.348   7.803  0.4216  0.0944 -0.4267
  139OSM   H13S15180   3.970   2.449   7.780 -1.3534  1.1676  0.9933
  139OSM   H13T15181   4.012   2.273   7.809  0.4903  0.2558  1.4007
  139OSM   C14S15182   3.869   2.356   7.943 -0.6262 -0.1952 -0.2536
  139OSM   H14S15183   3.818   2.260   7.968 -0.2218 -0.8260 -1.7742
  139OSM   H14T15184   3.787   2.431   7.936  0.6812  1.1326 -1.8824
  139OSM   C15S15185   3.959   2.393   8.064 -0.1733  0.0615 -0.0609
  139OSM   H15S15186   4.041   2.318   8.062 -2.1989 -2.2570 -1.4441
  139OSM   H15T15187   3.900   2.381   8.158  2.9357  0.1144  2.0529
  139OSM   C16S15188   4.021   2.534   8.057  0.2570 -0.3364  0.2772
  139OSM   H16S15189   3.945   2.613   8.042 -1.2938 -1.3259  2.4635
  139OSM   H16T15190   4.099   2.534   7.978  1.1848  0.3171  1.1507
  139OSM   C17S15191   4.096   2.572   8.181 -0.3659 -0.2174  0.1430
  139OSM   H17S15192   4.170   2.493   8.208 -0.1526  0.2189  0.8574
  139OSM   H17T15193   4.049   2.588   8.280  4.1257  2.1604  2.2151
  139OSM   C18S15194   4.173   2.706   8.160  0.2655 -0.3792 -0.0664
  139OSM   H18S15195   4.226   2.735   8.253 -2.8166 -0.7133  1.9455
  139OSM   H18T15196   4.092   2.782   8.151  2.4686  1.8828 -2.8705
  139OSM   H18U15197   4.230   2.707   8.065  2.3440  1.3578  1.0903
  139OSM    C1F15198   3.597   2.555   6.595 -0.3602 -0.6926 -0.1791
  139OSM     OF15199   3.532   2.478   6.534  0.3263 -0.0963  0.3269
  139OSM    C2F15200   3.549   2.684   6.650 -0.7335  0.6445  0.5580
  139OSM    H2F15201   3.580   2.768   6.584  2.1073 -1.2073 -0.6480
  139OSM    H2G15202   3.607   2.701   6.744  1.9436 -3.2094 -0.1764
  139OSM    C3F15203   3.394   2.687   6.669  0.9134  0.9359 -0.0376
  139OSM    H3F15204   3.342   2.649   6.578  1.3773  0.3237 -0.0544
  139OSM    H3G15205   3.382   2.797   6.680 -2.9697  0.6980 -0.6212
  139OSM    C4F15206   3.341   2.609   6.793  0.0890 -0.3562 -0.2621
  139OSM    H4F15207   3.349   2.502   6.763  1.5994  0.0896 -1.5898
  139OSM    H4G15208   3.232   2.627   6.799  0.1206  0.8478 -2.2536
  139OSM    C5F15209   3.417   2.638   6.922  0.8284  0.3878 -0.1608
  139OSM    H5F15210   3.445   2.745   6.924  0.1316  0.6062  2.7292
  139OSM    H5G15211   3.504   2.569   6.923  0.0435 -0.6697  1.8780
  139OSM    C6F15212   3.336   2.606   7.044 -0.2976 -0.0070  0.5300
  139OSM    H6F15213   3.333   2.495   7.045  0.9160 -0.0467  0.7736
  139OSM    H6G15214   3.230   2.639   7.034 -0.4447 -1.0504 -2.0678
  139OSM    C7F15215   3.396   2.653   7.175  0.1771 -0.4627  0.4140
  139OSM    H7F15216   3.307   2.674   7.237  1.8406 -1.4610  3.3089
  139OSM    H7G15217   3.444   2.751   7.153  0.1954 -0.3061  1.1375
  139OSM    C8F15218   3.494   2.560   7.242  0.3446 -0.1490  0.1102
  139OSM    H8F15219   3.555   2.619   7.314 -0.4185  0.7009  0.0694
  139OSM    H8G15220   3.560   2.520   7.163 -0.7961 -0.2052 -0.8356
  139OSM    C9F15221   3.435   2.438   7.311  0.2790  0.3234 -0.0335
  139OSM    H9F15222   3.416   2.355   7.241  0.0002 -1.6122  2.1974
  139OSM   C10F15223   3.415   2.409   7.437  0.8895  0.2559 -0.3248
  139OSM   H10F15224   3.350   2.324   7.461  0.4571  0.1869 -1.6795
  139OSM   C11F15225   3.466   2.487   7.553 -0.2285  0.0614  0.1905
  139OSM   H11F15226   3.551   2.552   7.528  1.1071 -0.8943  2.0164
  139OSM   H11G15227   3.500   2.417   7.632  1.0597  0.1543 -0.2722
  139OSM   C12F15228   3.361   2.585   7.620  0.2770 -0.7666  0.5802
  139OSM   H12F15229   3.279   2.518   7.654  0.5072 -2.0489 -1.2241
  139OSM   H12G15230   3.322   2.654   7.541  0.9493  0.7456  1.5265
  139OSM   C13F15231   3.412   2.680   7.738  0.3378  0.1735  0.1275
  139OSM   H13F15232   3.325   2.735   7.782  1.5966  0.1925  2.8369
  139OSM   H13G15233   3.475   2.763   7.699  2.2027 -2.1174 -2.0349
  139OSM   C14F15234   3.498   2.605   7.840  0.6447 -0.2413 -0.5157
  139OSM   H14F15235   3.598   2.571   7.805  0.2768 -1.4973 -0.4044
  139OSM   H14G15236   3.445   2.508   7.854 -0.6491  0.5219  0.0721
  139OSM   C15F15237   3.513   2.671   7.976 -0.0749  0.3959 -0.5206
  139OSM   H15F15238   3.546   2.775   7.960 -0.5025  0.6148 -0.0046
  139OSM   H15G15239   3.594   2.626   8.038 -0.1031 -2.1036 -2.1737
  139OSM   C16F15240   3.387   2.673   8.063 -0.1428 -0.2709 -0.2528
  139OSM   H16F15241   3.316   2.734   8.004  0.3317  0.1634 -0.3840
  139OSM   H16G15242   3.401   2.732   8.157  3.8649  0.9335 -1.4117
  139OSM   C17F15243   3.311   2.542   8.083  0.2508 -0.2281  0.6690
  139OSM   H17F15244   3.368   2.472   8.147 -0.5077  1.0867  2.8924
  139OSM   H17G15245   3.286   2.498   7.984 -0.1823  1.7497 -0.1465
  139OSM   C18F15246   3.174   2.574   8.153  0.2031 -0.4933 -0.4244
  139OSM   H18F15247   3.189   2.571   8.263  1.7745  0.2061 -0.6032
  139OSM   H18G15248   3.104   2.489   8.137  2.4514 -2.4304 -0.5118
  139OSM   H18H15249   3.115   2.658   8.111  0.7057  0.4920  0.7757
  140OSM      N15250   4.869   4.625   6.060 -0.3926  0.1041 -0.0575
  140OSM    C1515251   4.819   4.617   5.917 -0.6639  0.7219 -0.1300
  140OSM   H15A15252   4.728   4.675   5.905 -0.0588  2.2802  2.2957
  140OSM   H15B15253   4.816   4.516   5.879  1.1575  0.0035  1.5200
  140OSM   H15C15254   4.890   4.664   5.849  2.2067 -3.4926 -0.3994
  140OSM    C1415255   4.766   4.573   6.151 -0.0455 -0.2579 -0.6010
  140OSM   H14A15256   4.672   4.618   6.120 -0.8202 -2.9459 -2.5074
  140OSM   H14B15257   4.777   4.612   6.252  1.4967 -1.7799 -0.1435
  140OSM   H14C15258   4.767   4.465   6.149  5.3837 -0.4993  1.0648
  140OSM    C1315259   4.989   4.538   6.082  0.2715 -0.0171 -0.2251
  140OSM   H13A15260   4.996   4.524   6.189  1.3527  1.7877 -0.0287
  140OSM   H13B15261   5.081   4.579   6.042 -0.3871  0.7923 -0.9495
  140OSM   H13C15262   4.973   4.438   6.043  0.7917 -0.3496  0.4004
  140OSM    C1215263   4.885   4.768   6.115 -0.0269 -0.2351  0.6089
  140OSM   H12A15264   4.793   4.823   6.101  0.7918  0.7529 -1.2201
  140OSM   H12B15265   4.955   4.819   6.050  1.1844 -3.4873 -0.8334
  140OSM    C1115266   4.927   4.791   6.268 -0.1888 -0.0546 -0.0728
  140OSM   H11A15267   4.974   4.891   6.273  0.4758 -0.2458 -1.6622
  140OSM   H11B15268   5.005   4.716   6.294  1.7644  1.5714 -0.9513
  140OSM      P15269   4.713   4.877   6.372 -0.3358  0.5914  0.3492
  140OSM    O1315270   4.662   4.923   6.239  0.1176  0.2534  0.0245
  140OSM    O1415271   4.611   4.826   6.468 -0.0525 -0.0032  0.3204
  140OSM    O1115272   4.791   5.005   6.446 -0.6855  0.2213  0.5856
  140OSM    O1215273   4.819   4.763   6.356  0.6913 -0.5041 -0.0932
  140OSM    C1S15274   4.897   4.969   6.541 -0.4626 -0.1143  0.7255
  140OSM    H1S15275   4.989   4.934   6.489 -0.8649 -0.6243  0.3506
  140OSM    H1T15276   4.854   4.888   6.603  0.7895 -1.2578  0.1684
  140OSM     NF15277   5.041   5.058   6.723  0.6365  0.3842 -0.7988
  140OSM    HNF15278   5.012   5.043   6.817 -4.3382  1.0198 -1.9942
  140OSM    C2S15279   4.930   5.085   6.633  0.5278 -0.2550  0.0466
  140OSM    H2S15280   4.971   5.163   6.564  3.5165 -2.4743 -0.9116
  140OSM    C3S15281   4.791   5.147   6.691  0.4908 -0.6707 -0.4649
  140OSM    H3S15282   4.727   5.070   6.739 -2.3095  2.0526  0.5274
  140OSM     O315283   4.712   5.206   6.592  0.4210 -0.0901 -0.3470
  140OSM    HO315284   4.751   5.166   6.514  1.0475 -2.3083  1.0107
  140OSM    C4S15285   4.819   5.245   6.801  0.1531 -0.0685 -0.1286
  140OSM    H4S15286   4.826   5.198   6.900  0.0746 -1.4446 -0.7515
  140OSM    C5S15287   4.854   5.376   6.786 -0.1639  0.2729  0.6450
  140OSM    H5S15288   4.877   5.417   6.687  1.0506 -0.3820  0.6339
  140OSM    C6S15289   4.897   5.458   6.904  0.5905 -0.4232 -0.2505
  140OSM    H6S15290   4.837   5.551   6.906  0.1594 -0.6991 -0.1165
  140OSM    H6T15291   5.001   5.489   6.885  1.2039 -2.3090 -0.1747
  140OSM    C7S15292   4.880   5.407   7.049  0.7636  0.4557 -1.0296
  140OSM    H7S15293   4.943   5.317   7.065 -2.1580 -1.4270  0.9290
  140OSM    H7T15294   4.772   5.381   7.051  0.1228  2.6246 -2.6668
  140OSM    C8S15295   4.916   5.518   7.158 -0.0934  0.1280 -0.1030
  140OSM    H8S15296   4.888   5.617   7.116 -0.5236  0.0299 -0.0529
  140OSM    H8T15297   5.025   5.521   7.182  0.3571  0.1783 -2.0062
  140OSM    C9S15298   4.830   5.498   7.290  0.0192  0.3829 -0.3991
  140OSM    H9S15299   4.757   5.416   7.271 -1.2171  1.5156 -0.6559
  140OSM    H9T15300   4.764   5.580   7.324 -1.4059 -0.9301  0.1509
  140OSM   C10S15301   4.924   5.476   7.414  0.5569  0.9359  0.3872
  140OSM   H10S15302   4.963   5.576   7.442  1.1882  0.3064  1.8365
  140OSM   H10T15303   5.010   5.419   7.373 -0.7145 -0.7231 -0.0870
  140OSM   C11S15304   4.855   5.403   7.530  0.5268 -0.0662 -0.2777
  140OSM   H11S15305   4.821   5.299   7.513 -1.4521  0.5182 -0.1001
  140OSM   H11T15306   4.761   5.456   7.558  0.1073 -0.4953 -0.8499
  140OSM   C12S15307   4.942   5.401   7.652  0.0631 -0.1043 -0.1290
  140OSM   H12S15308   4.959   5.500   7.699 -0.1932  0.1446 -0.5579
  140OSM   H12T15309   5.042   5.356   7.639 -1.1035 -2.4813 -1.5034
  140OSM   C13S15310   4.873   5.308   7.764 -0.6793 -0.0805  0.0785
  140OSM   H13S15311   4.859   5.211   7.712 -1.0486  0.5798 -1.0892
  140OSM   H13T15312   4.781   5.368   7.783  0.2877  1.0719  1.3606
  140OSM   C14S15313   4.951   5.286   7.886 -0.9073 -0.6321  0.0821
  140OSM   H14S15314   4.965   5.386   7.932  0.0024 -0.2561 -0.9949
  140OSM   H14T15315   5.053   5.247   7.869 -0.1823  0.1912  2.1939
  140OSM   C15S15316   4.871   5.191   7.976  0.6131  0.1964  0.0077
  140OSM   H15S15317   4.886   5.089   7.935 -0.7989 -0.5533  1.2747
  140OSM   H15T15318   4.762   5.209   7.972  0.6634  0.2964 -1.5250
  140OSM   C16S15319   4.925   5.197   8.118  0.1739  0.5036 -0.2832
  140OSM   H16S15320   4.927   5.305   8.142  0.6408  0.2739  0.8114
  140OSM   H16T15321   5.027   5.153   8.114 -0.2205 -0.3470 -2.2296
  140OSM   C17S15322   4.847   5.117   8.231 -0.2387  0.9158 -0.0355
  140OSM   H17S15323   4.741   5.146   8.244 -1.2641 -2.8066  1.0660
  140OSM   H17T15324   4.901   5.140   8.326 -1.3243 -1.3775  1.2172
  140OSM   C18S15325   4.839   4.964   8.199 -0.1596 -0.2822  0.2709
  140OSM   H18S15326   4.941   4.922   8.187 -0.5583 -1.0842 -0.4169
  140OSM   H18T15327   4.778   4.942   8.109 -1.4057  4.5942 -0.3709
  140OSM   H18U15328   4.784   4.904   8.275  0.8278 -0.9153  0.5113
  140OSM    C1F15329   5.169   5.033   6.684  0.6405 -0.2893 -0.5285
  140OSM     OF15330   5.199   5.029   6.566 -0.2202  0.2683 -0.1749
  140OSM    C2F15331   5.269   5.008   6.794  0.0097  0.0875 -0.6017
  140OSM    H2F15332   5.234   4.937   6.872 -1.8813  1.6263  0.0514
  140OSM    H2G15333   5.281   5.101   6.855 -0.6266 -0.1985 -0.0211
  140OSM    C3F15334   5.398   4.963   6.728 -0.1690  0.4459 -0.4693
  140OSM    H3F15335   5.438   5.031   6.649  1.3734  0.3345  0.1846
  140OSM    H3G15336   5.388   4.863   6.681  0.0053 -1.0791  2.5019
  140OSM    C4F15337   5.502   4.951   6.845 -0.6346 -0.3741  0.4426
  140OSM    H4F15338   5.590   4.889   6.818 -0.6255 -0.2988  0.3016
  140OSM    H4G15339   5.450   4.914   6.936 -0.2672  0.8048  1.1420
  140OSM    C5F15340   5.556   5.090   6.893  0.8455  0.7687 -0.4793
  140OSM    H5F15341   5.464   5.149   6.915  0.9763  0.4428  1.0400
  140OSM    H5G15342   5.612   5.148   6.817  0.7103  0.7039 -0.6271
  140OSM    C6F15343   5.659   5.087   7.004  0.1168 -0.4619  0.2540
  140OSM    H6F15344   5.673   5.195   7.026 -3.4327 -0.0430  1.0854
  140OSM    H6G15345   5.756   5.042   6.973  0.4303  0.6184 -0.3698
  140OSM    C7F15346   5.609   5.027   7.135 -0.0282 -0.0638  0.2282
  140OSM    H7F15347   5.597   4.917   7.124 -3.0661  0.1752  0.2222
  140OSM    H7G15348   5.509   5.062   7.167  0.5803  1.5063  0.4891
  140OSM    C8F15349   5.686   5.071   7.264 -0.1390 -0.3855 -1.0563
  140OSM    H8F15350   5.625   5.032   7.349  2.7512 -0.8699  0.9173
  140OSM    H8G15351   5.704   5.181   7.268  0.0408 -0.4403 -0.0522
  140OSM    C9F15352   5.809   4.992   7.269 -0.4153 -0.0484  0.0858
  140OSM    H9F15353   5.898   5.047   7.234 -0.3535  0.6686  1.3077
  140OSM   C10F15354   5.821   4.872   7.327  0.4403 -0.2953 -0.0001
  140OSM   H10F15355   5.924   4.835   7.334  0.8819  0.6775 -1.1205
  140OSM   C11F15356   5.710   4.789   7.394  0.9164  0.2084  0.2524
  140OSM   H11F15357   5.716   4.684   7.359 -0.9347  0.8509 -2.3345
  140OSM   H11G15358   5.609   4.828   7.369  1.2859  1.5094  0.7202
  140OSM   C12F15359   5.712   4.757   7.544 -0.0287 -0.6783 -0.0304
  140OSM   H12F15360   5.642   4.676   7.576  0.5088 -1.4540 -0.7767
  140OSM   H12G15361   5.667   4.844   7.597 -2.0158 -1.4083 -0.4358
  140OSM   C13F15362   5.845   4.715   7.606 -0.1491  0.2078 -0.4717
  140OSM   H13F15363   5.914   4.801   7.591  0.9445 -0.5886 -0.1101
  140OSM   H13G15364   5.883   4.630   7.545  0.0822  1.1807 -1.7125
  140OSM   C14F15365   5.838   4.667   7.752  0.0783 -0.0262 -0.1031
  140OSM   H14F15366   5.773   4.577   7.761  1.1378 -1.4452 -4.3759
  140OSM   H14G15367   5.794   4.755   7.804  1.3096  0.4545  0.1646
  140OSM   C15F15368   5.974   4.630   7.811  0.8204 -0.2426 -0.1307
  140OSM   H15F15369   6.028   4.726   7.828  3.1113 -1.2363 -1.3593
  140OSM   H15G15370   6.030   4.570   7.736 -0.2043 -0.4380 -0.7610
  140OSM   C16F15371   5.965   4.561   7.952  0.0416  0.7631 -0.3912
  140OSM   H16F15372   6.065   4.514   7.964  0.6206  1.8445 -0.8389
  140OSM   H16G15373   5.900   4.472   7.942 -0.9950  1.1230  2.2590
  140OSM   C17F15374   5.936   4.646   8.075  0.7944 -0.3670  0.1033
  140OSM   H17F15375   5.923   4.581   8.164 -3.7178  0.9138  0.6028
  140OSM   H17G15376   5.836   4.692   8.060  1.4410  0.7270 -1.0356
  140OSM   C18F15377   6.032   4.759   8.107  0.2748  0.5066  0.1224
  140OSM   H18F15378   6.139   4.730   8.099 -0.1767 -0.8057 -2.7952
  140OSM   H18G15379   6.002   4.805   8.203  0.1222  1.0639 -0.1894
  140OSM   H18H15380   6.026   4.831   8.023 -0.1256  0.8138  0.4117
  141OSM      N15381   3.669   6.359   6.053  0.4166 -0.2797  0.1091
  141OSM    C1515382   3.781   6.357   5.962 -0.3823 -0.2107  0.1888
  141OSM   H15A15383   3.869   6.323   6.014 -1.9965 -1.0045  2.5805
  141OSM   H15B15384   3.797   6.461   5.941  0.0109 -0.2947  0.0524
  141OSM   H15C15385   3.754   6.307   5.869 -1.1924  1.0865 -0.3028
  141OSM    C1415386   3.532   6.386   5.992  0.5116  0.0987 -0.3473
  141OSM   H14A15387   3.515   6.490   5.969 -0.7568  0.1131  0.5185
  141OSM   H14B15388   3.456   6.366   6.066  0.3319  1.1012 -0.2450
  141OSM   H14C15389   3.521   6.325   5.903  0.2600  0.8475 -0.8371
  141OSM    C1315390   3.652   6.219   6.108 -0.6141 -0.0563  0.6753
  141OSM   H13A15391   3.563   6.208   6.168 -2.1133  0.3601 -1.3754
  141OSM   H13B15392   3.742   6.184   6.158  0.8981  0.8913 -1.2698
  141OSM   H13C15393   3.636   6.158   6.021 -0.7715  1.9653 -0.7765
  141OSM    C1215394   3.697   6.455   6.167  0.4085 -0.1449 -0.8335
  141OSM   H12A15395   3.791   6.422   6.210  0.7136 -0.3572 -1.6266
  141OSM   H12B15396   3.614   6.445   6.235 -0.7598 -1.2739 -2.3506
  141OSM    C1115397   3.700   6.608   6.143  0.4429  0.0569 -0.0578
  141OSM   H11A15398   3.702   6.650   6.246  1.6497  0.2409 -0.1418
  141OSM   H11B15399   3.599   6.634   6.105  0.6193 -0.1673 -0.6950
  141OSM      P15400   3.939   6.720   6.100 -0.1229  0.0973 -0.5639
  141OSM    O1315401   4.041   6.615   6.085  0.0693 -0.3425 -0.1857
  141OSM    O1415402   3.963   6.843   6.025 -0.1715 -0.0854  0.3212
  141OSM    O1115403   3.918   6.757   6.257  0.7166 -0.0565 -0.0705
  141OSM    O1215404   3.801   6.653   6.053  0.0804 -0.7275 -0.4377
  141OSM    C1S15405   4.031   6.763   6.340  0.1158 -0.3977  0.0340
  141OSM    H1S15406   4.092   6.855   6.325 -0.1715 -0.4687 -1.9476
  141OSM    H1T15407   4.095   6.673   6.324 -1.0488 -1.4583  1.1940
  141OSM     NF15408   4.055   6.816   6.592 -0.2083  0.1294  0.3339
  141OSM    HNF15409   4.108   6.758   6.653  1.0566 -1.5063 -2.1385
  141OSM    C2S15410   3.979   6.749   6.491  0.3301  0.3333  0.1353
  141OSM    H2S15411   3.878   6.794   6.505  1.2113  1.9778  1.5573
  141OSM    C3S15412   3.964   6.593   6.515 -0.0093 -1.1783  0.0753
  141OSM    H3S15413   4.067   6.552   6.528 -0.8331 -3.0831  0.8392
  141OSM     O315414   3.902   6.522   6.401 -0.2488  0.7296 -0.2468
  141OSM    HO315415   3.883   6.588   6.334 -0.6897  0.3716 -0.4733
  141OSM    C4S15416   3.884   6.565   6.640  0.0945  0.3669 -0.2157
  141OSM    H4S15417   3.931   6.606   6.730 -0.7419  1.9307 -0.4725
  141OSM    C5S15418   3.768   6.501   6.663  0.1741  0.1027  0.4319
  141OSM    H5S15419   3.720   6.434   6.591  2.0925 -0.1599 -0.6812
  141OSM    C6S15420   3.691   6.494   6.795  0.5573 -0.4714 -0.1817
  141OSM    H6S15421   3.583   6.505   6.770 -0.1745 -1.0958  2.4333
  141OSM    H6T15422   3.715   6.576   6.866  2.1558  1.5942 -2.8962
  141OSM    C7S15423   3.732   6.361   6.849  0.5215  0.5366 -0.3868
  141OSM    H7S15424   3.836   6.371   6.886 -0.1572 -0.4762  1.9420
  141OSM    H7T15425   3.728   6.286   6.766 -2.2582 -1.1346  1.1020
  141OSM    C8S15426   3.636   6.308   6.958 -0.0671  0.7095 -0.3046
  141OSM    H8S15427   3.647   6.198   6.966 -2.1793  0.5806  1.9817
  141OSM    H8T15428   3.533   6.332   6.925 -0.1199 -0.9778 -1.4575
  141OSM    C9S15429   3.657   6.351   7.108  0.4940 -0.4354 -0.5362
  141OSM    H9S15430   3.562   6.331   7.161  1.4481  0.1565  1.5102
  141OSM    H9T15431   3.680   6.459   7.124 -0.9403 -0.5900  3.6468
  141OSM   C10S15432   3.770   6.275   7.169  0.1097 -0.2318  0.3103
  141OSM   H10S15433   3.872   6.294   7.128  1.8823 -2.1369  3.4146
  141OSM   H10T15434   3.763   6.166   7.149  1.4486 -0.4526  0.9262
  141OSM   C11S15435   3.762   6.274   7.325 -0.3541  0.7324 -0.3787
  141OSM   H11S15436   3.835   6.198   7.360  1.0266  1.8624 -0.7077
  141OSM   H11T15437   3.654   6.257   7.342 -0.3190  0.6087 -0.2826
  141OSM   C12S15438   3.809   6.404   7.386  0.2259  0.4216  0.1118
  141OSM   H12S15439   3.729   6.475   7.356 -0.2666  1.0994  2.8129
  141OSM   H12T15440   3.898   6.427   7.323 -1.6781  0.7220 -2.6916
  141OSM   C13S15441   3.832   6.392   7.531  0.3964 -0.1941  0.4770
  141OSM   H13S15442   3.874   6.486   7.573 -0.7211 -0.6698  2.8362
  141OSM   H13T15443   3.910   6.314   7.539  0.9659  0.3038 -0.1026
  141OSM   C14S15444   3.700   6.355   7.606 -0.2127 -0.5466 -0.5756
  141OSM   H14S15445   3.639   6.279   7.552  0.0192 -1.7329  0.7685
  141OSM   H14T15446   3.631   6.442   7.608  1.7932  1.1229 -0.7313
  141OSM   C15S15447   3.734   6.300   7.748  0.4837  0.2177 -0.2299
  141OSM   H15S15448   3.801   6.211   7.746 -0.1593 -0.4811  3.1651
  141OSM   H15T15449   3.635   6.262   7.783  0.2765  1.3731  0.4545
  141OSM   C16S15450   3.792   6.398   7.852  1.0149 -0.4076 -0.3144
  141OSM   H16S15451   3.717   6.478   7.871  0.4398 -0.6455 -1.5025
  141OSM   H16T15452   3.880   6.449   7.808  0.5893  2.9985  2.2725
  141OSM   C17S15453   3.832   6.325   7.985 -0.4435 -0.7758  0.0389
  141OSM   H17S15454   3.916   6.255   7.969  0.9318  0.3438  1.9342
  141OSM   H17T15455   3.741   6.273   8.023 -0.7285  0.1710  0.6920
  141OSM   C18S15456   3.883   6.425   8.104  0.6187  0.4041 -0.2416
  141OSM   H18S15457   3.880   6.384   8.207  0.1639 -1.6435 -1.0167
  141OSM   H18T15458   3.817   6.514   8.104  1.9722  1.4617  1.0134
  141OSM   H18U15459   3.987   6.460   8.088  2.5544 -2.3014  4.3739
  141OSM    C1F15460   4.075   6.944   6.587 -0.2986 -0.0463 -0.0896
  141OSM     OF15461   3.994   7.020   6.538 -0.6087  0.1849  0.2851
  141OSM    C2F15462   4.202   6.993   6.647  0.4238  0.1438  1.1218
  141OSM    H2F15463   4.271   7.015   6.563 -0.9099  1.3760  0.2947
  141OSM    H2G15464   4.251   6.919   6.714  0.8680 -1.0201 -0.4367
  141OSM    C3F15465   4.180   7.123   6.728 -0.3376  0.4851 -0.0502
  141OSM    H3F15466   4.150   7.205   6.659 -1.0605  1.2516  1.1296
  141OSM    H3G15467   4.279   7.145   6.773  1.1441 -2.0988 -1.8267
  141OSM    C4F15468   4.079   7.101   6.846  0.3699 -0.4029 -0.1107
  141OSM    H4F15469   4.117   7.016   6.906  1.4291 -1.4732 -2.1848
  141OSM    H4G15470   3.973   7.083   6.816 -0.4954 -0.7497  2.8306
  141OSM    C5F15471   4.061   7.217   6.946  0.4170  0.2371  0.1936
  141OSM    H5F15472   4.026   7.314   6.904 -0.0474  1.0658  2.3475
  141OSM    H5G15473   4.160   7.244   6.987  1.0792 -0.6275 -0.7962
  141OSM    C6F15474   3.975   7.168   7.066 -0.1249 -0.2608  0.1663
  141OSM    H6F15475   3.887   7.104   7.046 -0.5924 -0.0057  1.2793
  141OSM    H6G15476   3.943   7.268   7.103 -0.5743 -0.4702  0.3503
  141OSM    C7F15477   4.053   7.104   7.183 -0.3987  0.1613 -0.8734
  141OSM    H7F15478   4.158   7.138   7.181 -0.1151 -0.6123 -0.0927
  141OSM    H7G15479   4.052   6.996   7.159  0.0250  0.1614 -0.8825
  141OSM    C8F15480   4.012   7.143   7.325 -0.1883  0.1403 -0.4133
  141OSM    H8F15481   3.903   7.123   7.335 -0.4956  1.8873  0.0267
  141OSM    H8G15482   4.028   7.253   7.336  2.0761  0.2743 -3.5917
  141OSM    C9F15483   4.083   7.058   7.431 -0.0690  0.0396 -0.7029
  141OSM    H9F15484   4.114   6.961   7.391  0.4782  0.6443 -1.7791
  141OSM   C10F15485   4.125   7.100   7.550 -0.0395  0.1168  0.3535
  141OSM   H10F15486   4.155   7.029   7.628 -0.8624 -1.3688 -0.6277
  141OSM   C11F15487   4.116   7.239   7.598  0.4740  0.6389 -0.3868
  141OSM   H11F15488   4.167   7.312   7.532 -0.5136 -0.2723 -2.2472
  141OSM   H11G15489   4.162   7.242   7.699  0.2787  1.0838 -0.3123
  141OSM   C12F15490   3.975   7.291   7.619 -0.2864  0.2829 -0.7255
  141OSM   H12F15491   3.899   7.232   7.675  1.3484  0.0410  1.3435
  141OSM   H12G15492   3.927   7.294   7.519  1.2077 -1.9032 -1.5919
  141OSM   C13F15493   3.963   7.438   7.681  0.0737  0.8380  0.2906
  141OSM   H13F15494   4.020   7.505   7.614 -0.9334  0.6874 -0.7594
  141OSM   H13G15495   4.011   7.445   7.780  0.3258  1.1442  0.1481
  141OSM   C14F15496   3.817   7.482   7.700  0.1994 -0.2270  0.2917
  141OSM   H14F15497   3.757   7.395   7.733 -1.6845  1.5409  1.7726
  141OSM   H14G15498   3.767   7.517   7.608  0.6508 -0.7159 -0.1488
  141OSM   C15F15499   3.814   7.606   7.794 -0.7067  0.5475  0.2576
  141OSM   H15F15500   3.883   7.574   7.875 -1.5070 -0.2123  0.6629
  141OSM   H15G15501   3.710   7.618   7.831 -1.8227  0.4112 -2.5690
  141OSM   C16F15502   3.868   7.743   7.735 -0.2441  0.8538 -0.4309
  141OSM   H16F15503   3.778   7.788   7.687 -0.0415 -0.0094 -1.6613
  141OSM   H16G15504   3.941   7.721   7.654  2.0859  0.5893  1.6318
  141OSM   C17F15505   3.924   7.834   7.844 -0.2089 -0.2557  0.4894
  141OSM   H17F15506   3.961   7.928   7.799 -0.0445 -0.5452  0.0136
  141OSM   H17G15507   4.015   7.793   7.891  1.0522  1.2311 -0.5695
  141OSM   C18F15508   3.833   7.866   7.953  0.4553 -0.8876 -0.1044
  141OSM   H18F15509   3.873   7.959   7.998 -0.3578 -0.0714 -1.0170
  141OSM   H18G15510   3.829   7.785   8.029  0.7774  0.7366  1.7281
  141OSM   H18H15511   3.729   7.895   7.927 -0.0259 -0.1195  2.4497
  142OSM      N15512   4.735   0.017   6.048 -0.4254 -0.1924 -0.1078
  142OSM    C1515513   4.598   0.033   5.991  0.3912  0.1354 -0.3351
  142OSM   H15A15514   4.532  -0.045   6.028  2.2394 -1.2908  0.1223
  142OSM   H15B15515   4.594   0.048   5.884  0.7221  1.9566 -0.1263
  142OSM   H15C15516   4.551   0.119   6.035  1.0299 -0.6741  2.0579
  142OSM    C1415517   4.788  -0.117   6.009  0.0096 -0.1258  0.2426
  142OSM   H14A15518   4.744  -0.196   6.066 -0.9088  1.3665  1.6874
  142OSM   H14B15519   4.890  -0.123   6.045 -0.0371  1.0862  0.6128
  142OSM   H14C15520   4.779  -0.133   5.902 -3.7425  0.7730  0.2868
  142OSM    C1315521   4.830   0.105   5.985  0.3416  0.0984 -0.1538
  142OSM   H13A15522   4.934   0.090   6.008  1.1954 -0.2888 -3.7554
  142OSM   H13B15523   4.804   0.205   6.016 -0.2327  0.0020 -0.3136
  142OSM   H13C15524   4.831   0.104   5.877 -0.4813  0.3979 -0.1771
  142OSM    C1215525   4.741   0.032   6.195 -0.1468  0.0604 -0.7068
  142OSM   H12A15526   4.845   0.053   6.215 -0.2762  0.4139 -0.3887
  142OSM   H12B15527   4.711  -0.062   6.239  0.0616  0.3015 -0.0384
  142OSM    C1115528   4.659   0.149   6.266 -0.1774 -0.5090 -0.4788
  142OSM   H11A15529   4.674   0.140   6.376  0.0281  0.0947 -0.4549
  142OSM   H11B15530   4.553   0.125   6.242 -0.1341 -1.0747 -0.1370
  142OSM      P15531   4.600   0.390   6.166 -0.2911  0.2904 -0.5442
  142OSM    O1315532   4.665   0.473   6.064  0.0679  0.3602  0.2092
  142OSM    O1415533   4.472   0.319   6.135 -0.2651 -0.0900  0.3318
  142OSM    O1115534   4.567   0.465   6.297  0.3617 -0.2767  0.6653
  142OSM    O1215535   4.697   0.280   6.220  0.6860 -0.3912  0.1602
  142OSM    C1S15536   4.653   0.463   6.410 -0.3128 -0.1121  0.1998
  142OSM    H1S15537   4.760   0.476   6.386  0.0430 -0.5961  1.4181
  142OSM    H1T15538   4.640   0.358   6.444 -2.4912 -0.2489 -0.8601
  142OSM     NF15539   4.687   0.593   6.616  0.1021 -0.3154 -0.0254
  142OSM    HNF15540   4.667   0.537   6.696 -0.1577 -2.3186 -1.4358
  142OSM    C2S15541   4.597   0.559   6.512 -0.0350 -0.6107  0.1275
  142OSM    H2S15542   4.576   0.658   6.466  0.2734 -0.8970 -0.6397
  142OSM    C3S15543   4.451   0.518   6.551 -0.2519  0.1836  0.3873
  142OSM    H3S15544   4.460   0.413   6.588  0.7315 -0.5190 -1.7017
  142OSM     O315545   4.350   0.519   6.444 -0.1677  0.2313 -0.1936
  142OSM    HO315546   4.406   0.521   6.365 -1.5339  1.3642 -1.1991
  142OSM    C4S15547   4.386   0.602   6.666  0.5451  0.3172  1.1800
  142OSM    H4S15548   4.400   0.553   6.763 -0.3634  0.7427  1.5420
  142OSM    C5S15549   4.299   0.709   6.653  0.6726  1.3430 -0.1130
  142OSM    H5S15550   4.258   0.735   6.554 -0.1298  2.8417  0.5832
  142OSM    C6S15551   4.227   0.779   6.767  0.6460 -0.3872  0.2516
  142OSM    H6S15552   4.120   0.752   6.755  0.3143 -0.7811  3.2767
  142OSM    H6T15553   4.227   0.890   6.764 -0.6256 -0.2464  2.7945
  142OSM    C7S15554   4.259   0.739   6.912  0.5025  0.3438  0.0764
  142OSM    H7S15555   4.363   0.769   6.936  0.1907 -0.2570  2.4105
  142OSM    H7T15556   4.254   0.628   6.916  1.2223  0.3383  1.3161
  142OSM    C8S15557   4.162   0.809   7.015  0.5262 -0.2524 -0.0294
  142OSM    H8S15558   4.063   0.766   6.988  2.0567 -3.4548 -0.9533
  142OSM    H8T15559   4.172   0.919   7.000  1.7672 -0.2363  0.8185
  142OSM    C9S15560   4.203   0.765   7.156  0.0745  0.0955  1.1440
  142OSM    H9S15561   4.311   0.791   7.149  0.3801 -1.4655 -0.6287
  142OSM    H9T15562   4.187   0.656   7.165  0.0631 -0.1285 -1.0200
  142OSM   C10S15563   4.144   0.829   7.279 -0.1197 -0.0196 -0.5008
  142OSM   H10S15564   4.044   0.782   7.293  0.7016 -1.3300  1.7074
  142OSM   H10T15565   4.120   0.934   7.255  0.1589  0.5195  1.4079
  142OSM   C11S15566   4.218   0.823   7.416  0.4386  0.6434 -0.0884
  142OSM   H11S15567   4.248   0.718   7.436 -2.3521 -0.3225 -0.5155
  142OSM   H11T15568   4.137   0.860   7.483  0.0854  0.6823 -0.5349
  142OSM   C12S15569   4.334   0.915   7.437 -0.1750 -0.1566  0.0256
  142OSM   H12S15570   4.301   1.018   7.411 -1.6732 -0.6999 -0.3162
  142OSM   H12T15571   4.417   0.888   7.369 -1.3195 -2.1972 -0.6549
  142OSM   C13S15572   4.379   0.916   7.585  0.7525 -0.1048 -0.3044
  142OSM   H13S15573   4.427   0.821   7.618  0.7390  0.1771  0.5318
  142OSM   H13T15574   4.290   0.929   7.650  0.5681 -0.7465 -0.4178
  142OSM   C14S15575   4.486   1.021   7.615 -0.5291 -0.2183 -0.5344
  142OSM   H14S15576   4.465   1.127   7.589 -0.0047  0.5071  1.7836
  142OSM   H14T15577   4.569   0.981   7.553  0.2090 -1.5925  1.2293
  142OSM   C15S15578   4.537   1.026   7.753 -0.5860  0.5616 -0.1496
  142OSM   H15S15579   4.593   1.121   7.771  0.2414 -0.2607  2.0550
  142OSM   H15T15580   4.604   0.938   7.764  1.6169  2.0142 -1.1414
  142OSM   C16S15581   4.429   1.022   7.862  0.1090 -0.8878  0.2830
  142OSM   H16S15582   4.383   0.921   7.876  0.4331 -0.9351  1.0396
  142OSM   H16T15583   4.357   1.104   7.843  0.7393 -0.2769  0.4807
  142OSM   C17S15584   4.485   1.053   8.000  0.2075  0.0137 -0.7455
  142OSM   H17S15585   4.518   1.159   8.004 -0.6079  0.2535 -0.1211
  142OSM   H17T15586   4.568   0.984   8.028  0.2508  0.5449  0.4888
  142OSM   C18S15587   4.386   1.034   8.114  0.2433 -0.1216 -0.2396
  142OSM   H18S15588   4.349   0.929   8.112 -1.2677  0.3929 -0.8007
  142OSM   H18T15589   4.305   1.107   8.092  1.2992  1.1138 -0.1866
  142OSM   H18U15590   4.428   1.056   8.214  3.1192  0.5396 -1.4833
  142OSM    C1F15591   4.796   0.662   6.593  0.3678  0.3489  0.0378
  142OSM     OF15592   4.796   0.747   6.504 -0.0088  0.4108 -0.2028
  142OSM    C2F15593   4.920   0.638   6.671 -0.2053 -0.1571 -1.0558
  142OSM    H2F15594   4.987   0.563   6.625  1.3872  0.9069 -0.5342
  142OSM    H2G15595   4.896   0.595   6.771 -0.6406 -2.4640 -2.0775
  142OSM    C3F15596   5.007   0.763   6.697  0.7070 -0.3376 -0.2168
  142OSM    H3F15597   4.931   0.843   6.712 -0.9264 -1.7228 -0.8771
  142OSM    H3G15598   5.076   0.782   6.612  0.4104 -0.1788 -0.4204
  142OSM    C4F15599   5.102   0.743   6.813 -0.4542  0.1382 -0.4823
  142OSM    H4F15600   5.187   0.814   6.803  1.7745 -2.4751 -1.4467
  142OSM    H4G15601   5.165   0.656   6.784 -0.3838  0.3519 -0.9809
  142OSM    C5F15602   5.048   0.726   6.955  0.1648 -0.1988  0.4150
  142OSM    H5F15603   5.134   0.684   7.011  2.4077  1.8643 -1.2430
  142OSM    H5G15604   4.965   0.653   6.953 -0.2310  0.2537  0.3169
  142OSM    C6F15605   5.006   0.858   7.016 -0.0165  1.1695  0.2397
  142OSM    H6F15606   4.929   0.912   6.956 -0.2642  0.5175 -0.0464
  142OSM    H6G15607   5.097   0.922   7.013 -0.2090  1.4301 -2.1429
  142OSM    C7F15608   4.953   0.834   7.159  0.0526 -0.8809 -0.1227
  142OSM    H7F15609   5.036   0.805   7.226 -2.1536 -0.8737  2.8268
  142OSM    H7G15610   4.870   0.761   7.153 -2.3444  1.4704  1.9976
  142OSM    C8F15611   4.901   0.960   7.210  0.7967 -0.9992  0.1824
  142OSM    H8F15612   4.832   1.004   7.135  0.0165  0.9414  1.9126
  142OSM    H8G15613   4.985   1.033   7.217 -0.2038  0.0700  1.9294
  142OSM    C9F15614   4.833   0.950   7.348 -0.6058 -0.5580 -0.4027
  142OSM    H9F15615   4.749   0.879   7.355  0.3146 -1.5192  1.4640
  142OSM   C10F15616   4.903   0.973   7.460 -0.1328  0.2114 -0.4177
  142OSM   H10F15617   4.883   0.919   7.554  0.3201 -1.5498 -1.3091
  142OSM   C11F15618   5.027   1.060   7.473 -0.1146  0.5161 -0.0203
  142OSM   H11F15619   5.006   1.163   7.438  0.3694  0.1311 -1.5483
  142OSM   H11G15620   5.110   1.028   7.406  0.4162  0.4155  0.6699
  142OSM   C12F15621   5.080   1.047   7.612  0.5036  0.4806  0.0309
  142OSM   H12F15622   5.187   1.076   7.609  0.4154  0.8899  0.6367
  142OSM   H12G15623   5.067   0.946   7.655 -2.1767  1.3711  1.5952
  142OSM   C13F15624   5.007   1.142   7.712 -0.2371  0.4601 -0.3754
  142OSM   H13F15625   4.902   1.108   7.715 -0.3722  0.9279  0.7114
  142OSM   H13G15626   4.998   1.243   7.667 -1.1707 -0.6925 -2.9616
  142OSM   C14F15627   5.060   1.140   7.856  0.3574 -0.2568  0.2422
  142OSM   H14F15628   5.046   1.241   7.900 -1.5125 -1.1110  1.7404
  142OSM   H14G15629   5.167   1.112   7.863  0.6908  0.9533  0.2230
  142OSM   C15F15630   4.979   1.044   7.940 -0.3407 -0.6561  0.3865
  142OSM   H15F15631   4.984   0.939   7.905  0.0283 -0.4292 -0.2525
  142OSM   H15G15632   4.873   1.077   7.946  0.1434  0.8844  1.1731
  142OSM   C16F15633   5.013   1.047   8.090 -0.0833 -0.4797  0.4655
  142OSM   H16F15634   5.119   1.051   8.121  0.2503  1.3427 -0.7606
  142OSM   H16G15635   4.982   0.956   8.146 -0.9238 -0.6832 -0.2957
  142OSM   C17F15636   4.936   1.158   8.173  0.0344  0.3461 -0.3034
  142OSM   H17F15637   4.826   1.153   8.161  0.1255  0.8321 -1.4956
  142OSM   H17G15638   4.961   1.251   8.118  2.2425  0.3459  0.5810
  142OSM   C18F15639   4.987   1.177   8.308 -0.7059 -0.3025 -0.9879
  142OSM   H18F15640   4.989   1.081   8.362  2.1420 -0.6753 -1.5817
  142OSM   H18G15641   4.943   1.258   8.371 -0.0301 -0.5545 -0.1693
  142OSM   H18H15642   5.092   1.213   8.305 -0.4132 -1.0655 -0.1947
  143OSM      N15643   6.652   3.600   5.357 -0.0101 -0.2582 -0.4167
  143OSM    C1515644   6.661   3.691   5.240 -0.8676 -0.0986  0.1600
  143OSM   H15A15645   6.731   3.770   5.264  1.6873 -2.0401 -0.4767
  143OSM   H15B15646   6.561   3.725   5.220 -0.4778  1.6759  1.0121
  143OSM   H15C15647   6.695   3.639   5.151 -0.3134  0.4282  0.0533
  143OSM    C1415648   6.579   3.471   5.323  0.0617 -0.7359  0.2519
  143OSM   H14A15649   6.633   3.433   5.238  0.8880 -0.4409  0.6395
  143OSM   H14B15650   6.474   3.475   5.296  0.3151 -2.4387 -1.1830
  143OSM   H14C15651   6.585   3.403   5.408  0.6337 -0.1177  0.7138
  143OSM    C1315652   6.790   3.587   5.406  0.1416 -0.3535  0.6941
  143OSM   H13A15653   6.812   3.529   5.495  1.2744 -2.0622 -0.6354
  143OSM   H13B15654   6.843   3.678   5.431  0.2533 -0.3117  0.3059
  143OSM   H13C15655   6.839   3.531   5.328  0.6822  0.7612  0.2107
  143OSM    C1215656   6.573   3.672   5.473  0.2445 -0.0806 -0.7553
  143OSM   H12A15657   6.630   3.756   5.506  1.3343 -1.4347  0.9805
  143OSM   H12B15658   6.569   3.610   5.561  0.1194 -2.0703 -2.0845
  143OSM    C1115659   6.429   3.724   5.448  0.3731  0.2335  0.1245
  143OSM   H11A15660   6.431   3.788   5.357 -1.9758  0.1438 -0.0645
  143OSM   H11B15661   6.398   3.788   5.534 -0.3432 -0.0124  0.0602
  143OSM      P15662   6.316   3.514   5.534 -0.1649 -0.0144  0.2417
  143OSM    O1315663   6.176   3.535   5.577 -0.7635 -0.5148  0.2140
  143OSM    O1415664   6.346   3.382   5.481 -0.6143 -0.1962 -0.3050
  143OSM    O1115665   6.410   3.550   5.654 -0.1668  0.1744  0.1326
  143OSM    O1215666   6.344   3.617   5.416  0.1725 -0.3442 -0.1335
  143OSM    C1S15667   6.439   3.478   5.773 -0.5149 -0.0693  0.1102
  143OSM    H1S15668   6.548   3.467   5.784 -0.6149  0.2654  1.7357
  143OSM    H1T15669   6.375   3.387   5.775 -0.7962  0.1229  1.8958
  143OSM     NF15670   6.398   3.478   6.018  0.0264  0.5058 -0.3293
  143OSM    HNF15671   6.308   3.454   6.054  1.0124 -2.0113  0.6378
  143OSM    C2S15672   6.397   3.564   5.893 -0.4701  0.4231 -0.5963
  143OSM    H2S15673   6.478   3.636   5.920 -0.6475  0.4810 -0.2093
  143OSM    C3S15674   6.264   3.647   5.871 -0.4060  0.1381  0.0002
  143OSM    H3S15675   6.192   3.585   5.814 -0.4844 -0.5969  0.8699
  143OSM     O315676   6.278   3.769   5.797  0.9330  0.6342  0.1838
  143OSM    HO315677   6.371   3.770   5.773  1.4904  0.7470  2.1625
  143OSM    C4S15678   6.204   3.691   6.006 -0.3050 -0.4352  0.2198
  143OSM    H4S15679   6.248   3.773   6.064 -0.5702 -0.6575  0.7462
  143OSM    C5S15680   6.088   3.637   6.054 -0.3614 -0.3098 -0.3712
  143OSM    H5S15681   6.039   3.557   5.995 -1.4045  0.4681 -0.5936
  143OSM    C6S15682   6.019   3.668   6.184  0.0885 -0.1173  0.0140
  143OSM    H6S15683   5.969   3.577   6.224  0.1769 -0.6228 -0.9726
  143OSM    H6T15684   5.930   3.727   6.152 -0.2834 -1.4236 -1.5041
  143OSM    C7S15685   6.115   3.736   6.282 -0.0041 -0.0423  0.1977
  143OSM    H7S15686   6.059   3.754   6.376  0.3252 -0.0215  0.3890
  143OSM    H7T15687   6.138   3.838   6.243  0.5596  0.2692  1.3228
  143OSM    C8S15688   6.242   3.662   6.324 -0.4579 -0.1554  0.8835
  143OSM    H8S15689   6.311   3.661   6.237  0.2254 -0.7973  1.4186
  143OSM    H8T15690   6.222   3.556   6.352  3.2828 -1.0606  0.5534
  143OSM    C9S15691   6.309   3.730   6.444 -0.1177 -0.0247 -1.0169
  143OSM    H9S15692   6.231   3.753   6.520  0.6797 -1.1725  0.2211
  143OSM    H9T15693   6.354   3.826   6.412  0.9909 -0.7968 -1.8515
  143OSM   C10S15694   6.435   3.659   6.506  0.6404  1.0418  0.5767
  143OSM   H10S15695   6.507   3.656   6.421  0.6251  0.2508  0.5873
  143OSM   H10T15696   6.393   3.559   6.529 -0.3226  0.4228 -3.1855
  143OSM   C11S15697   6.496   3.733   6.621  0.5657 -0.1763 -0.2003
  143OSM   H11S15698   6.511   3.839   6.591  0.5947  0.0010  0.4218
  143OSM   H11T15699   6.594   3.687   6.645  0.8051  0.7205  0.6115
  143OSM   C12S15700   6.412   3.728   6.751  0.5120  0.0484 -0.1521
  143OSM   H12S15701   6.387   3.622   6.770  1.0164  0.2951  2.2403
  143OSM   H12T15702   6.323   3.794   6.744  0.2085 -0.1120  1.7402
  143OSM   C13S15703   6.489   3.786   6.871  0.0528  0.1672  0.0752
  143OSM   H13S15704   6.518   3.885   6.829  1.2125 -0.7302 -1.3508
  143OSM   H13T15705   6.570   3.718   6.903 -1.4587 -0.8344  2.0031
  143OSM   C14S15706   6.392   3.800   6.994  0.7339 -0.6110 -0.1086
  143OSM   H14S15707   6.359   3.699   7.025 -1.1023  0.1521  0.5539
  143OSM   H14T15708   6.310   3.861   6.950  0.6551 -1.4451 -1.1419
  143OSM   C15S15709   6.466   3.852   7.114  0.0087 -0.3131  0.3911
  143OSM   H15S15710   6.493   3.959   7.099  0.0509 -0.3721  0.0364
  143OSM   H15T15711   6.561   3.798   7.131 -0.5140 -1.0814  0.9439
  143OSM   C16S15712   6.381   3.854   7.244 -0.2518  0.4139 -0.7422
  143OSM   H16S15713   6.347   3.753   7.276 -5.3822  2.0367 -0.1060
  143OSM   H16T15714   6.288   3.910   7.221  0.8638  2.8276  0.2344
  143OSM   C17S15715   6.444   3.919   7.367  0.1958  0.2436 -0.1298
  143OSM   H17S15716   6.498   4.014   7.348 -0.1027 -0.0320 -2.7789
  143OSM   H17T15717   6.523   3.847   7.397 -0.6435 -0.3301  0.7724
  143OSM   C18S15718   6.353   3.941   7.483  0.1326 -0.0340  0.1876
  143OSM   H18S15719   6.408   3.987   7.567  0.7496  0.9746 -0.7410
  143OSM   H18T15720   6.327   3.841   7.523  2.6653 -0.5659  0.6206
  143OSM   H18U15721   6.267   4.009   7.462  0.3602 -0.2571 -1.5992
  143OSM    C1F15722   6.503   3.407   6.068  0.4805  0.0022  0.1555
  143OSM     OF15723   6.602   3.371   5.998 -0.3081  0.1983  0.8237
  143OSM    C2F15724   6.495   3.368   6.214  0.2901  0.1524 -0.0188
  143OSM    H2F15725   6.403   3.310   6.235  0.9503 -0.3865  1.5492
  143OSM    H2G15726   6.485   3.450   6.289 -1.3135 -2.5093  2.9384
  143OSM    C3F15727   6.608   3.280   6.263  0.1854  0.5047  0.3828
  143OSM    H3F15728   6.705   3.332   6.246 -0.3699  0.9887 -1.4563
  143OSM    H3G15729   6.599   3.190   6.199 -2.1831 -0.1503  1.5080
  143OSM    C4F15730   6.593   3.241   6.409 -0.1901  0.2561  0.1666
  143OSM    H4F15731   6.647   3.144   6.420  3.8119  1.8270 -3.1145
  143OSM    H4G15732   6.486   3.234   6.436  0.1675 -0.8734  1.4212
  143OSM    C5F15733   6.653   3.335   6.510 -0.1592  0.1309  0.1646
  143OSM    H5F15734   6.615   3.440   6.503  0.6183  0.2986 -3.0048
  143OSM    H5G15735   6.763   3.335   6.496  0.0334 -2.0688  1.2320
  143OSM    C6F15736   6.621   3.297   6.659  0.4438  0.0591 -0.1846
  143OSM    H6F15737   6.666   3.197   6.678 -1.5546 -1.0734 -1.0988
  143OSM    H6G15738   6.512   3.290   6.675  0.6711  2.1972  3.3311
  143OSM    C7F15739   6.676   3.392   6.760 -0.1428 -0.3193 -0.0066
  143OSM    H7F15740   6.629   3.490   6.735  1.2862  0.0266 -1.4624
  143OSM    H7G15741   6.785   3.415   6.752  0.1680 -1.7358 -0.0864
  143OSM    C8F15742   6.649   3.348   6.907  0.2120  0.1942  0.3183
  143OSM    H8F15743   6.699   3.250   6.920  1.2094  0.8083  1.3139
  143OSM    H8G15744   6.543   3.329   6.931  0.5985 -1.4731  0.8075
  143OSM    C9F15745   6.706   3.448   7.011 -0.2420 -0.3134  0.7822
  143OSM    H9F15746   6.799   3.500   6.982 -1.9592  1.8310 -1.2095
  143OSM   C10F15747   6.659   3.491   7.131  0.0250 -0.5484  1.1058
  143OSM   H10F15748   6.714   3.571   7.181 -0.0247  0.1343  0.0948
  143OSM   C11F15749   6.549   3.424   7.199  0.0932 -0.5252  0.0907
  143OSM   H11F15750   6.516   3.330   7.149  1.7356 -2.3859  2.3290
  143OSM   H11G15751   6.466   3.497   7.200  1.3456  0.9385  0.4539
  143OSM   C12F15752   6.583   3.404   7.351  1.6145 -0.1976 -0.2511
  143OSM   H12F15753   6.683   3.359   7.366  1.1579 -0.9617  0.5564
  143OSM   H12G15754   6.514   3.329   7.394 -0.0529 -0.7233 -3.4916
  143OSM   C13F15755   6.586   3.534   7.430  0.1127 -0.3651  0.0941
  143OSM   H13F15756   6.495   3.594   7.411  0.0872  0.3803  2.3157
  143OSM   H13G15757   6.671   3.598   7.398  0.5611 -0.9435  0.1035
  143OSM   C14F15758   6.601   3.514   7.574 -0.2025 -0.2158  0.0537
  143OSM   H14F15759   6.703   3.476   7.595 -0.2085 -0.3347 -0.1359
  143OSM   H14G15760   6.528   3.444   7.620 -0.2683  1.4845  2.8062
  143OSM   C15F15761   6.581   3.647   7.656  0.8066  0.1189 -0.1289
  143OSM   H15F15762   6.477   3.682   7.636  0.9082  1.2508  1.1682
  143OSM   H15G15763   6.656   3.724   7.626 -0.5813  2.2075  1.4099
  143OSM   C16F15764   6.585   3.627   7.810  0.0173 -0.5421  0.1008
  143OSM   H16F15765   6.690   3.593   7.819  1.4904  2.9213 -1.9079
  143OSM   H16G15766   6.500   3.557   7.829 -0.1244 -0.1911  0.7912
  143OSM   C17F15767   6.559   3.751   7.893  0.6668 -0.0399  0.6966
  143OSM   H17F15768   6.650   3.809   7.870 -1.1219  3.0003  0.7409
  143OSM   H17G15769   6.553   3.722   8.000 -0.4427 -1.8454  0.1991
  143OSM   C18F15770   6.438   3.837   7.864  0.0035 -0.2043 -0.5789
  143OSM   H18F15771   6.343   3.782   7.879  0.8627 -1.3291  0.9896
  143OSM   H18G15772   6.441   3.874   7.759  0.9016  0.3876 -0.3581
  143OSM   H18H15773   6.437   3.933   7.918  0.6759  0.7662 -2.2081
  144OSM      N15774   4.892   3.485   5.936 -0.3737 -0.7198 -0.5536
  144OSM    C1515775   4.974   3.571   5.841 -0.3309  0.1104 -0.1497
  144OSM   H15A15776   5.078   3.546   5.829 -0.8025 -1.1383 -1.9831
  144OSM   H15B15777   4.967   3.674   5.873  0.5681  0.1000  0.0987
  144OSM   H15C15778   4.934   3.567   5.741  1.1381  1.2603 -0.8153
  144OSM    C1415779   4.759   3.542   5.946 -0.2942 -0.2236 -0.0443
  144OSM   H14A15780   4.711   3.558   5.850  0.4392 -4.0149 -1.1990
  144OSM   H14B15781   4.754   3.635   6.002  0.4934  0.9662 -1.8577
  144OSM   H14C15782   4.695   3.481   6.008  0.5817 -1.3931 -0.2607
  144OSM    C1315783   4.882   3.354   5.881  0.2154  0.7874  1.3324
  144OSM   H13A15784   4.817   3.289   5.937 -1.1859 -0.2313 -1.2825
  144OSM   H13B15785   4.976   3.300   5.885 -0.5057 -0.7405 -0.5454
  144OSM   H13C15786   4.853   3.342   5.778 -0.3341  0.6772  1.5002
  144OSM    C1215787   4.964   3.473   6.075  0.4099 -0.2556  0.2644
  144OSM   H12A15788   4.971   3.568   6.125 -0.1840  0.6331 -1.2920
  144OSM   H12B15789   5.069   3.456   6.056  0.0631 -0.6696 -1.4331
  144OSM    C1115790   4.899   3.376   6.184  0.1883  0.5091 -0.6197
  144OSM   H11A15791   4.790   3.395   6.185  0.1531  0.3545  0.5526
  144OSM   H11B15792   4.944   3.395   6.284  0.8745  0.8336 -0.9818
  144OSM      P15793   5.040   3.159   6.168  0.1921  0.2802 -0.0327
  144OSM    O1315794   5.011   3.014   6.186  0.2077 -0.5143  0.1748
  144OSM    O1415795   5.130   3.194   6.058  0.3055 -0.1467  0.3642
  144OSM    O1115796   5.107   3.213   6.305  0.2739  0.4829 -0.3779
  144OSM    O1215797   4.906   3.240   6.154  0.2675  0.6259 -0.3517
  144OSM    C1S15798   5.068   3.184   6.445  0.3427  0.0968  0.9032
  144OSM    H1S15799   5.101   3.082   6.476 -1.1505 -1.0680 -1.1577
  144OSM    H1T15800   4.961   3.207   6.465  0.0699  1.0604 -1.3594
  144OSM     NF15801   5.121   3.245   6.692  0.8299 -0.9432 -0.1865
  144OSM    HNF15802   5.090   3.330   6.734 -0.0303  0.3633 -3.1494
  144OSM    C2S15803   5.160   3.262   6.546 -0.4610  0.0290  0.4441
  144OSM    H2S15804   5.261   3.219   6.528 -1.3768 -2.5741  1.0306
  144OSM    C3S15805   5.168   3.418   6.512  0.3095 -0.2397 -0.0744
  144OSM    H3S15806   5.066   3.455   6.536 -0.1936 -1.4172 -0.3139
  144OSM     O315807   5.176   3.455   6.379  0.1080  0.1928  0.0481
  144OSM    HO315808   5.186   3.367   6.341  4.4197 -0.8928  2.9327
  144OSM    C4S15809   5.276   3.481   6.590 -0.0481 -0.9212 -0.5850
  144OSM    H4S15810   5.380   3.455   6.566  0.9995  3.4284 -1.6488
  144OSM    C5S15811   5.260   3.578   6.688  0.1063  0.0166  0.2984
  144OSM    H5S15812   5.159   3.610   6.720 -0.8054 -1.5453 -0.8468
  144OSM    C6S15813   5.373   3.630   6.772  0.0033  0.0027 -0.2568
  144OSM    H6S15814   5.365   3.741   6.772 -1.5443 -0.0788  0.3752
  144OSM    H6T15815   5.473   3.606   6.730  0.6520  1.0369  0.6231
  144OSM    C7S15816   5.388   3.598   6.920  0.4280 -0.3665 -0.3634
  144OSM    H7S15817   5.309   3.637   6.987  0.7842 -0.4231  0.0913
  144OSM    H7T15818   5.478   3.654   6.955  0.9973 -1.7740  0.4603
  144OSM    C8S15819   5.428   3.455   6.941  0.1891  0.8393 -0.1487
  144OSM    H8S15820   5.494   3.430   6.855  0.4893  3.4374 -0.7621
  144OSM    H8T15821   5.332   3.400   6.931  1.0491 -0.6157 -0.7695
  144OSM    C9S15822   5.491   3.423   7.077 -0.1914 -0.7161  0.3399
  144OSM    H9S15823   5.573   3.497   7.081 -0.1002 -0.7938 -0.0677
  144OSM    H9T15824   5.547   3.326   7.069  2.5323  0.8805 -2.0598
  144OSM   C10S15825   5.386   3.426   7.193  0.8183 -0.3956 -0.3614
  144OSM   H10S15826   5.302   3.370   7.147  0.9427 -0.7517 -0.1579
  144OSM   H10T15827   5.342   3.527   7.209  1.0123 -0.3083 -0.3647
  144OSM   C11S15828   5.438   3.368   7.328  0.2684 -0.8931  0.0686
  144OSM   H11S15829   5.477   3.265   7.318 -0.7164 -1.2266 -0.4769
  144OSM   H11T15830   5.370   3.384   7.414 -0.5923  1.8622 -1.0223
  144OSM   C12S15831   5.554   3.458   7.375  0.2058 -0.0819  0.3333
  144OSM   H12S15832   5.516   3.562   7.363 -0.1438  0.0076  1.8945
  144OSM   H12T15833   5.642   3.465   7.308  0.3733  1.6892  0.6795
  144OSM   C13S15834   5.614   3.422   7.514  0.6186  0.0067 -0.3519
  144OSM   H13S15835   5.531   3.429   7.587  2.2234  1.6401  1.4326
  144OSM   H13T15836   5.686   3.504   7.536  0.2271 -0.5108  3.3917
  144OSM   C14S15837   5.681   3.285   7.530  1.1480 -0.0177  0.7707
  144OSM   H14S15838   5.744   3.270   7.440 -1.4508  1.2087 -1.3961
  144OSM   H14T15839   5.600   3.210   7.514 -1.2816  3.0647 -4.1205
  144OSM   C15S15840   5.778   3.265   7.644  0.2319 -0.2884 -0.4077
  144OSM   H15S15841   5.721   3.285   7.737 -0.7891 -0.4777 -0.9775
  144OSM   H15T15842   5.863   3.335   7.645  1.2752 -1.4646  2.3679
  144OSM   C16S15843   5.842   3.125   7.656 -0.5225 -0.1450 -0.1425
  144OSM   H16S15844   5.883   3.105   7.555 -0.1984  0.8938 -0.2237
  144OSM   H16T15845   5.756   3.056   7.671  0.2503 -1.1467 -0.2363
  144OSM   C17S15846   5.925   3.088   7.784 -0.2900 -0.1366 -0.1401
  144OSM   H17S15847   6.023   3.140   7.788  0.8181 -2.1558 -0.0184
  144OSM   H17T15848   5.945   2.979   7.778 -1.4247 -0.2876 -1.9705
  144OSM   C18S15849   5.858   3.103   7.921 -0.1977 -0.8053  0.5197
  144OSM   H18S15850   5.749   3.091   7.939 -0.1435 -1.1805  0.5997
  144OSM   H18T15851   5.879   3.208   7.950  1.0170 -0.9314  0.1434
  144OSM   H18U15852   5.925   3.050   7.992  2.5440  3.3547  1.3863
  144OSM    C1F15853   5.146   3.130   6.746 -0.5225 -0.7544 -0.2130
  144OSM     OF15854   5.235   3.057   6.703 -0.6578  0.7407  0.7671
  144OSM    C2F15855   5.079   3.088   6.873 -0.4432  0.1973  0.2304
  144OSM    H2F15856   5.031   2.990   6.854  1.3557 -0.7891  0.5525
  144OSM    H2G15857   5.000   3.162   6.898  0.3476  1.9569 -2.1495
  144OSM    C3F15858   5.185   3.071   6.983 -0.1146  0.1387  0.8144
  144OSM    H3F15859   5.262   3.146   6.957 -0.5058 -0.0973 -1.1873
  144OSM    H3G15860   5.232   2.971   6.966  0.5277  0.6097 -0.2769
  144OSM    C4F15861   5.134   3.081   7.124 -0.4983 -0.2792 -0.1338
  144OSM    H4F15862   5.081   2.985   7.139  0.4792 -0.6132  1.3380
  144OSM    H4G15863   5.057   3.160   7.135  1.2097  1.3230  0.9254
  144OSM    C5F15864   5.249   3.079   7.220 -0.4014  0.5745 -0.0352
  144OSM    H5F15865   5.306   3.174   7.219 -1.8161  1.4998  1.6258
  144OSM    H5G15866   5.325   3.000   7.209  2.0081  2.5417  1.4472
  144OSM    C6F15867   5.213   3.045   7.364 -0.3993 -0.5454 -0.5119
  144OSM    H6F15868   5.170   2.943   7.372 -1.7793  0.1244  1.2863
  144OSM    H6G15869   5.133   3.119   7.386  3.0560  3.1121  1.0169
  144OSM    C7F15870   5.331   3.042   7.461 -0.1644 -0.6244 -0.1180
  144OSM    H7F15871   5.368   3.146   7.464 -0.1872 -0.6372  1.0459
  144OSM    H7G15872   5.403   2.968   7.418  1.2828  0.7822 -0.2132
  144OSM    C8F15873   5.297   3.009   7.606  0.1709 -0.2905 -0.1316
  144OSM    H8F15874   5.383   3.009   7.676  0.3965  0.0981 -0.4095
  144OSM    H8G15875   5.250   2.908   7.608  1.2004 -0.7667  1.0162
  144OSM    C9F15876   5.189   3.101   7.655 -0.4060 -0.9817 -0.6504
  144OSM    H9F15877   5.091   3.073   7.614 -0.6834 -1.1016  0.0721
  144OSM   C10F15878   5.193   3.202   7.748 -0.6120  1.0218  0.0176
  144OSM   H10F15879   5.108   3.271   7.746 -0.4828  1.2761  1.8239
  144OSM   C11F15880   5.316   3.247   7.820  0.0045 -0.0480 -0.0294
  144OSM   H11F15881   5.366   3.329   7.763 -1.8552 -0.0937 -1.8860
  144OSM   H11G15882   5.397   3.171   7.826  0.6576  0.7450  3.2107
  144OSM   C12F15883   5.280   3.303   7.959 -0.4752 -0.2752 -0.1275
  144OSM   H12F15884   5.216   3.232   8.015 -1.8102  0.6002 -0.5008
  144OSM   H12G15885   5.226   3.400   7.960 -0.6263 -0.2119 -3.1526
  144OSM   C13F15886   5.402   3.308   8.056 -0.2489 -0.4526 -0.1549
  144OSM   H13F15887   5.483   3.359   7.998 -0.1933 -0.9316 -0.4991
  144OSM   H13G15888   5.445   3.210   8.087  0.3568  0.6277  2.7933
  144OSM   C14F15889   5.381   3.386   8.186 -0.4144  0.2753 -0.1667
  144OSM   H14F15890   5.338   3.324   8.267  1.4479 -0.9999 -0.0817
  144OSM   H14G15891   5.311   3.470   8.169  0.0733  0.7627  0.1766
  144OSM   C15F15892   5.515   3.436   8.257  0.0175  0.2019 -0.0614
  144OSM   H15F15893   5.570   3.498   8.182  0.2124  1.5652  1.1700
  144OSM   H15G15894   5.577   3.347   8.280 -1.4199 -0.9896 -0.6196
  144OSM   C16F15895   5.499   3.498   8.395 -0.3392 -0.6137  0.7663
  144OSM   H16F15896   5.584   3.469   8.461 -0.8037  0.1082  1.7131
  144OSM   H16G15897   5.410   3.457   8.446  0.0881 -1.5221  0.7987
  144OSM   C17F15898   5.491   3.655   8.387 -0.2783 -0.1445 -0.4379
  144OSM   H17F15899   5.476   3.695   8.489 -1.2336  0.3024 -0.7392
  144OSM   H17G15900   5.401   3.682   8.327 -1.1925  2.2667  1.8112
  144OSM   C18F15901   5.602   3.734   8.328 -0.2828  0.0672  0.2554
  144OSM   H18F15902   5.686   3.731   8.400  0.6408 -1.9123 -0.8171
  144OSM   H18G15903   5.572   3.838   8.303 -0.1366 -0.2385 -1.2695
  144OSM   H18H15904   5.645   3.682   8.240 -0.4237  0.9125 -0.3252
  145SAPE     N15905   6.575   3.062  10.617  0.3780 -0.4758 -0.0500
  145SAPE   HN115906   6.526   3.126  10.550 -0.2009 -0.2780  0.5491
  145SAPE   HN215907   6.655   3.112  10.661 -0.7572 -0.1439  1.7570
  145SAPE   HN315908   6.609   2.984  10.557 -0.2861 -0.6978 -0.1490
  145SAPE   C1215909   6.473   3.020  10.716  0.2612 -0.1528  0.0903
  145SAPE  H12A15910   6.465   3.106  10.787 -1.9749 -0.2640  0.0142
  145SAPE  H12B15911   6.512   2.929  10.767 -0.9575 -0.5120  0.3932
  145SAPE   C1115912   6.335   2.994  10.665  0.0705 -0.2826  0.3416
  145SAPE  H11A15913   6.293   3.090  10.628  3.0195  0.8235 -0.4276
  145SAPE  H11B15914   6.270   2.958  10.747 -0.9369 -2.3639 -1.2816
  145SAPE     P15915   6.271   2.771  10.544  0.0921  0.4441 -0.3943
  145SAPE   O1315916   6.372   2.664  10.526 -0.4836  0.1750 -0.0062
  145SAPE   O1415917   6.177   2.756  10.658  0.0944  0.0776  0.4843
  145SAPE   O1215918   6.341   2.910  10.550 -0.1747 -0.2707  0.1512
  145SAPE   O1115919   6.197   2.772  10.403  0.0261 -0.3858 -0.4876
  145SAPE    C115920   6.085   2.859  10.375  0.4898  0.0565  0.1242
  145SAPE    HA15921   6.030   2.882  10.469 -1.5427  0.5396 -1.1072
  145SAPE    HB15922   6.115   2.965  10.361 -0.3355  0.9779  4.0568
  145SAPE    C215923   5.987   2.804  10.271  0.0975 -0.3853 -0.4707
  145SAPE    HS15924   5.937   2.719  10.322  0.7250  0.9754  2.6141
  145SAPE   O2115925   6.058   2.770  10.151 -0.4394 -0.0364 -0.3223
  145SAPE   C2115926   5.979   2.708  10.054 -0.6887  0.0502 -0.3453
  145SAPE   O2215927   5.865   2.675  10.068 -0.0514  0.2158 -0.2849
  145SAPE   C2215928   6.071   2.687   9.935 -0.3658  0.2297  0.0226
  145SAPE   H2R15929   6.110   2.787   9.907  1.7116 -0.2395  1.0728
  145SAPE   H2S15930   6.154   2.622   9.969 -0.3984 -0.6451 -1.4818
  145SAPE    C315931   5.880   2.919  10.251  0.2065  0.8811  0.3091
  145SAPE    HX15932   5.846   2.953  10.351  0.6572 -1.3565  1.2988
  145SAPE    HY15933   5.801   2.875  10.187  1.0344 -0.3631  0.0827
  145SAPE   O3115934   5.941   3.027  10.188 -0.5601 -0.4374 -0.2006
  145SAPE   C3115935   5.857   3.136  10.169 -0.3915  0.8429  0.0571
  145SAPE   O3215936   5.741   3.140  10.208  0.0963  0.6345  0.6875
  145SAPE   C3215937   5.943   3.240  10.099  0.3029 -0.2848  0.0642
  145SAPE   H2X15938   6.027   3.207  10.034 -0.3729 -0.6665 -0.6265
  145SAPE   H2Y15939   5.979   3.305  10.182 -1.6414  1.3755 -0.3212
  145SAPE   C2315940   6.003   2.608   9.819 -0.0278 -0.0883 -0.0266
  145SAPE   H3R15941   5.945   2.524   9.863 -3.6800  2.8287  1.2783
  145SAPE   H3S15942   6.084   2.580   9.748  0.0996  0.3329 -0.0451
  145SAPE   C2415943   5.897   2.696   9.736  0.8587 -0.1786  0.0806
  145SAPE   H4R15944   5.817   2.714   9.811  0.7210 -2.4259  0.5673
  145SAPE   H4S15945   5.854   2.627   9.660  1.8360  0.4486 -1.0736
  145SAPE   C2515946   5.933   2.825   9.661  0.2944  0.1893  0.2989
  145SAPE   H5R15947   5.921   2.910   9.730  0.9418 -0.5706  1.3854
  145SAPE   C2615948   5.977   2.836   9.540 -0.6423  0.3007 -0.4203
  145SAPE   H6R15949   5.986   2.937   9.499  0.4345 -0.0227 -1.0219
  145SAPE   C2715950   5.991   2.719   9.440  0.6281 -0.3167  0.5556
  145SAPE   H7R15951   6.037   2.637   9.499  0.1556  0.3684  1.9382
  145SAPE   H7S15952   6.075   2.749   9.374  1.2303  1.8073  2.1637
  145SAPE   C2815953   5.867   2.657   9.369 -0.1029 -0.1296 -0.7389
  145SAPE   H8R15954   5.779   2.630   9.429  0.0147 -0.3445 -0.6593
  145SAPE   C2915955   5.877   2.606   9.245 -0.0111 -0.5314  0.3182
  145SAPE   H9R15956   5.790   2.554   9.202  0.2661 -0.2454 -0.6007
  145SAPE  C21015957   5.989   2.617   9.151  0.0614  0.6769 -0.4776
  145SAPE  H10R15958   6.073   2.561   9.198  0.2053  1.4884  0.2557
  145SAPE  H10S15959   6.021   2.722   9.138 -2.5664  1.2699 -3.3035
  145SAPE  C21115960   5.967   2.568   9.011  0.4355 -0.3089 -0.3685
  145SAPE  H11R15961   6.003   2.641   8.936  3.0416 -1.7479 -0.6228
  145SAPE  C21215962   5.883   2.469   8.961 -1.2243 -0.0361 -0.0277
  145SAPE  H12R15963   5.878   2.462   8.851  2.4022  3.1787 -0.5793
  145SAPE  C21315964   5.810   2.366   9.035  0.2878  0.1011  0.1955
  145SAPE  H13R15965   5.710   2.413   9.044 -0.1616 -0.3804 -1.7578
  145SAPE  H13S15966   5.856   2.349   9.135 -0.3505 -0.9259  0.3303
  145SAPE  C21415967   5.802   2.228   8.961  0.5272 -0.4584  0.0210
  145SAPE  H14R15968   5.897   2.172   8.962  0.0164 -1.3775 -1.0842
  145SAPE  C21515969   5.694   2.179   8.897 -0.1294  0.6735  0.3121
  145SAPE  H15R15970   5.702   2.080   8.849 -3.0568 -0.4464  1.8812
  145SAPE  C21615971   5.557   2.241   8.858 -0.2660 -0.2263  0.5026
  145SAPE  H16R15972   5.502   2.259   8.952  0.3957 -0.1455  0.8858
  145SAPE  H16S15973   5.500   2.179   8.785 -2.6927  1.3760  0.9293
  145SAPE  C21715974   5.571   2.380   8.785 -0.1112 -0.0187  0.3200
  145SAPE  H17R15975   5.660   2.384   8.719 -0.2372  0.0228  0.1519
  145SAPE  H17S15976   5.572   2.469   8.852 -1.4352  1.1946 -1.2020
  145SAPE  C21815977   5.445   2.408   8.701  0.6382  0.6280  0.0943
  145SAPE  H18R15978   5.357   2.389   8.766  0.3018  0.8734 -0.2848
  145SAPE  H18S15979   5.450   2.328   8.623 -2.4379 -0.3752  0.7814
  145SAPE  C21915980   5.454   2.543   8.630  0.3132 -0.1285  0.6440
  145SAPE  H19R15981   5.523   2.532   8.543 -0.6963 -0.1589 -0.1778
  145SAPE  H19S15982   5.482   2.621   8.704  0.3959 -1.7614  2.4113
  145SAPE  C22015983   5.320   2.583   8.560  0.1110 -0.2549 -0.1604
  145SAPE  H20R15984   5.317   2.532   8.462  2.8035  1.4295 -1.2510
  145SAPE  H20S15985   5.327   2.693   8.546  1.2564 -0.3974 -0.8725
  145SAPE  H20T15986   5.228   2.563   8.618 -0.1132  3.1440  0.8746
  145SAPE   C3315987   5.850   3.320  10.005  0.3568 -0.1892  0.9295
  145SAPE   H3X15988   5.894   3.419   9.981  0.0733 -0.2328  0.1896
  145SAPE   H3Y15989   5.761   3.346  10.066  1.0483 -0.6401  2.1693
  145SAPE   C3415990   5.822   3.242   9.886  0.0091 -0.0201  0.1480
  145SAPE   H4X15991   5.762   3.150   9.902  3.8829 -2.3950  2.8012
  145SAPE   H4Y15992   5.917   3.198   9.846  1.0936  1.9195  0.4465
  145SAPE   C3515993   5.740   3.324   9.785 -0.2116 -0.4050 -0.5239
  145SAPE   H5X15994   5.817   3.398   9.754  2.8574 -3.1799 -0.1202
  145SAPE   H5Y15995   5.654   3.363   9.843 -0.2665 -1.0895 -0.1363
  145SAPE   C3615996   5.684   3.256   9.651  0.7178 -0.3906 -0.2178
  145SAPE   H6X15997   5.620   3.334   9.606  0.0077 -0.7595  0.1409
  145SAPE   H6Y15998   5.606   3.180   9.675  0.6346 -0.1056  0.4241
  145SAPE   C3715999   5.788   3.203   9.546 -0.2541 -0.3437  0.8565
  145SAPE   H7X16000   5.812   3.105   9.592  1.3562 -0.1112  0.6009
  145SAPE   H7Y16001   5.887   3.254   9.537 -0.3706 -0.3166 -0.4509
  145SAPE   C3816002   5.725   3.207   9.406 -0.0936  0.5913 -0.4081
  145SAPE   H8X16003   5.700   3.313   9.383 -0.8358  0.2951 -1.0180
  145SAPE   H8Y16004   5.632   3.148   9.423  1.0788 -0.8483  1.2709
  145SAPE   C3916005   5.806   3.147   9.296  0.1750  0.8997 -0.1034
  145SAPE   H9X16006   5.816   3.039   9.320  0.8802  0.4509 -2.2461
  145SAPE   H9Y16007   5.905   3.196   9.292 -0.0154  1.2099 -2.1499
  145SAPE  C31016008   5.737   3.169   9.165  0.1451 -0.6684  0.1567
  145SAPE  H10X16009   5.725   3.278   9.147 -0.8298 -0.9246 -0.9029
  145SAPE  H10Y16010   5.637   3.121   9.174 -0.0869 -0.1939  0.1098
  145SAPE  C31116011   5.815   3.103   9.051 -0.2285 -0.7120  0.5614
  145SAPE  H11X16012   5.812   2.993   9.071 -0.6611 -0.3530  2.6732
  145SAPE  H11Y16013   5.916   3.147   9.046 -0.6156  0.0823 -0.8161
  145SAPE  C31216014   5.735   3.130   8.913 -0.4945 -0.3776  0.8155
  145SAPE  H12X16015   5.739   3.241   8.905 -1.4212 -0.4209 -0.5697
  145SAPE  H12Y16016   5.626   3.107   8.912 -1.0824  1.9479 -2.0698
  145SAPE  C31316017   5.807   3.077   8.791 -0.6593  0.8118 -0.5461
  145SAPE  H13X16018   5.914   3.106   8.792 -0.0938 -1.1168 -0.8035
  145SAPE  H13Y16019   5.761   3.127   8.703 -1.0353 -0.8608 -1.3447
  145SAPE  C31416020   5.799   2.931   8.785  1.3307 -0.0999 -0.0857
  145SAPE  H14X16021   5.694   2.910   8.814  0.6926  0.2485 -2.0035
  145SAPE  H14Y16022   5.873   2.882   8.853  1.8421  0.1849 -0.4358
  145SAPE  C31516023   5.815   2.872   8.641  0.8410 -0.0375 -0.4550
  145SAPE  H15X16024   5.900   2.920   8.586 -0.2587  0.8005 -1.4871
  145SAPE  H15Y16025   5.738   2.922   8.579  0.5656 -0.0094 -0.0932
  145SAPE  C31616026   5.809   2.720   8.627 -0.3472  0.0100 -0.1277
  145SAPE  H16X16027   5.716   2.691   8.681 -0.0075  0.8275  0.9243
  145SAPE  H16Y16028   5.895   2.683   8.685 -0.6018  1.2053  1.0634
  145SAPE  C31716029   5.799   2.673   8.483  0.2042  0.1178  0.2854
  145SAPE  H17X16030   5.717   2.718   8.424  0.5190 -0.1789 -0.3972
  145SAPE  H17Y16031   5.790   2.562   8.486  2.2413 -0.0864  2.4384
  145SAPE  C31816032   5.920   2.707   8.392  0.2452 -0.2880 -0.2735
  145SAPE  H18X16033   5.914   2.815   8.364 -2.8149 -0.0081  1.1119
  145SAPE  H18Y16034   5.905   2.637   8.306 -0.2295 -0.6794  0.1255
  145SAPE  H18Z16035   6.011   2.676   8.447 -0.3996 -1.4184  0.1760
  146SAPE     N16036   5.826   4.496  10.792  0.1337  0.4430  0.2053
  146SAPE   HN116037   5.783   4.524  10.702 -0.9499 -0.0749  0.5391
  146SAPE   HN216038   5.790   4.562  10.864  3.2837  3.0858 -0.4341
  146SAPE   HN316039   5.927   4.514  10.777 -0.1631  1.9473 -0.1574
  146SAPE   C1216040   5.814   4.350  10.824  0.2323 -0.2206  0.2405
  146SAPE  H12A16041   5.851   4.334  10.928  4.3074 -1.6330 -1.2614
  146SAPE  H12B16042   5.888   4.297  10.760  0.7168  0.8191 -0.0712
  146SAPE   C1116043   5.685   4.280  10.790  0.2265 -0.0674  0.3353
  146SAPE  H11A16044   5.684   4.170  10.800  1.9870 -0.4068 -2.2491
  146SAPE  H11B16045   5.672   4.289  10.680 -0.2833 -3.0873  0.0614
  146SAPE     P16046   5.434   4.263  10.852 -0.3725  0.1096  0.4092
  146SAPE   O1316047   5.431   4.142  10.935 -0.0871  0.1493  0.1960
  146SAPE   O1416048   5.331   4.366  10.885 -0.2991  0.0101 -0.3440
  146SAPE   O1216049   5.578   4.330  10.869  0.3187  0.0409  0.1454
  146SAPE   O1116050   5.426   4.226  10.692  0.3897 -0.2306  0.9735
  146SAPE    C116051   5.385   4.328  10.597  0.0689  0.0204 -0.1421
  146SAPE    HA16052   5.421   4.424  10.638 -0.3709  0.0304  0.2370
  146SAPE    HB16053   5.423   4.302  10.496  2.2175  2.5307 -0.0898
  146SAPE    C216054   5.229   4.330  10.587  0.4821 -0.6242  0.3461
  146SAPE    HS16055   5.195   4.321  10.693  1.7523  0.9940  0.9441
  146SAPE   O2116056   5.194   4.226  10.499  0.2224  0.3079 -0.1394
  146SAPE   C2116057   5.075   4.177  10.521 -0.4012  0.1080 -0.2914
  146SAPE   O2216058   5.005   4.205  10.611  0.2739  0.5118 -0.6019
  146SAPE   C2216059   5.048   4.082  10.406  0.0824  0.7833 -0.4193
  146SAPE   H2R16060   5.068   4.137  10.312  0.9749 -0.3806 -0.9311
  146SAPE   H2S16061   5.127   4.006  10.391 -0.2246  0.2604  0.5441
  146SAPE    C316062   5.177   4.471  10.532  0.0167  0.4201 -0.6343
  146SAPE    HX16063   5.210   4.539  10.614 -0.1025  1.4899 -1.4607
  146SAPE    HY16064   5.067   4.469  10.527 -0.1443 -3.2006  1.2548
  146SAPE   O3116065   5.247   4.518  10.418  0.5114 -0.0050  0.0877
  146SAPE   C3116066   5.173   4.482  10.301 -0.3191  0.5329 -0.6703
  146SAPE   O3216067   5.069   4.422  10.304 -0.1598 -0.3201 -0.0695
  146SAPE   C3216068   5.251   4.524  10.174  0.1105  0.1375 -0.4086
  146SAPE   H2X16069   5.342   4.461  10.168 -0.7774 -1.0343 -2.4692
  146SAPE   H2Y16070   5.272   4.633  10.179  0.7887  0.0069 -0.4354
  146SAPE   C2316071   4.913   4.015  10.410  0.5672  0.0223  0.3492
  146SAPE   H3R16072   4.837   4.097  10.414  0.5247  0.0198 -0.2879
  146SAPE   H3S16073   4.910   3.962  10.507 -1.4626  0.8584  0.7961
  146SAPE   C2416074   4.888   3.921  10.295  0.3560 -0.1072  0.4237
  146SAPE   H4R16075   4.880   3.986  10.205 -1.2425  1.0572  1.3616
  146SAPE   H4S16076   4.782   3.888  10.290 -0.2023  1.4190  1.4687
  146SAPE   C2516077   4.981   3.805  10.297 -0.2754 -0.2558 -0.2758
  146SAPE   H5R16078   4.990   3.755  10.395  0.4187 -2.2231 -1.2830
  146SAPE   C2616079   5.047   3.754  10.191 -0.2813 -0.1805 -0.0941
  146SAPE   H6R16080   5.102   3.660  10.198 -0.4201 -0.4916 -2.4189
  146SAPE   C2716081   5.050   3.802  10.049  0.0128  0.3407  0.6489
  146SAPE   H7R16082   5.154   3.807  10.010  0.4331 -1.0640  1.4821
  146SAPE   H7S16083   5.011   3.904  10.032  0.3618  0.6448  1.6329
  146SAPE   C2816084   4.977   3.713   9.945 -0.2400  0.0631  0.0219
  146SAPE   H8R16085   5.001   3.605   9.948  1.2501  0.3978  1.2275
  146SAPE   C2916086   4.917   3.750   9.841 -0.9668  0.1693  0.8419
  146SAPE   H9R16087   4.888   3.667   9.774  2.2356 -1.0063  0.7474
  146SAPE  C21016088   4.888   3.894   9.799 -0.8538  0.2063  0.0285
  146SAPE  H10R16089   4.980   3.952   9.823 -2.0677  1.2897  2.3320
  146SAPE  H10S16090   4.810   3.944   9.860 -0.4175  2.4414 -1.1333
  146SAPE  C21116091   4.857   3.886   9.653  0.4480 -0.1510  0.0497
  146SAPE  H11R16092   4.930   3.929   9.582  1.4854 -2.1840 -0.1863
  146SAPE  C21216093   4.751   3.837   9.585 -0.3447 -0.2486  0.0593
  146SAPE  H12R16094   4.751   3.853   9.476 -2.6536  1.7589  0.2650
  146SAPE  C21316095   4.620   3.791   9.640  0.6370  0.2343  0.5644
  146SAPE  H13R16096   4.611   3.814   9.749 -0.1986 -1.5439  0.9062
  146SAPE  H13S16097   4.619   3.680   9.639 -1.1489  0.1672 -2.5942
  146SAPE  C21416098   4.507   3.854   9.565  0.3465  0.4500  0.4598
  146SAPE  H14R16099   4.471   3.945   9.614  0.9417  0.5603  0.6983
  146SAPE  C21516100   4.458   3.821   9.443 -0.8805 -0.1786  0.3120
  146SAPE  H15R16101   4.371   3.872   9.397  1.0641  1.1869 -2.0822
  146SAPE  C21616102   4.506   3.700   9.354 -0.2766  0.0762 -0.6572
  146SAPE  H16R16103   4.414   3.640   9.334 -0.1310 -0.8965  1.3119
  146SAPE  H16S16104   4.568   3.626   9.409 -3.2553 -1.2716  1.1512
  146SAPE  C21716105   4.561   3.748   9.222  0.4132 -0.2948 -0.3418
  146SAPE  H17R16106   4.641   3.825   9.227  1.4439 -1.4081  0.9469
  146SAPE  H17S16107   4.487   3.794   9.152  0.7202  0.3925 -0.2237
  146SAPE  C21816108   4.629   3.639   9.140 -0.2891 -0.8390  0.0755
  146SAPE  H18R16109   4.654   3.660   9.033  0.4020 -1.1511  0.1692
  146SAPE  H18S16110   4.556   3.556   9.132 -0.0032 -1.0177 -0.8639
  146SAPE  C21916111   4.753   3.592   9.208  0.5956 -0.0399  0.7174
  146SAPE  H19R16112   4.777   3.497   9.157  0.2085  0.5637 -0.6210
  146SAPE  H19S16113   4.737   3.566   9.315 -3.2583 -0.7702  0.1049
  146SAPE  C22016114   4.872   3.683   9.194  0.3297  0.3743  0.2547
  146SAPE  H20R16115   4.874   3.734   9.096  0.0077  0.9343  0.5326
  146SAPE  H20S16116   4.966   3.626   9.213  0.6215  0.8367  0.2140
  146SAPE  H20T16117   4.869   3.760   9.274 -3.0553  0.3236  0.3153
  146SAPE   C3316118   5.173   4.495  10.045  0.2901  0.7283  0.3210
  146SAPE   H3X16119   5.092   4.571  10.049 -1.9404 -1.5623  1.3395
  146SAPE   H3Y16120   5.128   4.393  10.049  2.0430 -0.0685  0.6035
  146SAPE   C3416121   5.262   4.506   9.925 -0.3184 -0.3558 -0.1187
  146SAPE   H4X16122   5.321   4.412   9.924  0.3975  0.0912 -0.0325
  146SAPE   H4Y16123   5.325   4.596   9.939  1.2935 -1.1212 -1.9676
  146SAPE   C3516124   5.178   4.545   9.810 -0.2222 -0.2594  1.0008
  146SAPE   H5X16125   5.148   4.652   9.813 -0.1710 -0.0971 -1.6405
  146SAPE   H5Y16126   5.087   4.481   9.811 -1.1157  0.8568 -1.3664
  146SAPE   C3616127   5.245   4.518   9.674  0.0520 -1.0030 -0.5338
  146SAPE   H6X16128   5.273   4.411   9.683  2.7731 -0.2601  1.2231
  146SAPE   H6Y16129   5.336   4.582   9.666  0.6705 -2.0781 -3.4911
  146SAPE   C3716130   5.161   4.531   9.555 -0.7696  0.5737 -0.2207
  146SAPE   H7X16131   5.084   4.611   9.558 -1.3675 -0.0196  0.5030
  146SAPE   H7Y16132   5.094   4.445   9.535 -0.9475  0.9657 -1.4107
  146SAPE   C3816133   5.234   4.552   9.425 -0.2019  0.1302  0.0161
  146SAPE   H8X16134   5.322   4.489   9.401 -1.9512 -2.1458 -0.8001
  146SAPE   H8Y16135   5.276   4.655   9.422  0.5775 -0.1382  1.0948
  146SAPE   C3916136   5.136   4.530   9.305 -0.1443  0.1656  0.0033
  146SAPE   H9X16137   5.040   4.580   9.326 -0.2115  0.0832 -0.1079
  146SAPE   H9Y16138   5.125   4.420   9.293  2.7751 -0.2556  0.3580
  146SAPE  C31016139   5.210   4.583   9.178 -0.7156  0.1193 -0.6114
  146SAPE  H10X16140   5.304   4.533   9.148  1.0940  2.5040  0.7023
  146SAPE  H10Y16141   5.229   4.691   9.199  1.0156  0.6321 -4.0493
  146SAPE  C31116142   5.120   4.569   9.056 -0.3801 -0.1667 -0.8495
  146SAPE  H11X16143   5.021   4.619   9.065 -1.0538 -1.7788  1.6786
  146SAPE  H11Y16144   5.101   4.460   9.049  0.6616 -0.3354 -1.2810
  146SAPE  C31216145   5.200   4.609   8.929  0.0656 -0.0162 -0.3186
  146SAPE  H12X16146   5.294   4.552   8.917 -1.4681 -2.6175 -0.7073
  146SAPE  H12Y16147   5.219   4.718   8.931  2.0875 -0.3226  2.0149
  146SAPE  C31316148   5.131   4.595   8.792 -0.1281  0.7853  0.5308
  146SAPE  H13X16149   5.099   4.491   8.770 -0.7137  1.2932 -1.1574
  146SAPE  H13Y16150   5.203   4.629   8.715  0.6050  0.5397  1.0956
  146SAPE  C31416151   5.005   4.678   8.781  1.1030 -0.1255  0.4510
  146SAPE  H14X16152   5.025   4.786   8.793 -2.2409  0.6382  0.1288
  146SAPE  H14Y16153   4.937   4.649   8.864  0.5755 -0.7307 -0.1680
  146SAPE  C31516154   4.936   4.649   8.643 -0.0219 -0.5460 -0.1489
  146SAPE  H15X16155   4.831   4.679   8.664  0.3306  0.1060  0.7587
  146SAPE  H15Y16156   4.928   4.544   8.609 -2.3197 -0.6127  0.4469
  146SAPE  C31616157   4.991   4.736   8.525  0.5474 -0.8254  0.1632
  146SAPE  H16X16158   4.933   4.705   8.436 -1.9874  2.0612  0.6515
  146SAPE  H16Y16159   5.099   4.719   8.504  1.4568  0.8058  2.9564
  146SAPE  C31716160   4.984   4.890   8.544 -0.6192 -0.0680 -0.1845
  146SAPE  H17X16161   5.032   4.940   8.457  2.6789  0.3341  1.7145
  146SAPE  H17Y16162   5.039   4.918   8.636  1.5770 -3.8501 -0.1551
  146SAPE  C31816163   4.840   4.935   8.550  0.9714  0.0504  0.8963
  146SAPE  H18X16164   4.786   4.882   8.468  0.4485  1.3055  0.4126
  146SAPE  H18Y16165   4.833   5.045   8.543  0.9448 -0.0133 -0.3122
  146SAPE  H18Z16166   4.785   4.910   8.643 -1.4184  3.7832  0.6994
  147SAPE     N16167   6.358   1.313  11.435  0.4076 -0.1471 -0.5955
  147SAPE   HN116168   6.453   1.278  11.412 -0.3592 -0.8338 -2.9476
  147SAPE   HN216169   6.355   1.354  11.531  2.3300 -1.4111  0.0692
  147SAPE   HN316170   6.303   1.225  11.428 -0.7941  0.6185 -1.0865
  147SAPE   C1216171   6.314   1.418  11.346 -0.1850 -0.3955 -0.0093
  147SAPE  H12A16172   6.398   1.483  11.310 -0.7088  1.2533  1.5772
  147SAPE  H12B16173   6.240   1.482  11.398 -0.4047  0.3173 -1.1584
  147SAPE   C1116174   6.253   1.346  11.225 -0.4930 -0.1791 -0.0583
  147SAPE  H11A16175   6.322   1.268  11.187 -0.6448 -0.4597  0.2428
  147SAPE  H11B16176   6.240   1.420  11.143 -1.2433 -1.6183 -1.2938
  147SAPE     P16177   5.990   1.353  11.229 -0.1423  0.4015 -0.1576
  147SAPE   O1316178   5.894   1.258  11.299 -0.1170 -0.2148  0.0412
  147SAPE   O1416179   5.979   1.495  11.262 -0.2257  0.6369  0.0243
  147SAPE   O1216180   6.134   1.284  11.260  0.3906 -0.2467  0.3854
  147SAPE   O1116181   5.950   1.334  11.079  0.7582 -0.0091  0.5849
  147SAPE    C116182   6.004   1.420  10.976 -0.2509  0.2416  0.3302
  147SAPE    HA16183   5.962   1.523  10.979  1.1412  0.8560 -0.1132
  147SAPE    HB16184   6.113   1.441  10.983 -0.5940  2.4995 -0.4205
  147SAPE    C216185   5.981   1.367  10.831  0.8360  0.3131  0.3345
  147SAPE    HS16186   6.039   1.432  10.763  0.4349 -0.5676 -0.8858
  147SAPE   O2116187   5.840   1.382  10.803  0.1946  0.5162 -0.0982
  147SAPE   C2116188   5.806   1.503  10.752  0.6840  0.3481 -0.1480
  147SAPE   O2216189   5.883   1.595  10.749  0.0536  0.1303 -0.1079
  147SAPE   C2216190   5.670   1.498  10.683  0.1511 -0.4446 -0.3014
  147SAPE   H2R16191   5.592   1.476  10.759  0.3353  0.3271  0.1245
  147SAPE   H2S16192   5.656   1.605  10.657 -2.0013 -0.4797  0.5323
  147SAPE    C316193   6.026   1.220  10.815  0.1660  0.0187 -0.2112
  147SAPE    HX16194   5.946   1.143  10.818  0.6212 -0.4681  3.3155
  147SAPE    HY16195   6.090   1.205  10.904  0.1969  1.2631 -0.0091
  147SAPE   O3116196   6.107   1.211  10.692 -0.4365 -0.0062 -0.4814
  147SAPE   C3116197   6.208   1.130  10.701 -0.2204 -0.2507  0.0457
  147SAPE   O3216198   6.231   1.064  10.806  0.1783  0.1768 -0.2740
  147SAPE   C3216199   6.297   1.128  10.571 -0.2798 -0.7296 -0.0533
  147SAPE   H2X16200   6.241   1.061  10.502  0.1967 -0.3791 -0.7931
  147SAPE   H2Y16201   6.394   1.075  10.579 -0.6285 -1.4471 -0.4399
  147SAPE   C2316202   5.655   1.402  10.556 -0.7820 -0.0671 -0.3363
  147SAPE   H3R16203   5.687   1.300  10.586  1.3320  0.5277 -0.3791
  147SAPE   H3S16204   5.720   1.438  10.474 -1.7762 -0.5153 -1.3374
  147SAPE   C2416205   5.514   1.399  10.499  0.3868 -0.2759  0.0551
  147SAPE   H4R16206   5.444   1.366  10.578 -2.0102 -1.9599 -2.5778
  147SAPE   H4S16207   5.506   1.323  10.419 -1.7345 -0.0531  0.0155
  147SAPE   C2516208   5.475   1.536  10.440  0.2111  0.7638 -0.6378
  147SAPE   H5R16209   5.455   1.618  10.511 -0.4340  0.0953 -0.0292
  147SAPE   C2616210   5.453   1.561  10.312 -0.1509  0.0097 -0.3282
  147SAPE   H6R16211   5.425   1.663  10.283 -0.9807  0.4560  1.8720
  147SAPE   C2716212   5.471   1.470  10.191 -0.5845 -0.6982 -0.2373
  147SAPE   H7R16213   5.385   1.478  10.122 -1.2281 -0.1346  0.6146
  147SAPE   H7S16214   5.468   1.362  10.216 -0.7471 -0.9976 -1.4843
  147SAPE   C2816215   5.598   1.502  10.113  0.0964  0.6332 -0.4330
  147SAPE   H8R16216   5.693   1.503  10.170  1.2323 -0.1594 -2.2161
  147SAPE   C2916217   5.613   1.533   9.982 -0.2981  0.2942 -0.6058
  147SAPE   H9R16218   5.718   1.549   9.952  0.4818  3.2863  3.0069
  147SAPE  C21016219   5.511   1.550   9.875  0.2410  0.0928 -0.8274
  147SAPE  H10R16220   5.415   1.596   9.906  0.2974  0.4339 -1.1517
  147SAPE  H10S16221   5.479   1.451   9.835 -0.0785  1.5382 -4.5987
  147SAPE  C21116222   5.562   1.640   9.761 -0.2562 -0.7848  0.4112
  147SAPE  H11R16223   5.540   1.746   9.776  1.6663 -0.3253  0.3126
  147SAPE  C21216224   5.622   1.612   9.641 -0.4120  0.4705 -0.3465
  147SAPE  H12R16225   5.662   1.692   9.577  1.1146 -0.8224 -1.0862
  147SAPE  C21316226   5.652   1.467   9.592 -0.0123  0.1427  1.0850
  147SAPE  H13R16227   5.682   1.400   9.675  0.4809 -0.3057  0.5484
  147SAPE  H13S16228   5.740   1.461   9.524 -1.8938 -2.1202 -1.3430
  147SAPE  C21416229   5.534   1.413   9.515 -0.1072  0.4280 -0.5222
  147SAPE  H14R16230   5.448   1.382   9.575 -0.2071  1.9691  0.1804
  147SAPE  C21516231   5.522   1.398   9.386  0.4448 -0.3779  1.0215
  147SAPE  H15R16232   5.430   1.361   9.338  2.2235 -1.7752 -1.5407
  147SAPE  C21616233   5.619   1.448   9.280 -0.0878  0.3978 -0.8821
  147SAPE  H16R16234   5.712   1.497   9.317 -1.1564  2.2346 -0.5221
  147SAPE  H16S16235   5.565   1.527   9.223 -0.0409  0.5185 -0.7603
  147SAPE  C21716236   5.668   1.343   9.179 -0.3122  0.5401 -0.2234
  147SAPE  H17R16237   5.582   1.274   9.164 -0.8927  1.1453  0.3058
  147SAPE  H17S16238   5.750   1.280   9.220 -1.2721  0.4442  1.6309
  147SAPE  C21816239   5.724   1.397   9.043  1.4054  0.3580  0.2450
  147SAPE  H18R16240   5.807   1.464   9.073  0.5453  1.6538 -0.1431
  147SAPE  H18S16241   5.648   1.463   8.995  0.6596  0.6240  1.7297
  147SAPE  C21916242   5.773   1.286   8.944 -0.0352 -0.3275 -0.1752
  147SAPE  H19R16243   5.688   1.214   8.942 -0.7785  0.5445 -0.2804
  147SAPE  H19S16244   5.857   1.228   8.988  0.0998 -0.9825 -1.2501
  147SAPE  C22016245   5.799   1.330   8.800  0.9207 -0.2608  0.2912
  147SAPE  H20R16246   5.896   1.384   8.795  1.9038 -1.9599  0.0438
  147SAPE  H20S16247   5.712   1.389   8.766 -0.9451 -2.4977  0.8467
  147SAPE  H20T16248   5.816   1.238   8.739  1.5073  0.1734 -0.2065
  147SAPE   C3316249   6.321   1.268  10.498  0.8185 -0.2092  0.1373
  147SAPE   H3X16250   6.404   1.324  10.546  2.5243 -2.2967 -0.1900
  147SAPE   H3Y16251   6.223   1.319  10.506  0.4061 -0.7158 -1.3901
  147SAPE   C3416252   6.360   1.246  10.354  0.3577 -0.3245 -0.2241
  147SAPE   H4X16253   6.275   1.200  10.298 -0.6038 -1.9403  2.3762
  147SAPE   H4Y16254   6.433   1.163  10.358 -0.5820 -1.1425  3.5962
  147SAPE   C3516255   6.433   1.362  10.287 -0.7191 -0.2431  0.5000
  147SAPE   H5X16256   6.526   1.387  10.344 -0.3032 -0.8744  0.1091
  147SAPE   H5Y16257   6.367   1.451  10.284  1.2335  1.2416 -0.8304
  147SAPE   C3616258   6.474   1.332  10.144 -0.2308 -0.1513 -0.1183
  147SAPE   H6X16259   6.530   1.236  10.151 -0.7524 -0.3510  1.8826
  147SAPE   H6Y16260   6.542   1.414  10.111 -0.7006 -0.2511 -1.3966
  147SAPE   C3716261   6.370   1.305  10.040  0.0679  0.8510  0.5022
  147SAPE   H7X16262   6.270   1.340  10.074 -0.7683 -1.5951  0.7531
  147SAPE   H7Y16263   6.361   1.196  10.020 -0.3610  1.3870 -2.7029
  147SAPE   C3816264   6.400   1.366   9.899 -0.3956 -0.5513 -0.6056
  147SAPE   H8X16265   6.503   1.335   9.872 -0.1226 -0.6755  0.5251
  147SAPE   H8Y16266   6.399   1.477   9.905 -0.0562 -0.6147  2.3743
  147SAPE   C3916267   6.296   1.327   9.788  0.3931  0.2386  0.4510
  147SAPE   H9X16268   6.192   1.363   9.803  0.1764 -0.0855 -0.2156
  147SAPE   H9Y16269   6.288   1.216   9.798  0.0967 -0.1893 -3.0757
  147SAPE  C31016270   6.334   1.380   9.646 -0.6036  0.1371  0.2054
  147SAPE  H10X16271   6.432   1.331   9.629 -0.1269  0.4242  1.8885
  147SAPE  H10Y16272   6.339   1.490   9.656  0.3229  0.0707  0.5343
  147SAPE  C31116273   6.234   1.346   9.539 -0.0472 -0.2114 -0.5718
  147SAPE  H11X16274   6.128   1.372   9.559 -0.1719 -0.7811 -0.4728
  147SAPE  H11Y16275   6.234   1.237   9.519  1.0661 -0.2719 -0.3347
  147SAPE  C31216276   6.273   1.409   9.402 -0.4194  0.4268 -0.1280
  147SAPE  H12X16277   6.375   1.375   9.374 -0.2363  0.6183  0.3017
  147SAPE  H12Y16278   6.277   1.519   9.417 -2.9553  0.8379 -1.7143
  147SAPE  C31316279   6.178   1.368   9.287 -0.0430 -0.3995  0.4431
  147SAPE  H13X16280   6.077   1.412   9.303 -1.0829 -1.0351 -3.3232
  147SAPE  H13Y16281   6.160   1.259   9.273 -0.6109 -0.1175 -1.2252
  147SAPE  C31416282   6.230   1.407   9.145  0.3030 -0.0143 -1.1948
  147SAPE  H14X16283   6.316   1.343   9.114  1.6856  1.2441 -0.1161
  147SAPE  H14Y16284   6.258   1.514   9.138 -2.2872  0.7577 -0.7911
  147SAPE  C31516285   6.123   1.383   9.047 -0.0693 -0.1369 -0.4769
  147SAPE  H15X16286   6.045   1.462   9.051 -0.8708 -0.8257 -1.7725
  147SAPE  H15Y16287   6.069   1.287   9.063 -0.0396 -0.6376 -2.9143
  147SAPE  C31616288   6.164   1.361   8.901 -0.5685 -0.5482  0.3718
  147SAPE  H16X16289   6.092   1.302   8.841 -0.7634  0.2460 -0.1969
  147SAPE  H16Y16290   6.266   1.318   8.887 -1.4252 -2.1985 -1.1132
  147SAPE  C31716291   6.163   1.502   8.832 -0.8122  0.4705  0.8607
  147SAPE  H17X16292   6.226   1.578   8.883 -1.2474  0.1739  1.8782
  147SAPE  H17Y16293   6.059   1.540   8.833 -0.9738  0.1495 -1.0535
  147SAPE  C31816294   6.207   1.490   8.683  0.7431 -0.4641 -0.9631
  147SAPE  H18X16295   6.147   1.410   8.635  0.1953 -1.0362  0.5852
  147SAPE  H18Y16296   6.313   1.459   8.675  0.6299 -1.6336  1.1413
  147SAPE  H18Z16297   6.173   1.587   8.640 -1.6907 -0.2870  1.1085
  148SAPE     N16298   1.545   2.872  10.824  0.2230 -0.2313  0.4215
  148SAPE   HN116299   1.589   2.779  10.811 -2.0372 -1.4348  0.7681
  148SAPE   HN216300   1.614   2.945  10.852  0.0649 -1.0323  3.1684
  148SAPE   HN316301   1.477   2.859  10.902  0.1859 -0.5551  0.3362
  148SAPE   C1216302   1.480   2.908  10.693  0.1800 -0.1606  0.2305
  148SAPE  H12A16303   1.563   2.915  10.620  0.9630  2.9029  1.2699
  148SAPE  H12B16304   1.437   3.009  10.712  1.0957  0.4225 -0.7182
  148SAPE   C1116305   1.365   2.809  10.655 -0.7318 -0.1251 -0.0735
  148SAPE  H11A16306   1.403   2.704  10.656  1.1627  0.4887  1.9935
  148SAPE  H11B16307   1.330   2.844  10.556  2.9634  2.3371 -0.7380
  148SAPE     P16308   1.120   2.858  10.734 -0.3377 -0.1016 -0.1889
  148SAPE   O1316309   1.050   2.793  10.847  0.0011  0.3285  0.2451
  148SAPE   O1416310   1.117   3.011  10.745  0.2217  0.3963  0.6259
  148SAPE   O1216311   1.271   2.813  10.759 -0.5426 -0.4621  0.1709
  148SAPE   O1116312   1.061   2.816  10.600  0.0366  0.1794 -0.3179
  148SAPE    C116313   1.039   2.675  10.574  0.1741 -0.0629 -0.7938
  148SAPE    HA16314   1.005   2.619  10.664 -0.9032 -0.5513 -1.4855
  148SAPE    HB16315   0.952   2.666  10.506 -0.2375 -3.0123  0.0048
  148SAPE    C216316   1.151   2.596  10.499 -0.2920  0.0224  0.3257
  148SAPE    HS16317   1.236   2.594  10.571 -0.6468 -0.2900  0.7424
  148SAPE   O2116318   1.178   2.674  10.382 -0.4838 -0.2852 -0.0888
  148SAPE   C2116319   1.302   2.680  10.335  0.2031  0.3440 -0.2491
  148SAPE   O2216320   1.397   2.635  10.390  0.2856  0.4011  0.1312
  148SAPE   C2216321   1.308   2.761  10.206  0.5710  0.2690  0.5828
  148SAPE   H2R16322   1.398   2.735  10.147  0.4759  0.0718  0.5205
  148SAPE   H2S16323   1.220   2.732  10.144  0.2436  1.0237  0.6904
  148SAPE    C316324   1.123   2.448  10.457 -0.7497 -0.0672  0.7583
  148SAPE    HX16325   1.103   2.391  10.551 -0.6535  0.5956  1.1930
  148SAPE    HY16326   1.215   2.409  10.409 -1.0958  1.2144 -0.9956
  148SAPE   O3116327   1.012   2.446  10.372 -0.0392  0.0918  0.0274
  148SAPE   C3116328   0.983   2.316  10.342  0.3109  0.0641 -0.4176
  148SAPE   O3216329   1.043   2.221  10.391 -0.5044  0.6560 -0.0414
  148SAPE   C3216330   0.859   2.323  10.251  0.7230 -0.1489  0.2776
  148SAPE   H2X16331   0.873   2.395  10.168  0.0001 -0.6277 -0.2698
  148SAPE   H2Y16332   0.773   2.357  10.313  0.5863  0.8058 -0.4165
  148SAPE   C2316333   1.312   2.912  10.234 -0.2336  0.0690  0.3359
  148SAPE   H3R16334   1.396   2.937  10.301 -1.1500  1.2949  1.0648
  148SAPE   H3S16335   1.227   2.954  10.292  0.9423  0.5205  1.7660
  148SAPE   C2416336   1.318   2.991  10.098  0.4278 -1.0274  0.0919
  148SAPE   H4R16337   1.407   2.949  10.046 -0.7364 -0.7470 -2.2234
  148SAPE   H4S16338   1.334   3.097  10.125 -0.6739 -0.5213 -1.1409
  148SAPE   C2516339   1.189   2.997  10.023  0.1265 -0.1137 -0.1510
  148SAPE   H5R16340   1.119   3.079  10.043 -2.1792 -1.7911 -0.9764
  148SAPE   C2616341   1.163   2.914   9.917 -0.7031  0.1414 -0.0472
  148SAPE   H6R16342   1.064   2.924   9.872 -0.1747  3.2793 -0.7715
  148SAPE   C2716343   1.252   2.820   9.844 -0.2455  0.4462 -0.6927
  148SAPE   H7R16344   1.181   2.740   9.813 -1.1616 -0.3184  2.9026
  148SAPE   H7S16345   1.326   2.777   9.914 -0.7579 -0.1732 -0.5179
  148SAPE   C2816346   1.332   2.890   9.726  0.0222 -0.6049  0.0770
  148SAPE   H8R16347   1.419   2.946   9.765 -0.1128  0.5953 -1.2535
  148SAPE   C2916348   1.296   2.902   9.595  0.1528 -0.3760 -0.0719
  148SAPE   H9R16349   1.354   2.966   9.527  2.7641 -1.1516  1.2878
  148SAPE  C21016350   1.160   2.848   9.553  0.1211  0.1043  0.0695
  148SAPE  H10R16351   1.092   2.840   9.641  0.1085  1.3721  0.1954
  148SAPE  H10S16352   1.179   2.744   9.519 -0.5455 -0.4749  1.4152
  148SAPE  C21116353   1.079   2.923   9.455 -0.4931  0.5196  0.4343
  148SAPE  H11R16354   1.028   3.012   9.495 -1.5834 -0.1511  0.5982
  148SAPE  C21216355   1.067   2.901   9.323  0.8284 -0.6980 -0.8998
  148SAPE  H12R16356   1.004   2.966   9.260  1.5862  0.9087 -0.0461
  148SAPE  C21316357   1.121   2.778   9.249 -0.9270  0.0938  0.5648
  148SAPE  H13R16358   1.035   2.708   9.244 -0.1554 -0.8553  0.1406
  148SAPE  H13S16359   1.209   2.732   9.298 -0.5093  1.2844  0.9724
  148SAPE  C21416360   1.155   2.823   9.105  0.4239 -0.1229 -0.2591
  148SAPE  H14R16361   1.256   2.864   9.092  0.1306  0.4201 -0.8777
  148SAPE  C21516362   1.063   2.845   9.007  0.9461  0.4816 -0.0192
  148SAPE  H15R16363   1.111   2.891   8.919 -1.5100  2.3542 -0.4748
  148SAPE  C21616364   0.919   2.800   8.991 -0.0078 -0.0878  0.1457
  148SAPE  H16R16365   0.849   2.867   9.044  0.7376  1.0658 -0.2921
  148SAPE  H16S16366   0.899   2.702   9.039  0.0135 -0.5055 -0.6782
  148SAPE  C21716367   0.885   2.782   8.842 -0.4946  0.1231 -0.2659
  148SAPE  H17R16368   0.798   2.713   8.838  0.0299 -0.5305 -0.8102
  148SAPE  H17S16369   0.965   2.726   8.788 -0.0613 -0.6303  1.1026
  148SAPE  C21816370   0.850   2.914   8.767 -0.4989 -0.1316  0.1823
  148SAPE  H18R16371   0.943   2.975   8.760 -1.1926  0.8049 -1.3905
  148SAPE  H18S16372   0.782   2.975   8.830 -0.5850 -0.4671  0.4173
  148SAPE  C21916373   0.801   2.874   8.625  0.0736  0.0849  0.1375
  148SAPE  H19R16374   0.716   2.808   8.651 -0.0123 -0.6368 -1.8693
  148SAPE  H19S16375   0.869   2.807   8.568 -0.4225 -0.7811  0.5514
  148SAPE  C22016376   0.755   2.998   8.545 -0.1804  0.7603  1.1877
  148SAPE  H20R16377   0.717   2.965   8.446  2.0674  0.6171  0.3374
  148SAPE  H20S16378   0.842   3.064   8.527  0.5823 -0.2223  1.2504
  148SAPE  H20T16379   0.670   3.045   8.601 -2.2117 -1.5649  0.2539
  148SAPE   C3316380   0.814   2.189  10.198  0.1767 -0.3936  0.4645
  148SAPE   H3X16381   0.704   2.196  10.184  0.4338  1.7361 -0.7914
  148SAPE   H3Y16382   0.830   2.115  10.280  0.5710  1.4556  2.1470
  148SAPE   C3416383   0.896   2.145  10.072 -0.0909 -0.6684 -0.2489
  148SAPE   H4X16384   0.994   2.110  10.111  0.4957  0.1371 -0.9584
  148SAPE   H4Y16385   0.899   2.228   9.998  0.0271 -1.1870 -0.8353
  148SAPE   C3516386   0.838   2.026   9.992  0.8774  0.2062 -0.9092
  148SAPE   H5X16387   0.739   2.064   9.958  1.6747  2.4177 -0.9640
  148SAPE   H5Y16388   0.818   1.945  10.065  0.4707  0.6012 -0.5757
  148SAPE   C3616389   0.925   1.989   9.878  0.4773 -0.2179  0.0146
  148SAPE   H6X16390   1.031   2.011   9.904  0.1720  1.7534 -0.2686
  148SAPE   H6Y16391   0.914   2.050   9.786 -0.0685  0.1469  0.3197
  148SAPE   C3716392   0.905   1.849   9.829  0.3337  0.0178  0.1094
  148SAPE   H7X16393   0.799   1.826   9.802  0.8302 -0.6133 -1.3877
  148SAPE   H7Y16394   0.945   1.777   9.903  1.7182 -1.4756 -1.9736
  148SAPE   C3816395   0.997   1.828   9.706 -0.1910 -0.7520  0.3018
  148SAPE   H8X16396   0.999   1.717   9.693 -0.1663 -0.7656  0.4216
  148SAPE   H8Y16397   1.097   1.863   9.737 -0.8530  1.2186  0.2999
  148SAPE   C3916398   0.954   1.885   9.569 -0.2964 -0.0027  0.8459
  148SAPE   H9X16399   0.988   1.990   9.572 -1.8047  0.5195  0.7263
  148SAPE   H9Y16400   0.843   1.894   9.570 -0.1787  2.6559 -0.9216
  148SAPE  C31016401   0.996   1.814   9.442  0.2026  0.3344  0.4043
  148SAPE  H10X16402   1.094   1.764   9.460 -1.0537 -2.0499  0.9639
  148SAPE  H10Y16403   1.015   1.877   9.353 -0.1196 -0.4922 -0.2658
  148SAPE  C31116404   0.893   1.718   9.384  0.2620  0.6324 -0.3391
  148SAPE  H11X16405   0.796   1.765   9.360 -0.1496 -0.0237 -0.0214
  148SAPE  H11Y16406   0.887   1.626   9.447 -1.3171 -0.1379 -1.5503
  148SAPE  C31216407   0.946   1.658   9.255 -0.2680  0.0062 -0.4041
  148SAPE  H12X16408   1.040   1.602   9.274 -0.5214 -0.2930 -0.0216
  148SAPE  H12Y16409   0.966   1.743   9.186 -1.4613  1.5191  1.0389
  148SAPE  C31316410   0.854   1.571   9.177 -0.2798 -0.0755  1.2328
  148SAPE  H13X16411   0.759   1.623   9.152 -0.4771 -1.0607 -0.1675
  148SAPE  H13Y16412   0.837   1.484   9.244 -0.8554 -0.9005  0.0379
  148SAPE  C31416413   0.911   1.519   9.044  0.2750  0.3782  0.5686
  148SAPE  H14X16414   0.943   1.413   9.048 -0.4384  0.1264 -0.1255
  148SAPE  H14Y16415   0.992   1.589   9.014  1.2589 -1.0969 -0.3582
  148SAPE  C31516416   0.812   1.514   8.929 -0.5419 -0.2013  0.0905
  148SAPE  H15X16417   0.788   1.621   8.909  1.4324  0.1572 -0.5757
  148SAPE  H15Y16418   0.715   1.468   8.959 -2.1715  2.7155 -0.2957
  148SAPE  C31616419   0.868   1.455   8.800  0.1445 -1.1588  0.2534
  148SAPE  H16X16420   0.970   1.498   8.794  0.0510 -1.1562 -2.6566
  148SAPE  H16Y16421   0.819   1.492   8.708 -1.5822 -2.5938  0.5331
  148SAPE  C31716422   0.862   1.310   8.779 -0.2859  0.6304  0.0353
  148SAPE  H17X16423   0.899   1.264   8.873 -0.5033 -0.8032 -0.5607
  148SAPE  H17Y16424   0.941   1.291   8.703  1.1888  1.0774  1.4190
  148SAPE  C31816425   0.727   1.251   8.725 -0.4187  0.0073  0.1349
  148SAPE  H18X16426   0.701   1.156   8.776  1.5996 -0.8955 -0.3986
  148SAPE  H18Y16427   0.739   1.238   8.615 -0.4753  1.7335 -0.1044
  148SAPE  H18Z16428   0.646   1.325   8.740  0.0618  0.5153  0.2902
  149SAPE     N16429   1.613   4.487  10.958  0.0835 -0.1768  0.1116
  149SAPE   HN116430   1.656   4.576  10.925 -2.3182  0.3732 -1.8224
  149SAPE   HN216431   1.515   4.516  10.979 -0.2306  1.3136 -2.8264
  149SAPE   HN316432   1.654   4.443  11.043  0.2210 -0.1378  0.0649
  149SAPE   C1216433   1.612   4.385  10.846  0.5090 -0.5862 -0.1654
  149SAPE  H12A16434   1.629   4.281  10.880 -0.5383 -0.8827 -0.5012
  149SAPE  H12B16435   1.691   4.422  10.777  1.5545 -0.4396  1.0580
  149SAPE   C1116436   1.477   4.394  10.767  0.1592 -0.1674  0.1662
  149SAPE  H11A16437   1.501   4.341  10.673  2.6061  1.2986 -0.1387
  149SAPE  H11B16438   1.454   4.496  10.728 -1.2309 -1.3134 -2.2104
  149SAPE     P16439   1.299   4.199  10.823 -0.1407 -0.0689  0.3466
  149SAPE   O1316440   1.379   4.097  10.898 -0.5318 -0.4842 -0.4708
  149SAPE   O1416441   1.159   4.209  10.846  0.1725 -0.6086  0.1357
  149SAPE   O1216442   1.366   4.338  10.840  0.2471  0.0324 -0.0378
  149SAPE   O1116443   1.327   4.181  10.671  0.3885 -0.0027 -0.0637
  149SAPE    C116444   1.251   4.267  10.580  0.5273  0.3298 -0.2325
  149SAPE    HA16445   1.146   4.287  10.610 -0.0554 -1.5831 -0.8893
  149SAPE    HB16446   1.290   4.371  10.574 -0.9730  1.0899  2.0067
  149SAPE    C216447   1.227   4.219  10.440 -0.0913  0.2222  0.4343
  149SAPE    HS16448   1.194   4.115  10.459 -0.9815  0.3149 -0.5218
  149SAPE   O2116449   1.347   4.215  10.359 -0.0371  0.1995 -0.3578
  149SAPE   C2116450   1.357   4.108  10.278 -0.0436  0.4533 -0.4503
  149SAPE   O2216451   1.288   4.011  10.278 -0.3825 -0.4589 -0.4454
  149SAPE   C2216452   1.497   4.110  10.216 -0.4275  0.3660  0.2003
  149SAPE   H2R16453   1.503   4.191  10.141 -0.6405 -0.3215 -0.5681
  149SAPE   H2S16454   1.557   4.125  10.308 -2.2860 -0.6007  1.6648
  149SAPE    C316455   1.121   4.305  10.363 -0.1834 -0.0572 -0.1593
  149SAPE    HX16456   1.168   4.404  10.343 -0.1694  0.1687  0.9024
  149SAPE    HY16457   1.032   4.318  10.428 -1.0460 -1.9872 -0.8845
  149SAPE   O3116458   1.073   4.265  10.232 -0.1202 -0.4149  0.0606
  149SAPE   C3116459   0.992   4.159  10.238  0.0763  0.5029  0.5019
  149SAPE   O3216460   0.950   4.105  10.333  0.0617  0.3176 -0.6829
  149SAPE   C3216461   0.957   4.116  10.093 -0.0104  0.3798 -0.4817
  149SAPE   H2X16462   0.930   4.202  10.029 -0.5596  0.8025  0.2977
  149SAPE   H2Y16463   0.875   4.041  10.101  1.8548 -1.9509 -1.9862
  149SAPE   C2316464   1.532   3.978  10.148 -0.6840  0.8916  0.1079
  149SAPE   H3R16465   1.445   3.927  10.102  0.2836  1.1663 -2.1154
  149SAPE   H3S16466   1.565   3.905  10.225  0.1107  0.9983 -0.1198
  149SAPE   C2416467   1.649   3.982  10.049 -0.0684 -0.0766 -0.1600
  149SAPE   H4R16468   1.682   3.877  10.035  1.7895  0.5629 -0.8088
  149SAPE   H4S16469   1.729   4.050  10.084 -0.2322  0.1386 -0.2037
  149SAPE   C2516470   1.597   4.038   9.920 -0.7911 -0.2429 -0.7303
  149SAPE   H5R16471   1.585   4.147   9.918  1.4553  0.2014  2.6640
  149SAPE   C2616472   1.571   3.963   9.815  0.4840  0.7642  0.0952
  149SAPE   H6R16473   1.537   4.016   9.725  0.9743 -1.3514 -1.4300
  149SAPE   C2716474   1.589   3.811   9.811  0.2395  0.4731  0.5920
  149SAPE   H7R16475   1.500   3.766   9.762  0.0747 -0.1381  1.4215
  149SAPE   H7S16476   1.575   3.766   9.911 -1.6666 -0.3817 -0.0145
  149SAPE   C2816477   1.716   3.756   9.753  0.2289  0.0773 -0.1586
  149SAPE   H8R16478   1.800   3.790   9.815  0.2822 -1.9519  0.9721
  149SAPE   C2916479   1.739   3.699   9.637  0.2159  0.1552  0.8555
  149SAPE   H9R16480   1.840   3.676   9.600  0.3143  1.2084  0.4256
  149SAPE  C21016481   1.635   3.662   9.536  0.7985  0.5193 -0.2871
  149SAPE  H10R16482   1.536   3.637   9.580  1.1007 -1.2425 -0.5337
  149SAPE  H10S16483   1.666   3.562   9.499 -1.4837 -0.4593  0.2674
  149SAPE  C21116484   1.616   3.752   9.408 -0.6414  0.2807 -0.7395
  149SAPE  H11R16485   1.547   3.838   9.410  0.9424  1.6252  1.9421
  149SAPE  C21216486   1.674   3.732   9.288 -0.0450  0.0061  0.0045
  149SAPE  H12R16487   1.661   3.798   9.201  0.2773 -1.4407 -1.1898
  149SAPE  C21316488   1.759   3.610   9.254 -0.2097 -0.2499 -0.2755
  149SAPE  H13R16489   1.704   3.513   9.248  0.9943 -0.9830  0.0965
  149SAPE  H13S16490   1.836   3.594   9.333 -0.2435 -2.7763 -0.6765
  149SAPE  C21416491   1.838   3.643   9.135 -0.8924  0.7218  0.2032
  149SAPE  H14R16492   1.919   3.715   9.147 -0.3455  0.3626 -1.1702
  149SAPE  C21516493   1.819   3.584   9.017  0.3546  0.0072  0.2516
  149SAPE  H15R16494   1.877   3.608   8.927 -1.2191 -2.8731 -1.6760
  149SAPE  C21616495   1.715   3.474   8.983 -0.5569 -0.4830 -0.1800
  149SAPE  H16R16496   1.606   3.493   8.993 -0.5111  1.5764 -2.6293
  149SAPE  H16S16497   1.724   3.387   9.052 -1.5301  0.5502  1.3072
  149SAPE  C21716498   1.746   3.426   8.843  0.0446  0.9491  0.7199
  149SAPE  H17R16499   1.690   3.330   8.829  0.2133  1.2150 -2.5325
  149SAPE  H17S16500   1.853   3.415   8.818 -0.1669  0.5350 -0.0563
  149SAPE  C21816501   1.684   3.521   8.734  0.5068  0.0517 -0.5690
  149SAPE  H18R16502   1.750   3.609   8.715 -0.2908  0.4994 -1.3644
  149SAPE  H18S16503   1.586   3.540   8.783  0.6731 -0.4293 -0.0410
  149SAPE  C21916504   1.649   3.446   8.602 -0.1055 -0.2920 -0.2866
  149SAPE  H19R16505   1.599   3.517   8.533  1.0766  1.7113  0.7893
  149SAPE  H19S16506   1.574   3.370   8.632 -0.6150  0.8400  1.4641
  149SAPE  C22016507   1.771   3.386   8.532 -0.6056  0.0176  0.5821
  149SAPE  H20R16508   1.747   3.339   8.435  1.9542 -0.6662  0.2173
  149SAPE  H20S16509   1.815   3.315   8.605  0.9259  0.5704  0.2154
  149SAPE  H20T16510   1.834   3.476   8.519 -0.9631  0.1615 -0.1906
  149SAPE   C3316511   1.073   4.031  10.029  0.6475 -0.4994 -0.3101
  149SAPE   H3X16512   1.083   3.939  10.091 -1.2118  1.4679  3.2266
  149SAPE   H3Y16513   1.173   4.076  10.014  0.2222  0.5133 -0.2044
  149SAPE   C3416514   1.037   3.991   9.886 -0.0951 -0.4729  0.2570
  149SAPE   H4X16515   1.032   4.083   9.824 -0.9459 -0.0437  0.9423
  149SAPE   H4Y16516   0.937   3.941   9.885  0.3000 -1.3706  1.8894
  149SAPE   C3516517   1.138   3.891   9.821  0.3666  0.4599  0.0467
  149SAPE   H5X16518   1.141   3.795   9.878 -0.4094  0.3754 -0.0494
  149SAPE   H5Y16519   1.241   3.931   9.834 -0.3083  2.2823 -0.0107
  149SAPE   C3616520   1.104   3.879   9.672  0.1739  0.0224  0.2444
  149SAPE   H6X16521   1.083   3.977   9.623 -0.9986 -0.5536 -0.4288
  149SAPE   H6Y16522   1.010   3.822   9.663 -0.0723  0.6691 -2.0101
  149SAPE   C3716523   1.204   3.792   9.595 -0.3976 -0.1317 -0.0906
  149SAPE   H7X16524   1.176   3.692   9.634 -1.3929  0.8148  1.7443
  149SAPE   H7Y16525   1.303   3.819   9.638 -0.3422  0.2792 -0.4762
  149SAPE   C3816526   1.215   3.820   9.445 -0.1084  0.5898 -0.2718
  149SAPE   H8X16527   1.276   3.740   9.397  0.5213 -0.9601  2.8965
  149SAPE   H8Y16528   1.280   3.908   9.423  0.4095  0.1843 -0.4002
  149SAPE   C3916529   1.084   3.842   9.366 -0.7473  0.1197 -0.6246
  149SAPE   H9X16530   1.051   3.940   9.406  0.4058  0.0090  0.7072
  149SAPE   H9Y16531   1.004   3.767   9.382 -1.3983  1.4822  3.5637
  149SAPE  C31016532   1.107   3.839   9.217  0.7557  0.7280 -0.2594
  149SAPE  H10X16533   1.011   3.859   9.166  0.6847  0.8184 -0.0895
  149SAPE  H10Y16534   1.140   3.739   9.182 -2.3903 -0.2900 -0.5771
  149SAPE  C31116535   1.216   3.936   9.174  0.2401 -0.1897  0.8356
  149SAPE  H11X16536   1.317   3.889   9.174  0.8086  0.9873  0.2271
  149SAPE  H11Y16537   1.218   4.031   9.233  1.4905  0.2555  0.1168
  149SAPE  C31216538   1.192   3.987   9.021 -0.9534 -0.1144 -1.0262
  149SAPE  H12X16539   1.274   4.058   8.994  0.4006 -1.8609 -1.7510
  149SAPE  H12Y16540   1.095   4.040   9.023 -0.2961  1.1445 -1.1991
  149SAPE  C31316541   1.199   3.875   8.923  0.3674  0.0994  0.0602
  149SAPE  H13X16542   1.110   3.809   8.932  1.0507 -1.2430 -2.0962
  149SAPE  H13Y16543   1.289   3.813   8.947 -0.7847 -2.0196 -0.7832
  149SAPE  C31416544   1.194   3.931   8.786 -0.7327 -0.8495 -0.0497
  149SAPE  H14X16545   1.281   3.999   8.774  1.2667 -3.0458  1.1295
  149SAPE  H14Y16546   1.099   3.988   8.774 -0.4507 -0.5234 -0.7467
  149SAPE  C31516547   1.222   3.821   8.689 -0.1374  0.4002  0.4623
  149SAPE  H15X16548   1.276   3.737   8.738  1.2322 -1.2515 -3.4374
  149SAPE  H15Y16549   1.297   3.863   8.618  0.7289  0.1575  1.2146
  149SAPE  C31616550   1.098   3.778   8.625  0.8294  0.2626  0.5958
  149SAPE  H16X16551   1.041   3.868   8.591  1.5735  0.8984  0.9911
  149SAPE  H16Y16552   1.042   3.723   8.703  2.2023 -3.2175 -0.6894
  149SAPE  C31716553   1.121   3.664   8.522  0.6766  0.6301  0.4016
  149SAPE  H17X16554   1.147   3.699   8.420 -2.4364 -1.1833 -1.1828
  149SAPE  H17Y16555   1.016   3.631   8.504  0.8000 -0.0887  0.9791
  149SAPE  C31816556   1.218   3.549   8.554  0.1349 -0.4742  0.7683
  149SAPE  H18X16557   1.325   3.573   8.574  1.1343 -0.4888 -3.5153
  149SAPE  H18Y16558   1.216   3.478   8.469 -0.0936  0.4614 -0.0203
  149SAPE  H18Z16559   1.180   3.482   8.634  0.9421 -1.4751  0.3309
  150SAPE     N16560   3.735   4.600  10.426 -0.1693 -0.6887 -0.1457
  150SAPE   HN116561   3.639   4.640  10.427 -0.0216 -0.2979 -0.9992
  150SAPE   HN216562   3.739   4.520  10.492  2.4226  0.4590  1.2480
  150SAPE   HN316563   3.792   4.679  10.463 -3.3020  1.6601  0.1133
  150SAPE   C1216564   3.781   4.574  10.277 -0.5480  0.3193 -0.0196
  150SAPE  H12A16565   3.891   4.575  10.263 -0.7449 -0.3845 -1.8739
  150SAPE  H12B16566   3.744   4.660  10.218 -2.0810 -0.3229 -0.0304
  150SAPE   C1116567   3.719   4.449  10.211  0.0079  0.2779 -0.1529
  150SAPE  H11A16568   3.741   4.451  10.102  1.6658 -0.9881  0.1346
  150SAPE  H11B16569   3.610   4.460  10.232 -0.0675 -0.6983  0.0148
  150SAPE     P16570   3.696   4.198  10.270 -0.3605  0.2754 -0.4630
  150SAPE   O1316571   3.788   4.085  10.304 -0.1288  0.3086 -0.1056
  150SAPE   O1416572   3.577   4.207  10.356  0.0216 -0.4287  0.3926
  150SAPE   O1216573   3.774   4.333  10.277 -0.4503 -0.3216  0.0138
  150SAPE   O1116574   3.649   4.178  10.121 -0.0818  0.2114 -0.1221
  150SAPE    C116575   3.627   4.046  10.064  0.9807 -0.1696  0.5041
  150SAPE    HA16576   3.594   3.974  10.142 -1.2006  1.1541  0.8844
  150SAPE    HB16577   3.542   4.048   9.993  0.3332 -1.0880  1.2273
  150SAPE    C216578   3.735   3.968   9.994 -0.1959 -0.0140  0.0390
  150SAPE    HS16579   3.827   3.983  10.055 -0.0726 -1.2243  0.1592
  150SAPE   O2116580   3.751   4.009   9.857 -0.0042  0.4176  0.1985
  150SAPE   C2116581   3.810   4.124   9.840  0.7004 -0.0440  0.9840
  150SAPE   O2216582   3.869   4.187   9.927 -0.3728 -0.4461  0.3598
  150SAPE   C2216583   3.774   4.159   9.690 -0.6200  0.1040  0.0155
  150SAPE   H2R16584   3.811   4.070   9.635  3.2783  2.4743 -1.6331
  150SAPE   H2S16585   3.663   4.163   9.689 -0.8036 -2.5627  1.7437
  150SAPE    C316586   3.706   3.815   9.995  0.3230 -0.4394  0.4081
  150SAPE    HX16587   3.598   3.808   9.971  0.3026  1.1090 -0.0459
  150SAPE    HY16588   3.730   3.775  10.096  0.4407  0.7777  0.8861
  150SAPE   O3116589   3.776   3.739   9.897 -0.0443 -0.0512  0.3092
  150SAPE   C3116590   3.903   3.722   9.913 -0.1774 -0.0692  0.5202
  150SAPE   O3216591   3.973   3.759  10.007 -0.3011  0.0989 -0.7964
  150SAPE   C3216592   3.973   3.668   9.785  0.2097 -0.4755 -0.0816
  150SAPE   H2X16593   3.928   3.569   9.767  0.4917 -0.9365  1.5563
  150SAPE   H2Y16594   4.079   3.672   9.821 -0.5352 -2.2786  2.5696
  150SAPE   C2316595   3.841   4.286   9.644 -0.5103 -0.2153 -0.0633
  150SAPE   H3R16596   3.944   4.245   9.631 -0.1121 -0.0980  2.2741
  150SAPE   H3S16597   3.850   4.371   9.715 -1.8168 -0.8076  0.8485
  150SAPE   C2416598   3.791   4.336   9.515  0.4516 -0.1062  0.0684
  150SAPE   H4R16599   3.697   4.393   9.532 -0.2659 -1.2054 -0.1055
  150SAPE   H4S16600   3.767   4.247   9.453 -1.3046 -0.0861  0.6584
  150SAPE   C2516601   3.892   4.430   9.456  0.8236  0.4597  0.3738
  150SAPE   H5R16602   3.964   4.471   9.529  1.9188 -1.9238  0.7340
  150SAPE   C2616603   3.901   4.458   9.328  0.1139  0.0248 -0.3094
  150SAPE   H6R16604   3.992   4.510   9.295 -0.5563  0.0278 -2.2891
  150SAPE   C2716605   3.811   4.414   9.215 -0.8852  0.2748 -0.4326
  150SAPE   H7R16606   3.703   4.411   9.240 -0.5779  1.6200  1.2514
  150SAPE   H7S16607   3.833   4.309   9.186 -2.2249 -1.1699  3.2332
  150SAPE   C2816608   3.822   4.506   9.095 -0.5334 -0.3100  0.3431
  150SAPE   H8R16609   3.790   4.605   9.130 -0.1482  1.4289 -3.7065
  150SAPE   C2916610   3.849   4.476   8.968 -0.0881  0.0263  0.0586
  150SAPE   H9R16611   3.863   4.561   8.900 -0.8176  0.7555  0.7981
  150SAPE  C21016612   3.896   4.339   8.916  0.6294  0.4025 -0.6034
  150SAPE  H10R16613   3.829   4.296   8.838 -1.8104  0.1314  1.4964
  150SAPE  H10S16614   3.891   4.261   8.996 -1.1865 -1.1303 -2.1062
  150SAPE  C21116615   4.041   4.344   8.873 -0.6739 -0.4267  0.2961
  150SAPE  H11R16616   4.107   4.283   8.936 -0.2315 -0.2086  0.0477
  150SAPE  C21216617   4.089   4.391   8.752  0.6405 -0.2324 -0.3650
  150SAPE  H12R16618   4.197   4.412   8.748  0.0660  3.9750  0.8176
  150SAPE  C21316619   3.999   4.459   8.646  0.1025  0.2784 -0.6198
  150SAPE  H13R16620   4.061   4.520   8.576  0.1857  1.5379  0.5113
  150SAPE  H13S16621   3.928   4.527   8.697 -0.3624 -2.3531  2.6067
  150SAPE  C21416622   3.916   4.374   8.557  0.1612 -0.1918  0.1498
  150SAPE  H14R16623   3.806   4.382   8.563  0.0792 -0.2818 -0.9661
  150SAPE  C21516624   3.964   4.287   8.467  0.2838  0.3804  0.4334
  150SAPE  H15R16625   3.889   4.239   8.403 -1.6486  2.0264  1.3662
  150SAPE  C21616626   4.107   4.245   8.437 -0.3058  0.7624  0.3140
  150SAPE  H16R16627   4.127   4.170   8.516 -1.4541 -0.5328 -0.5694
  150SAPE  H16S16628   4.191   4.314   8.460  1.2008 -1.1712  0.8673
  150SAPE  C21716629   4.126   4.193   8.292  0.5238 -0.3656  0.0123
  150SAPE  H17R16630   4.097   4.087   8.308  1.2091 -0.3616  1.3425
  150SAPE  H17S16631   4.234   4.181   8.270  0.7338 -2.8972  1.9682
  150SAPE  C21816632   4.038   4.265   8.188 -0.0596 -0.2202  0.2204
  150SAPE  H18R16633   4.045   4.374   8.211  0.4419  0.0503 -1.0705
  150SAPE  H18S16634   3.931   4.236   8.195 -0.5123  1.7488  2.6799
  150SAPE  C21916635   4.084   4.233   8.046 -0.2823 -0.2844  0.7722
  150SAPE  H19R16636   4.095   4.122   8.037  0.5093 -0.1039 -0.9814
  150SAPE  H19S16637   4.183   4.283   8.036  0.1313 -1.2687 -0.2742
  150SAPE  C22016638   3.989   4.289   7.943  0.1588 -0.3931 -0.1184
  150SAPE  H20R16639   3.894   4.234   7.923 -2.0714  1.6598  3.7432
  150SAPE  H20S16640   4.046   4.295   7.847  0.5857 -1.5674  0.0377
  150SAPE  H20T16641   3.960   4.393   7.970 -1.2074 -0.8854  0.3981
  150SAPE   C3316642   3.952   3.760   9.663 -1.1921  0.5464 -0.2008
  150SAPE   H3X16643   3.917   3.862   9.693 -1.7591  0.5028 -0.6896
  150SAPE   H3Y16644   3.868   3.711   9.609 -0.8166 -2.3703  1.6647
  150SAPE   C3416645   4.080   3.771   9.579  0.4661  0.6143  0.7780
  150SAPE   H4X16646   4.127   3.672   9.560  1.3106  0.9406  1.1069
  150SAPE   H4Y16647   4.158   3.836   9.625  1.9872 -0.3143 -0.3620
  150SAPE   C3516648   4.045   3.829   9.442 -0.2942 -0.0098 -0.3272
  150SAPE   H5X16649   3.940   3.803   9.416 -0.8516  0.8822  0.9295
  150SAPE   H5Y16650   4.118   3.787   9.370  1.5886 -2.4992  2.7851
  150SAPE   C3616651   4.050   3.983   9.439 -0.5012  0.1781  0.1418
  150SAPE   H6X16652   4.152   4.025   9.431 -0.4595  0.8717  3.2050
  150SAPE   H6Y16653   4.014   4.011   9.540  0.7379 -0.9305  0.9319
  150SAPE   C3716654   3.955   4.060   9.334  0.1666 -0.0911 -0.1868
  150SAPE   H7X16655   3.981   4.168   9.338 -1.1921  0.3193 -1.3974
  150SAPE   H7Y16656   3.853   4.041   9.373 -0.2852 -0.7201 -1.5899
  150SAPE   C3816657   3.966   4.022   9.188  0.2919  0.5900  0.4860
  150SAPE   H8X16658   3.891   4.075   9.125  0.4964 -0.3740 -0.5989
  150SAPE   H8Y16659   3.946   3.913   9.184 -1.9405  0.8574  2.2697
  150SAPE   C3916660   4.104   4.038   9.126  0.8568 -0.0181 -0.3476
  150SAPE   H9X16661   4.176   3.968   9.172  1.8501  1.2843  0.1471
  150SAPE   H9Y16662   4.138   4.142   9.149 -0.6081  0.6827 -1.1752
  150SAPE  C31016663   4.098   3.999   8.980  0.2332 -0.0511  0.4357
  150SAPE  H10X16664   4.039   4.068   8.916  0.8416 -0.1591 -0.2554
  150SAPE  H10Y16665   4.050   3.900   8.968  0.1626  0.1488 -1.1970
  150SAPE  C31116666   4.238   3.981   8.905  0.6841 -0.3370 -0.1678
  150SAPE  H11X16667   4.302   3.900   8.946  1.2312  1.1654  2.1603
  150SAPE  H11Y16668   4.306   4.063   8.933 -0.0145  0.7847 -1.6179
  150SAPE  C31216669   4.223   3.973   8.750  0.5406  0.3669  0.6049
  150SAPE  H12X16670   4.315   4.012   8.701  0.9393 -1.5010 -0.2596
  150SAPE  H12Y16671   4.140   4.043   8.726  1.8209  1.8083  0.2701
  150SAPE  C31316672   4.189   3.834   8.707  0.4970 -0.2512  0.2887
  150SAPE  H13X16673   4.110   3.784   8.768  1.7421 -1.9127  0.6276
  150SAPE  H13Y16674   4.275   3.765   8.717  1.6276  1.0543 -0.2419
  150SAPE  C31416675   4.146   3.824   8.562 -0.0575 -0.2594  0.1206
  150SAPE  H14X16676   4.217   3.871   8.490 -1.0373  0.2477 -0.5345
  150SAPE  H14Y16677   4.054   3.884   8.547  0.1278 -0.0724 -0.2965
  150SAPE  C31516678   4.121   3.680   8.512 -0.2341 -0.2444  1.5438
  150SAPE  H15X16679   4.035   3.633   8.564 -2.6610 -0.4780 -2.3321
  150SAPE  H15Y16680   4.208   3.611   8.520 -1.3252 -1.9806 -0.4704
  150SAPE  C31616681   4.074   3.676   8.362  0.0938 -0.2712 -0.2271
  150SAPE  H16X16682   4.158   3.714   8.301 -0.9559  0.0073 -1.5439
  150SAPE  H16Y16683   3.994   3.752   8.350  0.8292  0.6541  0.6292
  150SAPE  C31716684   4.017   3.531   8.319 -0.0604 -0.1687 -0.3434
  150SAPE  H17X16685   3.949   3.503   8.402 -0.2096 -0.9262 -0.7113
  150SAPE  H17Y16686   4.103   3.461   8.311  0.8457  0.9821 -0.9249
  150SAPE  C31816687   3.944   3.529   8.183  0.5559  0.5402 -0.4932
  150SAPE  H18X16688   3.912   3.424   8.168 -3.5200  0.9139  3.4226
  150SAPE  H18Y16689   4.000   3.569   8.096  1.4759 -0.5825 -0.4397
  150SAPE  H18Z16690   3.856   3.595   8.200  1.3248  1.1945  1.2207
  151SAPE     N16691   3.382   0.713  10.587  0.3000 -0.3897  0.1570
  151SAPE   HN116692   3.350   0.807  10.616  0.2097 -0.8167  1.4882
  151SAPE   HN216693   3.434   0.657  10.657  1.7158 -1.1976 -1.4634
  151SAPE   HN316694   3.460   0.729  10.521 -0.6979  1.7842 -0.5970
  151SAPE   C1216695   3.272   0.636  10.514 -0.4667 -0.2020  0.2345
  151SAPE  H12A16696   3.216   0.573  10.586  0.2052 -1.4363 -0.2959
  151SAPE  H12B16697   3.316   0.564  10.441 -0.1645  0.2074  0.0069
  151SAPE   C1116698   3.192   0.740  10.437 -0.2131 -0.2966  0.3755
  151SAPE  H11A16699   3.129   0.682  10.366  0.1976  1.3415 -1.4156
  151SAPE  H11B16700   3.264   0.813  10.394  1.5974 -0.4527  2.9121
  151SAPE     P16701   3.011   0.925  10.491 -0.5975 -0.0354  0.0874
  151SAPE   O1316702   2.933   0.969  10.610  0.6302  0.1128 -0.7154
  151SAPE   O1416703   3.086   1.027  10.418 -0.1997  0.3882 -0.3345
  151SAPE   O1216704   3.113   0.808  10.537 -0.1153 -0.7548  0.4144
  151SAPE   O1116705   2.910   0.842  10.398 -0.1651  0.4656  0.6721
  151SAPE    C116706   2.804   0.898  10.322 -0.6506 -0.2595 -0.0326
  151SAPE    HA16707   2.709   0.867  10.371 -0.9406 -0.6466 -0.8136
  151SAPE    HB16708   2.817   1.007  10.304 -1.5604 -0.0418  0.5663
  151SAPE    C216709   2.779   0.840  10.180  0.0284 -0.1960  0.1065
  151SAPE    HS16710   2.742   0.735  10.187 -0.8537  0.1755  1.4216
  151SAPE   O2116711   2.904   0.852  10.105 -0.2297 -0.1171  0.2758
  151SAPE   C2116712   2.974   0.743  10.090 -0.2740  0.3263 -0.0640
  151SAPE   O2216713   2.949   0.632  10.141 -0.4906  0.0488 -0.3804
  151SAPE   C2216714   3.106   0.772  10.010  0.7359 -0.1868 -0.2043
  151SAPE   H2R16715   3.071   0.775   9.904  0.0030 -0.1738  0.0325
  151SAPE   H2S16716   3.146   0.871  10.040  4.4193 -2.1340  2.0157
  151SAPE    C316717   2.675   0.929  10.099  0.3125 -0.4504 -0.8586
  151SAPE    HX16718   2.730   1.026  10.107 -0.2874 -0.2203  0.9833
  151SAPE    HY16719   2.575   0.933  10.147  1.0234 -0.3587  0.7015
  151SAPE   O3116720   2.684   0.883   9.967 -0.1380  0.4989 -0.3514
  151SAPE   C3116721   2.599   0.784   9.938 -0.9841  0.0839  0.8115
  151SAPE   O3216722   2.536   0.728  10.025 -0.2457 -0.3890  0.2695
  151SAPE   C3216723   2.586   0.755   9.783 -0.0425  0.0437 -0.0347
  151SAPE   H2X16724   2.476   0.762   9.766 -0.0695  0.7801  0.4278
  151SAPE   H2Y16725   2.621   0.651   9.763  3.2482  1.1351 -0.4631
  151SAPE   C2316726   3.208   0.666  10.024 -0.1139  0.6814  0.4426
  151SAPE   H3R16727   3.166   0.564  10.024 -0.8461  0.9700  1.4188
  151SAPE   H3S16728   3.261   0.666  10.122  0.6376 -1.8990  0.1218
  151SAPE   C2416729   3.327   0.660   9.925 -0.3361  0.2259  0.0396
  151SAPE   H4R16730   3.427   0.653   9.972  0.2200  0.4792 -1.0655
  151SAPE   H4S16731   3.335   0.755   9.867 -1.0306 -1.2262 -2.6261
  151SAPE   C2516732   3.314   0.540   9.828 -0.3145 -0.2692 -0.2339
  151SAPE   H5R16733   3.375   0.449   9.845 -1.1587 -0.6350  0.9671
  151SAPE   C2616734   3.260   0.560   9.703  0.0501 -0.1259  0.2223
  151SAPE   H6R16735   3.255   0.467   9.645  0.6552  1.1307 -1.9592
  151SAPE   C2716736   3.186   0.679   9.639  0.4713  0.4911 -0.1838
  151SAPE   H7R16737   3.260   0.759   9.616 -0.3716  1.3476  0.0481
  151SAPE   H7S16738   3.120   0.730   9.712  1.3377  0.0922  0.9081
  151SAPE   C2816739   3.093   0.634   9.523 -0.2476 -0.3496 -0.5253
  151SAPE   H8R16740   3.035   0.542   9.538 -0.7684  0.1170  0.3641
  151SAPE   C2916741   3.090   0.696   9.404  1.2856 -0.4324 -0.3970
  151SAPE   H9R16742   3.019   0.645   9.338  0.2854 -1.1732  1.1775
  151SAPE  C21016743   3.161   0.823   9.368 -0.4957  0.4284  0.6662
  151SAPE  H10R16744   3.212   0.807   9.271 -0.2235 -2.2045  1.1716
  151SAPE  H10S16745   3.244   0.853   9.436 -0.3186  0.0949  0.6000
  151SAPE  C21116746   3.061   0.928   9.346 -0.1216 -0.6123  0.8679
  151SAPE  H11R16747   3.012   0.961   9.438  0.1543  0.5487  0.6133
  151SAPE  C21216748   3.036   1.001   9.234  0.0076  0.7006 -0.1086
  151SAPE  H12R16749   2.953   1.073   9.241 -0.7706 -0.3170  2.6820
  151SAPE  C21316750   3.076   0.968   9.090 -0.4961 -0.2336 -0.0777
  151SAPE  H13R16751   2.985   0.979   9.028 -0.5910  1.4071  0.3082
  151SAPE  H13S16752   3.092   0.858   9.079 -2.8856 -0.4722 -2.1543
  151SAPE  C21416753   3.184   1.056   9.031  0.1371  1.0392  0.0294
  151SAPE  H14R16754   3.289   1.031   9.054  0.4374  1.9779 -0.2797
  151SAPE  C21516755   3.167   1.157   8.944  0.3857 -0.0549 -0.1648
  151SAPE  H15R16756   3.261   1.180   8.891  1.0012  0.1504  0.9791
  151SAPE  C21616757   3.039   1.218   8.892 -0.6400 -0.1985 -0.2619
  151SAPE  H16R16758   2.953   1.156   8.925 -0.0234 -1.6996 -1.3434
  151SAPE  H16S16759   3.028   1.215   8.781  2.4466 -2.9665 -0.6641
  151SAPE  C21716760   3.004   1.362   8.935 -0.4209  0.1215  0.8418
  151SAPE  H17R16761   2.922   1.414   8.881 -2.7216 -0.2126  3.7788
  151SAPE  H17S16762   3.094   1.425   8.921 -0.5074  0.4083  1.5652
  151SAPE  C21816763   2.972   1.352   9.086  0.5656 -0.0984  0.8155
  151SAPE  H18R16764   3.011   1.442   9.138  0.8371  0.3315 -0.1016
  151SAPE  H18S16765   3.033   1.277   9.140  1.5283  1.3716  1.8730
  151SAPE  C21916766   2.826   1.349   9.125  0.3633 -0.7408  0.0696
  151SAPE  H19R16767   2.791   1.248   9.095  1.5271 -2.1178  2.9918
  151SAPE  H19S16768   2.775   1.435   9.076  0.0068 -1.0524 -0.1107
  151SAPE  C22016769   2.787   1.366   9.271  1.0136 -0.3385 -0.5047
  151SAPE  H20R16770   2.788   1.275   9.335 -2.2082 -0.7000 -0.7962
  151SAPE  H20S16771   2.687   1.414   9.284  1.3220  0.2156 -0.1729
  151SAPE  H20T16772   2.867   1.430   9.315 -0.3813  0.1813  1.4465
  151SAPE   C3316773   2.663   0.851   9.687  0.2460 -0.1299  0.5209
  151SAPE   H3X16774   2.773   0.834   9.695  0.7142  2.2512  0.0094
  151SAPE   H3Y16775   2.653   0.957   9.718  1.4654 -0.0393  0.6758
  151SAPE   C3416776   2.626   0.827   9.540  0.5198 -0.3061 -0.0622
  151SAPE   H4X16777   2.518   0.849   9.521  0.9518  0.1382 -2.3544
  151SAPE   H4Y16778   2.652   0.722   9.518 -0.7612 -0.4256 -1.1321
  151SAPE   C3516779   2.710   0.920   9.448  0.0431  0.2003  0.6719
  151SAPE   H5X16780   2.817   0.911   9.477  0.9517 -0.9577 -2.6366
  151SAPE   H5Y16781   2.673   1.024   9.464 -0.5509 -0.2737  2.6254
  151SAPE   C3616782   2.701   0.890   9.296  0.1160 -0.0551 -0.1525
  151SAPE   H6X16783   2.778   0.812   9.281  1.0859  0.7364  0.6077
  151SAPE   H6Y16784   2.734   0.976   9.234 -2.0307 -0.5792 -2.1990
  151SAPE   C3716785   2.563   0.846   9.234  0.2462  0.5667  0.8191
  151SAPE   H7X16786   2.480   0.917   9.252 -1.8364 -1.2300 -1.0213
  151SAPE   H7Y16787   2.533   0.749   9.280  0.3531  1.2961  2.4861
  151SAPE   C3816788   2.561   0.827   9.078  0.2474 -0.1125 -0.6386
  151SAPE   H8X16789   2.458   0.801   9.047  0.5091 -1.2518 -0.6125
  151SAPE   H8Y16790   2.634   0.746   9.057  1.6554  1.2699 -1.2656
  151SAPE   C3916791   2.618   0.948   8.992  0.0541 -0.8767  0.0663
  151SAPE   H9X16792   2.725   0.953   9.019 -0.3362  2.5252  1.5206
  151SAPE   H9Y16793   2.573   1.045   9.023 -0.3975 -1.1883  0.3948
  151SAPE  C31016794   2.592   0.939   8.842  0.2018 -0.5558 -0.0168
  151SAPE  H10X16795   2.489   0.978   8.827  0.2700 -0.0439  0.7807
  151SAPE  H10Y16796   2.597   0.832   8.812 -1.0265 -0.6061 -0.0876
  151SAPE  C31116797   2.702   1.020   8.771  0.5471 -0.4860 -0.6758
  151SAPE  H11X16798   2.793   1.016   8.835 -0.1339 -0.8749  0.2967
  151SAPE  H11Y16799   2.664   1.124   8.782  0.7904 -0.0982 -3.0202
  151SAPE  C31216800   2.722   0.989   8.625  0.3924 -0.3283  0.0568
  151SAPE  H12X16801   2.789   1.070   8.589 -0.7936  1.3429  1.4497
  151SAPE  H12Y16802   2.625   0.987   8.570 -1.0892  0.0184  2.5092
  151SAPE  C31316803   2.785   0.848   8.619  0.5016  0.8411  0.3482
  151SAPE  H13X16804   2.729   0.771   8.675 -0.3791  0.1023 -1.4562
  151SAPE  H13Y16805   2.875   0.861   8.683  3.5688 -3.8077 -2.4223
  151SAPE  C31416806   2.829   0.798   8.481 -0.3321 -0.5903  0.8103
  151SAPE  H14X16807   2.890   0.872   8.425  0.2119  0.0571  2.2165
  151SAPE  H14Y16808   2.739   0.765   8.425  0.7585  1.7802 -2.6414
  151SAPE  C31516809   2.919   0.667   8.495  0.5335 -0.2842 -0.3993
  151SAPE  H15X16810   2.861   0.597   8.560  0.4899  0.9620  0.9567
  151SAPE  H15Y16811   3.014   0.694   8.545  0.5871  0.6041 -0.9711
  151SAPE  C31616812   2.943   0.590   8.367  0.0135  0.5680 -1.0188
  151SAPE  H16X16813   3.005   0.664   8.312  0.6899  0.1386 -0.8422
  151SAPE  H16Y16814   2.848   0.566   8.314 -1.3529  0.3915  1.3586
  151SAPE  C31716815   3.024   0.458   8.387 -0.0164  0.0787  0.2938
  151SAPE  H17X16816   3.124   0.498   8.417  1.5050 -0.0897 -3.9212
  151SAPE  H17Y16817   3.045   0.417   8.286  3.3972  0.7132  0.6038
  151SAPE  C31816818   2.969   0.355   8.486  0.3466  0.2845 -0.4570
  151SAPE  H18X16819   3.024   0.261   8.508  0.4390  0.1194 -1.3313
  151SAPE  H18Y16820   2.864   0.324   8.466 -0.0179  0.8557  0.5049
  151SAPE  H18Z16821   2.961   0.409   8.583  2.2082 -1.2431  0.6138
  152SAPE     N16822   5.550   0.473  11.290  0.3320  0.5141  0.7257
  152SAPE   HN116823   5.532   0.551  11.357  1.3014  0.3801  1.1627
  152SAPE   HN216824   5.534   0.383  11.340 -0.2528  0.2459  0.0642
  152SAPE   HN316825   5.654   0.467  11.280  0.2994 -0.8032  0.9839
  152SAPE   C1216826   5.467   0.478  11.168 -0.5695 -0.1861  0.5471
  152SAPE  H12A16827   5.459   0.581  11.129  0.1271  0.0340  0.9561
  152SAPE  H12B16828   5.359   0.463  11.186 -0.2594 -1.2890  1.6277
  152SAPE   C1116829   5.529   0.384  11.056 -0.7682  0.2963 -0.3474
  152SAPE  H11A16830   5.637   0.409  11.053 -0.5766 -0.4354  0.1089
  152SAPE  H11B16831   5.476   0.425  10.968 -2.9236 -1.6916 -0.0560
  152SAPE     P16832   5.398   0.166  11.030  0.0169 -0.4333  0.1227
  152SAPE   O1316833   5.380   0.050  11.117 -0.0609 -0.5183 -0.5798
  152SAPE   O1416834   5.279   0.258  11.018  0.6019  0.2369 -0.0100
  152SAPE   O1216835   5.523   0.247  11.075  0.1522  0.3774  0.2026
  152SAPE   O1116836   5.430   0.106  10.883 -0.4441 -0.0438 -0.0176
  152SAPE    C116837   5.472   0.194  10.780 -0.2755 -0.4110  0.4637
  152SAPE    HA16838   5.409   0.284  10.765 -0.3442 -0.8657 -2.8617
  152SAPE    HB16839   5.573   0.237  10.801  0.8121 -1.8785 -1.3465
  152SAPE    C216840   5.487   0.119  10.646 -0.9521  0.2471 -0.9967
  152SAPE    HS16841   5.560   0.176  10.585  1.6977 -3.3469 -1.5732
  152SAPE   O2116842   5.363   0.104  10.580 -0.3770 -0.6050 -0.2157
  152SAPE   C2116843   5.310   0.214  10.529 -0.0276  0.8911  0.6947
  152SAPE   O2216844   5.368   0.321  10.526  0.1627  0.2191 -0.1507
  152SAPE   C2216845   5.175   0.183  10.473 -0.3119  0.0752 -0.5376
  152SAPE   H2R16846   5.150   0.077  10.495 -1.6012  0.4815  0.0593
  152SAPE   H2S16847   5.104   0.241  10.536  0.0198  2.6694 -2.3573
  152SAPE    C316848   5.568  -0.011  10.659 -0.0293  0.1386  0.3430
  152SAPE    HX16849   5.513  -0.080  10.727 -1.7252  0.8782 -0.2207
  152SAPE    HY16850   5.669   0.005  10.703 -0.9426  2.4771  1.7374
  152SAPE   O3116851   5.588  -0.068  10.527 -1.0747 -0.2379  0.0253
  152SAPE   C3116852   5.497  -0.157  10.493  0.4834  0.3886 -0.1088
  152SAPE   O3216853   5.409  -0.196  10.567  0.3301  0.3546  0.2763
  152SAPE   C3216854   5.528  -0.215  10.354 -0.2396  0.3760 -0.1607
  152SAPE   H2X16855   5.517  -0.325  10.347 -0.2610  0.4614 -1.7780
  152SAPE   H2Y16856   5.634  -0.192  10.331 -0.6844  0.8750 -1.8385
  152SAPE   C2316857   5.178   0.224  10.326  0.6001  0.5681  0.2966
  152SAPE   H3R16858   5.277   0.194  10.285 -0.8053 -3.0512 -0.7819
  152SAPE   H3S16859   5.167   0.334  10.310 -0.9676  0.3466 -0.3227
  152SAPE   C2416860   5.077   0.146  10.243  1.2795 -0.0749 -0.0158
  152SAPE   H4R16861   5.086   0.038  10.271  0.7379 -0.1625 -0.1756
  152SAPE   H4S16862   5.102   0.152  10.135  0.4310 -0.5661 -0.2521
  152SAPE   C2516863   4.938   0.199  10.270 -0.5476  0.7740  0.3245
  152SAPE   H5R16864   4.879   0.145  10.346 -2.0709 -0.8368 -1.8811
  152SAPE   C2616865   4.879   0.295  10.205 -0.0347 -0.7819  0.8491
  152SAPE   H6R16866   4.786   0.333  10.249  0.2463  0.1759  0.6559
  152SAPE   C2716867   4.949   0.383  10.104 -0.0650  0.2620 -0.4299
  152SAPE   H7R16868   5.055   0.392  10.134 -0.7185  1.2042  1.7483
  152SAPE   H7S16869   4.917   0.489  10.114  0.3090  0.1459  3.5717
  152SAPE   C2816870   4.929   0.328   9.964 -0.9410 -0.0083  0.0518
  152SAPE   H8R16871   4.931   0.218   9.966  1.9001 -0.0231  0.0016
  152SAPE   C2916872   4.894   0.403   9.858  0.4962 -0.4530 -0.4987
  152SAPE   H9R16873   4.869   0.355   9.763 -0.4929  0.0370 -0.4933
  152SAPE  C21016874   4.880   0.556   9.854 -0.1267 -0.4260  0.1752
  152SAPE  H10R16875   4.874   0.595   9.958 -2.3355  1.1338 -0.4537
  152SAPE  H10S16876   4.781   0.584   9.812  0.8722  1.9593 -0.7588
  152SAPE  C21116877   4.986   0.623   9.778 -0.1079  0.2172 -0.2914
  152SAPE  H11R16878   5.080   0.625   9.836 -0.2816 -0.8650  0.0643
  152SAPE  C21216879   4.991   0.671   9.652 -0.2054 -0.6197 -0.7739
  152SAPE  H12R16880   5.082   0.718   9.612 -1.2415  1.0654 -1.2263
  152SAPE  C21316881   4.879   0.681   9.552 -0.3686 -0.7073  0.2286
  152SAPE  H13R16882   4.786   0.683   9.613 -0.2833 -1.4152  0.3923
  152SAPE  H13S16883   4.882   0.580   9.505  1.5009  0.0688 -1.4587
  152SAPE  C21416884   4.884   0.788   9.452  0.4312  0.1308  0.3431
  152SAPE  H14R16885   4.951   0.875   9.462 -1.0791  1.5528 -1.2243
  152SAPE  C21516886   4.794   0.782   9.349  0.7269 -0.5595  0.4647
  152SAPE  H15R16887   4.786   0.870   9.283  2.8355 -0.4121  0.3366
  152SAPE  C21616888   4.691   0.674   9.319  0.0529  0.1614 -0.5168
  152SAPE  H16R16889   4.688   0.610   9.410  1.5325  1.4268  0.4901
  152SAPE  H16S16890   4.727   0.618   9.231  1.5701 -1.4398  1.0254
  152SAPE  C21716891   4.566   0.745   9.276 -0.3166 -0.5509  0.3357
  152SAPE  H17R16892   4.549   0.830   9.345 -1.2634 -2.1382  2.1516
  152SAPE  H17S16893   4.481   0.675   9.267 -1.0751  0.0468  2.4334
  152SAPE  C21816894   4.580   0.791   9.126 -0.2083  0.1144  0.4889
  152SAPE  H18R16895   4.605   0.705   9.060 -2.1901 -1.1349  1.2863
  152SAPE  H18S16896   4.658   0.868   9.112 -0.5115  0.3318 -0.0199
  152SAPE  C21916897   4.449   0.861   9.076 -0.4240  0.0343  0.3455
  152SAPE  H19R16898   4.376   0.781   9.049  0.4704 -0.4055 -0.8532
  152SAPE  H19S16899   4.476   0.913   8.982 -1.0439 -1.4859 -0.7273
  152SAPE  C22016900   4.381   0.970   9.165  0.4525 -0.0678 -0.0781
  152SAPE  H20R16901   4.312   1.022   9.095 -1.0323 -2.7583 -0.7660
  152SAPE  H20S16902   4.462   1.039   9.196 -0.2112  1.5583 -1.7587
  152SAPE  H20T16903   4.324   0.925   9.249  0.6581  0.9660  0.6295
  152SAPE   C3316904   5.436  -0.172  10.239 -0.0500 -0.1924  0.4369
  152SAPE   H3X16905   5.472  -0.232  10.153  1.0432 -0.5550  1.1235
  152SAPE   H3Y16906   5.448  -0.065  10.213  2.5517 -0.9317 -1.8412
  152SAPE   C3416907   5.287  -0.209  10.255  0.0457  0.0963  0.1973
  152SAPE   H4X16908   5.236  -0.135  10.319  0.7792  0.5092  0.3170
  152SAPE   H4Y16909   5.293  -0.303  10.314 -0.9828  1.2521  2.2231
  152SAPE   C3516910   5.212  -0.223  10.121  0.7331  0.7741  0.6235
  152SAPE   H5X16911   5.202  -0.128  10.064  1.5622  1.3634  1.4211
  152SAPE   H5Y16912   5.109  -0.259  10.139  1.2420 -0.7374  0.6328
  152SAPE   C3616913   5.257  -0.334  10.018  0.4150  0.1798  0.8210
  152SAPE   H6X16914   5.250  -0.429  10.076 -3.2126 -1.3604 -1.7801
  152SAPE   H6Y16915   5.357  -0.319   9.972 -1.0895 -1.0105 -3.2142
  152SAPE   C3716916   5.159  -0.342   9.903  0.9037 -0.0036  0.9134
  152SAPE   H7X16917   5.147  -0.240   9.860  0.0384  0.0089  1.1532
  152SAPE   H7Y16918   5.056  -0.376   9.928  0.0445  0.5273 -1.6137
  152SAPE   C3816919   5.205  -0.432   9.782 -0.1868 -0.4264 -0.5799
  152SAPE   H8X16920   5.215  -0.535   9.823 -1.0056 -0.2711  0.0234
  152SAPE   H8Y16921   5.304  -0.393   9.750 -0.1919 -0.6088 -0.8250
  152SAPE   C3916922   5.106  -0.432   9.666 -0.0288  0.0785 -0.6582
  152SAPE   H9X16923   5.114  -0.334   9.615 -0.0735 -0.4268 -1.6600
  152SAPE   H9Y16924   4.999  -0.439   9.693 -0.6629  2.2653 -2.2630
  152SAPE  C31016925   5.143  -0.547   9.565  0.0181 -0.3115 -0.2417
  152SAPE  H10X16926   5.122  -0.645   9.614 -0.5779  0.1361  0.4187
  152SAPE  H10Y16927   5.249  -0.534   9.535 -0.5265  2.1720 -1.3125
  152SAPE  C31116928   5.065  -0.543   9.433 -0.1386  0.0089 -0.4806
  152SAPE  H11X16929   4.954  -0.533   9.435 -0.1155  0.2791 -0.6252
  152SAPE  H11Y16930   5.074  -0.639   9.377 -1.0605  0.4266 -1.3811
  152SAPE  C31216931   5.115  -0.427   9.351 -0.0476 -0.0470  0.1479
  152SAPE  H12X16932   5.219  -0.404   9.380 -0.0865  1.8061 -1.0055
  152SAPE  H12Y16933   5.054  -0.339   9.382 -1.8001 -0.5624 -1.6141
  152SAPE  C31316934   5.101  -0.453   9.197 -0.3667 -0.2990 -0.3698
  152SAPE  H13X16935   4.998  -0.484   9.168 -0.1979 -0.5962 -0.6605
  152SAPE  H13Y16936   5.168  -0.540   9.181 -0.1413 -0.8031  2.6897
  152SAPE  C31416937   5.145  -0.331   9.112 -0.6788  0.7634  0.0986
  152SAPE  H14X16938   5.253  -0.313   9.131 -0.0226 -0.8791 -1.7384
  152SAPE  H14Y16939   5.077  -0.248   9.138 -2.5599 -0.6317 -0.1744
  152SAPE  C31516940   5.134  -0.348   8.956 -0.4423  0.1576 -0.3421
  152SAPE  H15X16941   5.048  -0.416   8.942 -0.7313  0.6070 -0.8380
  152SAPE  H15Y16942   5.228  -0.400   8.926 -1.0815 -0.3924 -1.4645
  152SAPE  C31616943   5.115  -0.212   8.886  1.2166  0.9911  0.0933
  152SAPE  H16X16944   5.161  -0.126   8.939  3.8585 -1.7879  2.7372
  152SAPE  H16Y16945   5.005  -0.198   8.884  0.8423 -1.3385  1.1320
  152SAPE  C31716946   5.166  -0.230   8.742  0.2469 -0.8323  0.7768
  152SAPE  H17X16947   5.139  -0.331   8.704  0.9032 -0.2014 -1.5145
  152SAPE  H17Y16948   5.275  -0.236   8.758  0.2610 -4.3020  0.2344
  152SAPE  C31816949   5.122  -0.116   8.651 -0.6937 -0.0650 -0.1253
  152SAPE  H18X16950   5.192  -0.031   8.668  1.2519 -1.8195  1.1886
  152SAPE  H18Y16951   5.013  -0.098   8.665 -0.1933  3.1641  0.4241
  152SAPE  H18Z16952   5.141  -0.153   8.548  0.5399 -1.5219  0.5958
  153SAPE     N16953   4.727   1.221  10.720  0.1575 -0.4754  0.3422
  153SAPE   HN116954   4.678   1.213  10.812 -1.1209 -1.7509 -0.3860
  153SAPE   HN216955   4.826   1.199  10.744  0.3129 -0.5703 -0.3665
  153SAPE   HN316956   4.724   1.314  10.675 -2.8071 -0.2085  0.8616
  153SAPE   C1216957   4.675   1.119  10.624  0.3246 -0.0697 -0.4238
  153SAPE  H12A16958   4.747   1.094  10.543  1.1133  1.6766 -0.2958
  153SAPE  H12B16959   4.578   1.157  10.585 -0.8192  0.3187  2.5438
  153SAPE   C1116960   4.647   0.986  10.696  0.1318 -0.5306  0.1871
  153SAPE  H11A16961   4.595   0.916  10.628 -0.4867 -0.6290  0.7572
  153SAPE  H11B16962   4.573   1.002  10.777  0.7086 -1.2000  0.8583
  153SAPE     P16963   4.766   0.815  10.858  0.0132 -0.4603 -0.2379
  153SAPE   O1316964   4.911   0.813  10.904  0.9733 -0.8483  1.3380
  153SAPE   O1416965   4.659   0.835  10.961 -0.2417  1.2187  0.6162
  153SAPE   O1216966   4.760   0.924  10.749  0.2051 -0.6740 -0.2726
  153SAPE   O1116967   4.739   0.691  10.778 -0.2515  0.2698  0.1492
  153SAPE    C116968   4.850   0.614  10.729 -0.6010  0.5791  0.6339
  153SAPE    HA16969   4.944   0.622  10.787  0.3151  0.4905 -0.7696
  153SAPE    HB16970   4.814   0.509  10.730 -0.4828  0.3906 -2.5488
  153SAPE    C216971   4.897   0.653  10.584  1.1592  0.4327 -0.6476
  153SAPE    HS16972   4.945   0.752  10.600  0.6180  0.6831 -0.5521
  153SAPE   O2116973   4.772   0.673  10.505 -0.4042 -0.7955  0.4375
  153SAPE   C2116974   4.776   0.775  10.418 -0.5742  0.0213 -0.4993
  153SAPE   O2216975   4.872   0.848  10.403  0.4300  0.2984 -0.2941
  153SAPE   C2216976   4.637   0.806  10.363  0.5746 -0.1695  0.7132
  153SAPE   H2R16977   4.561   0.817  10.444 -0.0301  2.6406 -0.1068
  153SAPE   H2S16978   4.636   0.911  10.325  3.1066 -0.6795 -0.9743
  153SAPE    C316979   4.986   0.545  10.512  0.4488  0.7031 -0.7596
  153SAPE    HX16980   4.909   0.466  10.496  0.2796 -0.0615  3.0171
  153SAPE    HY16981   5.059   0.505  10.586 -1.0328 -0.3455  0.1817
  153SAPE   O3116982   5.038   0.594  10.388 -0.0087 -0.2336  0.0760
  153SAPE   C3116983   5.163   0.653  10.391 -0.0623  0.0189 -0.2891
  153SAPE   O3216984   5.233   0.674  10.486 -0.1860 -0.0401 -0.8855
  153SAPE   C3216985   5.204   0.685  10.250 -0.1288  0.9487  0.9020
  153SAPE   H2X16986   5.128   0.743  10.195 -1.2279 -1.8017 -0.7007
  153SAPE   H2Y16987   5.218   0.594  10.187  0.7133  1.7508 -0.1104
  153SAPE   C2316988   4.591   0.702  10.259 -0.7135  0.0329 -0.6316
  153SAPE   H3R16989   4.602   0.602  10.305  0.1943  0.4078 -0.0074
  153SAPE   H3S16990   4.652   0.711  10.166 -1.5919 -0.6549 -1.2918
  153SAPE   C2416991   4.441   0.722  10.220 -0.1903  0.2582  0.5639
  153SAPE   H4R16992   4.385   0.708  10.314  1.2106  1.0596  1.5484
  153SAPE   H4S16993   4.415   0.637  10.153  2.4475  0.2287 -0.5551
  153SAPE   C2516994   4.413   0.850  10.144  0.4306 -0.6372  0.0273
  153SAPE   H5R16995   4.398   0.940  10.205 -1.3183 -0.4406 -0.6327
  153SAPE   C2616996   4.426   0.870  10.006 -0.0477  0.1176 -0.2825
  153SAPE   H6R16997   4.412   0.971   9.966 -1.2128 -0.6591 -1.9327
  153SAPE   C2716998   4.462   0.767   9.906 -0.2223  0.9102  0.8818
  153SAPE   H7R16999   4.382   0.691   9.918  1.8024 -1.5373 -0.2519
  153SAPE   H7S17000   4.555   0.711   9.928 -0.7493  0.5326  2.2548
  153SAPE   C2817001   4.477   0.801   9.763 -0.8764 -0.1889  0.4417
  153SAPE   H8R17002   4.574   0.846   9.736 -1.7960  0.0406 -2.9124
  153SAPE   C2917003   4.380   0.808   9.663 -0.2452 -0.4904 -0.2396
  153SAPE   H9R17004   4.402   0.836   9.559 -2.4982 -0.0582 -0.6453
  153SAPE  C21017005   4.241   0.754   9.681  0.4179 -0.3866  0.3601
  153SAPE  H10R17006   4.173   0.795   9.603 -1.7679  0.7030  2.6825
  153SAPE  H10S17007   4.194   0.805   9.768 -0.4757  2.9559 -1.8771
  153SAPE  C21117008   4.224   0.607   9.693  0.8872  0.5155 -0.3726
  153SAPE  H11R17009   4.237   0.572   9.796 -2.3522 -2.1445 -0.6965
  153SAPE  C21217010   4.191   0.516   9.602 -0.4862  0.2650  0.5102
  153SAPE  H12R17011   4.162   0.416   9.638  3.3794 -0.2819  2.6569
  153SAPE  C21317012   4.176   0.557   9.453 -0.3771  0.8864 -0.4436
  153SAPE  H13R17013   4.193   0.466   9.392  0.9661 -0.7035  2.1154
  153SAPE  H13S17014   4.244   0.631   9.406 -0.6687  1.3507 -0.1440
  153SAPE  C21417015   4.027   0.597   9.425  0.4011 -0.2729  0.0518
  153SAPE  H14R17016   3.973   0.646   9.507 -1.2392 -1.3280 -0.3412
  153SAPE  C21517017   3.970   0.594   9.300  0.6587 -0.4514  0.4689
  153SAPE  H15R17018   3.861   0.603   9.296  0.7270  0.0287 -0.8554
  153SAPE  C21617019   4.028   0.565   9.162 -0.1521 -0.0366 -0.4633
  153SAPE  H16R17020   4.139   0.571   9.169 -0.0577 -1.4123 -0.5392
  153SAPE  H16S17021   3.999   0.642   9.088  2.5176  0.9244 -0.6374
  153SAPE  C21717022   3.994   0.431   9.096  0.0036  0.5733 -0.9759
  153SAPE  H17R17023   3.883   0.435   9.093 -0.2358 -0.9005  2.0675
  153SAPE  H17S17024   4.035   0.348   9.157  0.6788  2.0533  0.6784
  153SAPE  C21817025   4.049   0.419   8.957 -0.3464  0.5860 -0.4468
  153SAPE  H18R17026   4.159   0.399   8.953  0.3101  3.1946  1.5002
  153SAPE  H18S17027   4.038   0.515   8.903 -0.8056  0.1734 -1.0983
  153SAPE  C21917028   3.982   0.307   8.874 -0.2192  0.5663  0.7877
  153SAPE  H19R17029   3.874   0.331   8.866 -0.0734  0.9995  0.0411
  153SAPE  H19S17030   3.997   0.217   8.938 -0.3298  0.6820  0.9789
  153SAPE  C22017031   4.047   0.286   8.743 -0.2586 -0.3930  0.1260
  153SAPE  H20R17032   4.007   0.200   8.685 -0.0417  0.1373 -0.8353
  153SAPE  H20S17033   4.156   0.275   8.763 -0.3316  0.9456  1.4974
  153SAPE  H20T17034   4.047   0.378   8.681  2.9939 -0.6063 -0.3756
  153SAPE   C3317035   5.339   0.762  10.245  0.2747 -0.1310 -0.1608
  153SAPE   H3X17036   5.365   0.745  10.139  3.0649  1.3303  0.1951
  153SAPE   H3Y17037   5.414   0.713  10.310  1.3344  0.2149 -1.1021
  153SAPE   C3417038   5.333   0.905  10.288 -0.7351 -0.1460  1.0644
  153SAPE   H4X17039   5.324   0.920  10.398  0.0371  1.3475  0.9476
  153SAPE   H4Y17040   5.241   0.958  10.255  0.9095  1.4757 -1.2449
  153SAPE   C3517041   5.446   0.988  10.226 -0.6608  0.4153 -0.4361
  153SAPE   H5X17042   5.536   0.943  10.272 -0.7372  0.7761  0.0739
  153SAPE   H5Y17043   5.444   1.089  10.271  1.4024  0.0023  0.6942
  153SAPE   C3617044   5.437   1.002  10.074  0.0545 -0.1773 -0.2311
  153SAPE   H6X17045   5.465   0.903  10.034  1.9810  0.5108 -0.6945
  153SAPE   H6Y17046   5.519   1.066  10.034 -0.7379 -0.7196 -2.8676
  153SAPE   C3717047   5.312   1.077  10.013 -0.3054  0.4392 -0.5696
  153SAPE   H7X17048   5.303   1.176  10.062  0.8086 -0.7450  2.2434
  153SAPE   H7Y17049   5.220   1.017  10.030 -1.0431  0.8144 -2.8443
  153SAPE   C3817050   5.333   1.088   9.857 -0.5081  0.8605  0.3315
  153SAPE   H8X17051   5.434   1.132   9.846 -0.2362  0.1870  0.1011
  153SAPE   H8Y17052   5.260   1.153   9.805  0.5479  2.3457  0.6712
  153SAPE   C3917053   5.323   0.957   9.776 -0.6314  0.5414  0.3827
  153SAPE   H9X17054   5.221   0.913   9.777 -0.0946 -0.7351  0.5773
  153SAPE   H9Y17055   5.384   0.879   9.824  0.1274  0.0129 -1.3424
  153SAPE  C31017056   5.361   0.969   9.625  1.0375  0.0250 -0.2822
  153SAPE  H10X17057   5.357   0.869   9.576  0.3944  0.5933 -1.4489
  153SAPE  H10Y17058   5.465   1.007   9.622  0.3636  2.1530  1.2933
  153SAPE  C31117059   5.256   1.056   9.554 -1.3443  0.0132 -0.1849
  153SAPE  H11X17060   5.250   1.160   9.592  2.9968  0.1997  0.4492
  153SAPE  H11Y17061   5.157   1.005   9.560 -1.1905 -0.2704 -0.0302
  153SAPE  C31217062   5.305   1.056   9.408 -0.4740 -1.2653 -0.5711
  153SAPE  H12X17063   5.334   0.953   9.380 -0.7962 -1.1938 -1.1653
  153SAPE  H12Y17064   5.397   1.118   9.399 -0.6253 -0.5321  2.0740
  153SAPE  C31317065   5.193   1.122   9.319  0.0638 -0.7976 -0.2064
  153SAPE  H13X17066   5.176   1.223   9.362  2.3440 -0.1232 -0.7346
  153SAPE  H13Y17067   5.105   1.056   9.333 -1.4260  1.2832  0.7583
  153SAPE  C31417068   5.243   1.150   9.174 -0.4208  0.1890 -0.5523
  153SAPE  H14X17069   5.330   1.219   9.181 -2.1957  2.3765  1.3255
  153SAPE  H14Y17070   5.159   1.207   9.131  1.0472  2.2356 -0.8673
  153SAPE  C31517071   5.275   1.017   9.097  0.0320  0.7244  0.0589
  153SAPE  H15X17072   5.194   0.945   9.122 -0.1634  1.3120  1.1687
  153SAPE  H15Y17073   5.378   0.981   9.118 -0.4981 -2.0789 -1.5765
  153SAPE  C31617074   5.267   1.041   8.950  0.1228 -0.4504  0.4805
  153SAPE  H16X17075   5.170   1.089   8.924  0.2183 -1.3017 -1.6788
  153SAPE  H16Y17076   5.266   0.951   8.885 -1.1883 -0.8036  0.9560
  153SAPE  C31717077   5.387   1.123   8.891  0.0453 -0.0517 -0.2304
  153SAPE  H17X17078   5.481   1.070   8.917  0.3370  0.9731  0.8442
  153SAPE  H17Y17079   5.391   1.221   8.941 -0.0678  2.1567 -4.1188
  153SAPE  C31817080   5.385   1.154   8.736  0.3848  0.0179  0.1122
  153SAPE  H18X17081   5.486   1.183   8.700  0.7746  0.5705  1.5880
  153SAPE  H18Y17082   5.313   1.239   8.737 -0.5379 -0.7536  0.9126
  153SAPE  H18Z17083   5.343   1.063   8.688 -1.0100 -0.2016  1.6717
  154SAPE     N17084   6.339   0.589  10.751 -0.0705  0.5789  0.2881
  154SAPE   HN117085   6.292   0.609  10.660 -0.8861  1.4112  0.8711
  154SAPE   HN217086   6.439   0.573  10.727  0.6925 -0.4305  3.6047
  154SAPE   HN317087   6.298   0.502  10.789 -0.7825  1.3179  1.2621
  154SAPE   C1217088   6.324   0.693  10.849 -0.9490 -0.2745 -0.1086
  154SAPE  H12A17089   6.384   0.779  10.813  0.9820 -1.0786  1.0681
  154SAPE  H12B17090   6.368   0.659  10.945  0.8645 -0.1515 -0.8552
  154SAPE   C1117091   6.176   0.729  10.866  0.3008  0.6760 -0.4666
  154SAPE  H11A17092   6.126   0.768  10.775 -1.5180 -0.5874 -0.0436
  154SAPE  H11B17093   6.172   0.807  10.945 -0.6048 -0.2850  0.4649
  154SAPE     P17094   5.950   0.607  10.938  0.0008 -0.1082  0.6355
  154SAPE   O1317095   5.905   0.474  10.996  0.2241 -0.1845  0.3964
  154SAPE   O1417096   5.921   0.723  11.026 -0.6436 -0.4935  0.1633
  154SAPE   O1217097   6.110   0.611  10.917  0.4903 -0.4760  0.8406
  154SAPE   O1117098   5.884   0.638  10.791  0.1095  0.1146  0.4286
  154SAPE    C117099   5.926   0.564  10.679 -0.6506  0.2060  0.2352
  154SAPE    HA17100   6.029   0.599  10.659  0.0922  0.4005  3.7032
  154SAPE    HB17101   5.919   0.456  10.705 -2.3622  0.1421 -0.3656
  154SAPE    C217102   5.830   0.563  10.554 -0.5736 -0.1784  0.3589
  154SAPE    HS17103   5.887   0.524  10.468  0.3642 -1.3284  1.4611
  154SAPE   O2117104   5.783   0.697  10.515 -0.6880  0.6186 -0.0265
  154SAPE   C2117105   5.880   0.784  10.500  0.5492  0.2331 -0.0117
  154SAPE   O2217106   6.000   0.759  10.496  0.5269  0.3151 -0.6744
  154SAPE   C2217107   5.825   0.924  10.463  0.5168 -0.1731 -0.9096
  154SAPE   H2R17108   5.718   0.917  10.434  0.0373  1.9900  0.1886
  154SAPE   H2S17109   5.812   0.985  10.555 -0.1519 -0.1384 -1.0163
  154SAPE    C317110   5.707   0.460  10.561 -0.3932  0.0726 -0.3740
  154SAPE    HX17111   5.659   0.479  10.659 -1.5687 -2.7486 -0.3057
  154SAPE    HY17112   5.745   0.355  10.558 -0.3833 -0.0217  1.9063
  154SAPE   O3117113   5.601   0.490  10.464  0.2017 -0.0414 -0.0519
  154SAPE   C3117114   5.629   0.434  10.355  0.3429 -0.2660  0.1924
  154SAPE   O3217115   5.729   0.367  10.329  0.3438 -0.3207 -0.1415
  154SAPE   C3217116   5.522   0.467  10.249 -0.2064 -0.0230 -0.1306
  154SAPE   H2X17117   5.556   0.571  10.228 -0.8967  0.4478  1.0136
  154SAPE   H2Y17118   5.417   0.465  10.286 -0.6176  0.8812 -1.1703
  154SAPE   C2317119   5.919   1.002  10.370 -0.2578 -0.7182  0.0615
  154SAPE   H3R17120   5.911   0.964  10.267 -0.4340 -2.1615  0.5914
  154SAPE   H3S17121   6.026   0.980  10.391 -0.0524  0.3449  0.1924
  154SAPE   C2417122   5.883   1.153  10.376  0.2729 -0.5639  0.3545
  154SAPE   H4R17123   5.893   1.179  10.483 -0.0675 -1.8083  0.7088
  154SAPE   H4S17124   5.780   1.172  10.339 -0.0385 -1.4676  0.7254
  154SAPE   C2517125   5.983   1.226  10.289 -0.5265 -0.8785 -0.0718
  154SAPE   H5R17126   6.056   1.293  10.337 -2.1003  2.5730 -2.0921
  154SAPE   C2617127   5.968   1.249  10.162  0.2348  0.1191  0.0382
  154SAPE   H6R17128   6.052   1.303  10.115  0.4007 -1.7930 -1.9861
  154SAPE   C2717129   5.867   1.184  10.062 -0.3407 -0.1721 -0.3381
  154SAPE   H7R17130   5.818   1.263  10.002  0.5089 -0.0669 -0.9043
  154SAPE   H7S17131   5.796   1.120  10.120 -0.2041  1.9649  2.4211
  154SAPE   C2817132   5.944   1.099   9.961  0.5678 -0.4477  0.6553
  154SAPE   H8R17133   6.017   1.036  10.014  1.4523  0.9326  1.1552
  154SAPE   C2917134   5.942   1.099   9.825  0.0707 -0.3210  0.1212
  154SAPE   H9R17135   6.010   1.044   9.758 -0.3471  0.2438 -0.7813
  154SAPE  C21017136   5.856   1.177   9.740  0.1408 -0.5998 -0.4082
  154SAPE  H10R17137   5.908   1.232   9.658  0.5244  0.7731  0.7238
  154SAPE  H10S17138   5.810   1.263   9.794 -0.7334 -1.3149  0.0096
  154SAPE  C21117139   5.750   1.087   9.682  0.2073  0.2322  0.0003
  154SAPE  H11R17140   5.701   1.019   9.753  1.8451 -0.8291  0.1540
  154SAPE  C21217141   5.722   1.066   9.552  0.5214 -0.1068  0.3039
  154SAPE  H12R17142   5.650   0.986   9.528 -0.3059  0.5471  0.5737
  154SAPE  C21317143   5.775   1.144   9.441 -0.3761 -0.0533  0.6256
  154SAPE  H13R17144   5.832   1.236   9.466 -0.0527 -0.5059  1.6256
  154SAPE  H13S17145   5.688   1.166   9.377  0.4532 -4.2307 -2.3300
  154SAPE  C21417146   5.860   1.059   9.354  0.2388 -0.1976  0.4165
  154SAPE  H14R17147   5.967   1.050   9.379  0.3248 -0.0335  0.1113
  154SAPE  C21517148   5.821   0.977   9.245 -0.2835  0.4634 -0.0930
  154SAPE  H15R17149   5.904   0.930   9.191 -1.5235  1.1716 -2.7476
  154SAPE  C21617150   5.679   0.948   9.199 -0.0407  0.0496  1.1084
  154SAPE  H16R17151   5.672   0.962   9.089  2.5445 -0.5192  0.8244
  154SAPE  H16S17152   5.607   1.023   9.237 -0.3310 -0.7962  2.3056
  154SAPE  C21717153   5.624   0.807   9.238 -0.2116  0.0110 -0.1945
  154SAPE  H17R17154   5.518   0.806   9.206 -0.4320  2.9838  0.1919
  154SAPE  H17S17155   5.629   0.807   9.349  0.1099  0.8000 -0.1999
  154SAPE  C21817156   5.705   0.694   9.184  0.0533  0.2104  0.5669
  154SAPE  H18R17157   5.806   0.719   9.224 -1.3421  2.3856  3.0061
  154SAPE  H18S17158   5.720   0.702   9.074 -2.8676  0.6514  0.1262
  154SAPE  C21917159   5.655   0.548   9.231  0.2003  0.0213  0.6074
  154SAPE  H19R17160   5.567   0.516   9.171 -1.1023 -1.1118  2.9992
  154SAPE  H19S17161   5.616   0.564   9.333 -3.4131 -2.8273 -0.1166
  154SAPE  C22017162   5.749   0.433   9.226  0.8142  0.5590 -0.2298
  154SAPE  H20R17163   5.736   0.383   9.127  1.9137  3.4679 -1.9814
  154SAPE  H20S17164   5.728   0.364   9.310  0.5929 -0.4309 -1.0742
  154SAPE  H20T17165   5.855   0.467   9.232  0.8705  0.3473 -0.0126
  154SAPE   C3317166   5.539   0.387  10.118  0.1029  0.6869 -0.0323
  154SAPE   H3X17167   5.549   0.281  10.148 -1.4499  0.6792  0.5454
  154SAPE   H3Y17168   5.635   0.411  10.066 -0.6200  0.7742 -1.3874
  154SAPE   C3417169   5.430   0.393  10.014 -0.6735  0.5491  0.0709
  154SAPE   H4X17170   5.424   0.484   9.952  0.8913  0.8254  0.2855
  154SAPE   H4Y17171   5.331   0.379  10.062 -0.6609  1.1287  0.2730
  154SAPE   C3517172   5.435   0.274   9.920 -0.1320 -0.0150 -0.2111
  154SAPE   H5X17173   5.541   0.271   9.885  0.5049 -0.3262  1.6665
  154SAPE   H5Y17174   5.365   0.288   9.835  0.2738 -0.9172 -0.7099
  154SAPE   C3617175   5.397   0.137   9.982 -0.2709  0.3242 -0.5085
  154SAPE   H6X17176   5.294   0.143  10.023  0.0099  1.2030  0.0938
  154SAPE   H6Y17177   5.473   0.120  10.062 -0.6593 -1.9534 -0.5598
  154SAPE   C3717178   5.417   0.017   9.887 -0.3244 -0.2452 -0.3272
  154SAPE   H7X17179   5.406  -0.080   9.939  0.2142 -0.9344 -1.4572
  154SAPE   H7Y17180   5.523   0.017   9.851 -0.1464  1.4831  0.0941
  154SAPE   C3817181   5.308   0.026   9.782  0.0529  0.0650  0.6407
  154SAPE   H8X17182   5.287   0.128   9.742  0.0814 -0.4630 -0.7947
  154SAPE   H8Y17183   5.217  -0.016   9.830 -0.0672 -1.7410 -1.0175
  154SAPE   C3917184   5.347  -0.080   9.671  0.2027  0.1066 -0.4097
  154SAPE   H9X17185   5.268  -0.087   9.593  0.3965  0.2262 -0.6194
  154SAPE   H9Y17186   5.362  -0.174   9.729 -1.4578 -1.2438 -2.0200
  154SAPE  C31017187   5.465  -0.019   9.589  0.1952  0.7744  0.1788
  154SAPE  H10X17188   5.555  -0.032   9.652  0.9133  0.6867 -0.8454
  154SAPE  H10Y17189   5.449   0.090   9.569  0.3757  0.9973  1.1940
  154SAPE  C31117190   5.490  -0.081   9.451 -0.9570  0.3297  0.2462
  154SAPE  H11X17191   5.513  -0.188   9.470 -1.3040  0.2276  0.1041
  154SAPE  H11Y17192   5.588  -0.050   9.410 -0.5994 -2.5542 -1.3132
  154SAPE  C31217193   5.376  -0.063   9.351 -0.3399  0.0070  0.1409
  154SAPE  H12X17194   5.270  -0.072   9.385 -0.3592  0.0539  0.0935
  154SAPE  H12Y17195   5.390  -0.147   9.280 -0.1459  1.3981 -1.5286
  154SAPE  C31317196   5.395   0.075   9.284  0.0752 -0.0505 -0.0455
  154SAPE  H13X17197   5.497   0.114   9.303 -0.8371  1.1189  3.0958
  154SAPE  H13Y17198   5.332   0.146   9.342  0.4214  0.8526 -0.7513
  154SAPE  C31417199   5.357   0.075   9.131 -1.0960 -0.2697  0.4551
  154SAPE  H14X17200   5.247   0.058   9.129 -0.7697 -2.7746 -0.0033
  154SAPE  H14Y17201   5.394  -0.014   9.075  0.6921  1.3894 -1.1407
  154SAPE  C31517202   5.404   0.198   9.051 -0.1565 -0.5892 -0.1026
  154SAPE  H15X17203   5.513   0.188   9.033 -0.0237 -1.0562  0.8908
  154SAPE  H15Y17204   5.381   0.288   9.112  0.3906 -0.1951 -0.4819
  154SAPE  C31617205   5.332   0.211   8.910  0.4604  0.3079 -1.4831
  154SAPE  H16X17206   5.227   0.240   8.932  0.7107  1.0001 -1.1824
  154SAPE  H16Y17207   5.322   0.113   8.859 -1.6133  0.5219 -1.5511
  154SAPE  C31717208   5.423   0.299   8.818  1.0304  0.0940  0.8013
  154SAPE  H17X17209   5.523   0.252   8.807  0.0727 -2.1805  1.2455
  154SAPE  H17Y17210   5.421   0.402   8.859  0.1721  1.0133 -1.4480
  154SAPE  C31817211   5.360   0.304   8.682 -0.0483 -0.3921  0.6250
  154SAPE  H18X17212   5.253   0.335   8.679 -0.3254 -1.3222  0.6032
  154SAPE  H18Y17213   5.369   0.205   8.633  0.2351 -0.1444  0.1779
  154SAPE  H18Z17214   5.425   0.366   8.618  0.2150 -0.6131  0.6757
  155SAPE     N17215   5.550   3.914  10.910 -0.0886 -0.1711 -0.7534
  155SAPE   HN117216   5.645   3.934  10.947  1.3488 -2.6582 -2.7465
  155SAPE   HN217217   5.503   4.006  10.914 -0.8549 -0.5658 -0.3296
  155SAPE   HN317218   5.502   3.859  10.985 -0.0294 -2.2100 -2.1257
  155SAPE   C1217219   5.560   3.834  10.783  0.1987  0.1068  0.5801
  155SAPE  H12A17220   5.457   3.811  10.749  1.0526  0.2158 -2.2701
  155SAPE  H12B17221   5.614   3.738  10.798 -0.6057 -0.4602 -0.0829
  155SAPE   C1117222   5.626   3.919  10.666 -0.0330 -0.3690  0.0553
  155SAPE  H11A17223   5.574   4.016  10.649  0.8501 -0.1446 -1.5701
  155SAPE  H11B17224   5.625   3.862  10.572  0.8509 -1.8188  0.8871
  155SAPE     P17225   5.887   3.867  10.663 -0.5107  0.2122 -0.2368
  155SAPE   O1317226   6.008   3.934  10.716  0.5914  0.0667  0.0298
  155SAPE   O1417227   5.862   3.733  10.725  0.1301 -0.0086  0.1535
  155SAPE   O1217228   5.758   3.960  10.701  0.0388  0.2169 -0.5214
  155SAPE   O1117229   5.893   3.858  10.507  0.4621  0.1178  0.2802
  155SAPE    C117230   5.905   3.980  10.433  0.1836  1.1265 -0.1033
  155SAPE    HA17231   5.910   4.077  10.488  0.2245  1.3226 -0.4445
  155SAPE    HB17232   6.009   3.978  10.393  0.5419  0.1039  0.8353
  155SAPE    C217233   5.798   3.999  10.319  0.1705  0.4054  0.4527
  155SAPE    HS17234   5.727   3.916  10.338  0.5575  0.0440  0.3205
  155SAPE   O2117235   5.855   3.993  10.187  0.3674 -0.6968 -0.0775
  155SAPE   C2117236   5.788   3.922  10.098 -0.1499  0.9099  0.0369
  155SAPE   O2217237   5.694   3.853  10.121 -0.0621  0.9749 -0.0664
  155SAPE   C2217238   5.850   3.942   9.965 -0.0300 -0.2553 -0.2284
  155SAPE   H2R17239   5.894   4.044   9.965 -0.6855  0.0383  0.5187
  155SAPE   H2S17240   5.933   3.870   9.949  0.0715 -0.3103  0.5138
  155SAPE    C317241   5.720   4.133  10.332 -0.2288 -0.1499 -0.2021
  155SAPE    HX17242   5.802   4.204  10.306 -0.0037  0.3936  1.8123
  155SAPE    HY17243   5.691   4.157  10.437  1.3892  0.7930  0.0745
  155SAPE   O3117244   5.611   4.152  10.246  0.7959 -0.3816  0.0387
  155SAPE   C3117245   5.494   4.098  10.294 -0.4629 -0.0232  0.3030
  155SAPE   O3217246   5.490   4.021  10.387  0.4653 -0.1465  0.0614
  155SAPE   C3217247   5.389   4.141  10.189 -0.1742 -0.0138  0.1515
  155SAPE   H2X17248   5.383   4.252  10.192  0.5453  0.0024  1.2366
  155SAPE   H2Y17249   5.287   4.105  10.213  0.1578  0.1350  1.8531
  155SAPE   C2317250   5.749   3.937   9.840 -0.2800  0.5973 -0.4812
  155SAPE   H3R17251   5.795   3.993   9.757  2.3779 -0.6323  0.0823
  155SAPE   H3S17252   5.655   3.987   9.874 -1.4628 -2.0476  0.4156
  155SAPE   C2417253   5.720   3.792   9.791  0.1904  0.0103 -0.7928
  155SAPE   H4R17254   5.659   3.796   9.699 -0.5694  0.5682 -0.2855
  155SAPE   H4S17255   5.650   3.749   9.866 -0.8818  0.3788 -1.5445
  155SAPE   C2517256   5.839   3.695   9.778 -0.1837 -0.4545 -0.0303
  155SAPE   H5R17257   5.888   3.670   9.873  3.1838  1.6474 -1.0339
  155SAPE   C2617258   5.881   3.645   9.653 -0.1024 -0.0200  0.3209
  155SAPE   H6R17259   5.961   3.570   9.646  0.6934  0.5785  2.1724
  155SAPE   C2717260   5.822   3.690   9.520 -0.1627  0.1828  0.1275
  155SAPE   H7R17261   5.903   3.755   9.480 -1.5226  2.0349  0.2570
  155SAPE   H7S17262   5.735   3.758   9.534 -0.4401 -0.2149  0.3205
  155SAPE   C2817263   5.782   3.584   9.422  0.6987  0.2078  0.2404
  155SAPE   H8R17264   5.756   3.488   9.469 -0.0693  1.1430  1.7644
  155SAPE   C2917265   5.774   3.601   9.287 -0.5782  0.2575  0.8119
  155SAPE   H9R17266   5.740   3.510   9.237  1.4572 -0.0496 -0.1467
  155SAPE  C21017267   5.807   3.724   9.194  0.0484  0.1555 -0.2373
  155SAPE  H10R17268   5.899   3.774   9.232  1.4670 -2.4659 -0.0373
  155SAPE  H10S17269   5.715   3.786   9.207  0.4898  0.9636 -0.8864
  155SAPE  C21117270   5.829   3.678   9.054 -0.1791 -0.3072  0.4141
  155SAPE  H11R17271   5.907   3.600   9.053 -1.1506 -1.2991 -0.3373
  155SAPE  C21217272   5.777   3.715   8.936  0.1794 -0.6858  0.0888
  155SAPE  H12R17273   5.794   3.659   8.843  0.6191 -0.4570  0.0299
  155SAPE  C21317274   5.681   3.832   8.927 -0.4062 -0.6341  0.1554
  155SAPE  H13R17275   5.735   3.925   8.957 -1.0422  0.6278 -2.3366
  155SAPE  H13S17276   5.594   3.809   8.991 -2.2054  3.9606 -0.2075
  155SAPE  C21417277   5.627   3.854   8.785 -0.0162  0.9669 -0.8020
  155SAPE  H14R17278   5.531   3.800   8.773  0.5191 -0.4969  1.0520
  155SAPE  C21517279   5.684   3.915   8.678  0.7405 -0.4010  0.3250
  155SAPE  H15R17280   5.625   3.909   8.585 -0.9332 -0.9558  1.3793
  155SAPE  C21617281   5.817   3.987   8.680  0.5493  0.3957  0.0435
  155SAPE  H16R17282   5.883   3.949   8.600 -0.5966  0.0431 -0.7669
  155SAPE  H16S17283   5.867   3.956   8.774 -0.3857 -0.8893  0.1447
  155SAPE  C21717284   5.791   4.140   8.672  0.8219 -1.2999 -0.2381
  155SAPE  H17R17285   5.756   4.168   8.774  2.1717 -0.6537  0.0672
  155SAPE  H17S17286   5.699   4.154   8.611 -0.1447  2.8772  1.7855
  155SAPE  C21817287   5.921   4.221   8.646  0.3917  0.5823 -0.0024
  155SAPE  H18R17288   5.996   4.179   8.716  1.2936 -0.3352 -1.4742
  155SAPE  H18S17289   5.892   4.326   8.670 -0.0203  0.6041 -0.5831
  155SAPE  C21917290   5.972   4.224   8.501 -0.1182  0.6588 -0.1829
  155SAPE  H19R17291   5.897   4.280   8.440 -1.9507 -1.6728 -0.2115
  155SAPE  H19S17292   5.965   4.121   8.460  1.8757  0.1200  0.7256
  155SAPE  C22017293   6.106   4.284   8.496 -0.3726  0.1525  0.1091
  155SAPE  H20R17294   6.105   4.381   8.550 -1.4959 -0.3628  1.0504
  155SAPE  H20S17295   6.141   4.292   8.391 -0.2938  1.2973  0.2124
  155SAPE  H20T17296   6.174   4.213   8.546 -1.3612 -0.8846  0.0235
  155SAPE   C3317297   5.436   4.098  10.049 -0.6085  0.4829 -0.2464
  155SAPE   H3X17298   5.461   3.990  10.052  0.5987  0.7750  0.9311
  155SAPE   H3Y17299   5.519   4.163  10.015 -0.1409 -0.4328 -0.9084
  155SAPE   C3417300   5.325   4.105   9.943  0.4470 -0.3202  0.0245
  155SAPE   H4X17301   5.255   4.191   9.952 -1.2730 -1.6977  0.1947
  155SAPE   H4Y17302   5.263   4.015   9.957  1.3217 -1.1012 -0.9170
  155SAPE   C3517303   5.377   4.090   9.796  0.5498 -0.2945 -0.0852
  155SAPE   H5X17304   5.440   3.999   9.782  0.8440 -0.0214 -0.5382
  155SAPE   H5Y17305   5.429   4.182   9.763 -1.6285  1.5826  1.3971
  155SAPE   C3617306   5.252   4.093   9.699 -0.2206 -0.0640 -0.9614
  155SAPE   H6X17307   5.182   4.169   9.740 -1.3503 -0.5333 -1.9782
  155SAPE   H6Y17308   5.202   3.995   9.716  1.0789 -0.3487  2.0376
  155SAPE   C3717309   5.283   4.105   9.555  1.0752  0.5435 -0.2884
  155SAPE   H7X17310   5.341   4.199   9.541  3.4076 -0.8630 -0.5934
  155SAPE   H7Y17311   5.190   4.108   9.494  1.4285  1.7350 -0.8022
  155SAPE   C3817312   5.374   3.996   9.505  0.4237 -0.9101  0.0983
  155SAPE   H8X17313   5.319   3.902   9.531 -0.8263  0.2409  1.8416
  155SAPE   H8Y17314   5.470   3.993   9.560  0.5087 -0.9474 -0.0512
  155SAPE   C3917315   5.388   3.992   9.352  0.1454 -0.8992  0.5398
  155SAPE   H9X17316   5.481   3.934   9.335  0.3409 -0.5653  0.4489
  155SAPE   H9Y17317   5.399   4.099   9.325  1.1907 -0.9196  0.8204
  155SAPE  C31017318   5.262   3.943   9.271 -0.1039 -0.2503  0.2624
  155SAPE  H10X17319   5.168   3.990   9.304  0.1392  0.2002  0.3185
  155SAPE  H10Y17320   5.257   3.833   9.286 -0.0759 -0.1347  1.2223
  155SAPE  C31117321   5.268   3.968   9.120 -0.1649 -0.6827  0.2415
  155SAPE  H11X17322   5.349   3.913   9.067 -0.8930 -1.6173  0.0571
  155SAPE  H11Y17323   5.293   4.076   9.116  3.3691 -1.2793  1.9396
  155SAPE  C31217324   5.124   3.951   9.055 -0.7390  0.1648  0.9780
  155SAPE  H12X17325   5.049   3.992   9.126 -1.3553 -0.5995  0.7851
  155SAPE  H12Y17326   5.110   3.841   9.050 -0.1066  0.0781  1.0900
  155SAPE  C31317327   5.113   4.023   8.920 -0.2278 -0.7194  0.2403
  155SAPE  H13X17328   5.141   4.130   8.935 -4.3541  0.6910 -0.7236
  155SAPE  H13Y17329   5.006   4.015   8.893  0.2705  0.1992 -2.3280
  155SAPE  C31417330   5.209   3.969   8.817  0.1311 -0.4154  0.4098
  155SAPE  H14X17331   5.195   3.862   8.793  0.1551  0.1372 -2.3346
  155SAPE  H14Y17332   5.312   3.991   8.853  0.1897  1.4498 -0.7609
  155SAPE  C31517333   5.187   4.061   8.696  0.3964  0.6127 -0.3483
  155SAPE  H15X17334   5.200   4.171   8.707  0.1077  0.7255 -1.1000
  155SAPE  H15Y17335   5.083   4.054   8.659 -0.6021  1.6280  2.0148
  155SAPE  C31617336   5.295   4.026   8.590 -0.4159  0.0117  0.6461
  155SAPE  H16X17337   5.277   3.926   8.545  2.1515 -0.7839  1.1782
  155SAPE  H16Y17338   5.392   4.013   8.643 -1.2019 -0.5493  2.0178
  155SAPE  C31717339   5.313   4.131   8.480  0.0300 -0.8474  0.0403
  155SAPE  H17X17340   5.336   4.230   8.527 -1.0105 -0.5267 -0.1027
  155SAPE  H17Y17341   5.215   4.141   8.429  0.7193  0.9369 -1.0522
  155SAPE  C31817342   5.417   4.105   8.367 -0.4433 -0.3464 -0.4763
  155SAPE  H18X17343   5.512   4.085   8.421  1.6745  1.9218 -3.0659
  155SAPE  H18Y17344   5.432   4.198   8.308 -1.0231  1.5363  2.1367
  155SAPE  H18Z17345   5.386   4.016   8.308 -0.4534 -0.2697 -0.5882
  156SAPE     N17346   3.636   6.667  10.463 -0.2358  0.0684 -0.2740
  156SAPE   HN117347   3.573   6.700  10.539  0.4730 -1.8083  1.2323
  156SAPE   HN217348   3.584   6.583  10.431  2.0708 -0.8388 -1.8651
  156SAPE   HN317349   3.718   6.628  10.515  0.2765  2.8143  1.1688
  156SAPE   C1217350   3.672   6.767  10.360 -0.4206 -0.3652 -0.2960
  156SAPE  H12A17351   3.709   6.711  10.271  0.1170 -0.9653  0.2973
  156SAPE  H12B17352   3.763   6.821  10.395  0.8868 -2.7548  0.2203
  156SAPE   C1117353   3.555   6.864  10.334  0.4124 -0.7306 -0.0211
  156SAPE  H11A17354   3.464   6.810  10.298 -0.5831 -1.6266  3.4724
  156SAPE  H11B17355   3.591   6.938  10.259  2.1788  2.6730  3.8069
  156SAPE     P17356   3.593   7.059  10.500  0.3773 -0.3448  0.1065
  156SAPE   O1317357   3.554   7.172  10.408  0.3798 -0.2157 -0.4416
  156SAPE   O1417358   3.561   7.072  10.639  0.1891 -0.1844  0.3122
  156SAPE   O1217359   3.526   6.927  10.455 -0.4377 -0.3057  0.2650
  156SAPE   O1117360   3.746   7.028  10.497  0.0782 -0.2813  0.0250
  156SAPE    C117361   3.836   7.136  10.467  0.2903  0.0849 -0.0279
  156SAPE    HA17362   3.793   7.239  10.474 -0.8332 -0.4056  0.4244
  156SAPE    HB17363   3.918   7.139  10.542 -1.2227 -1.1577  1.7465
  156SAPE    C217364   3.899   7.136  10.330 -0.5358  0.5319  0.0597
  156SAPE    HS17365   3.960   7.228  10.323  0.8164 -0.1659  1.9306
  156SAPE   O2117366   3.798   7.122  10.227 -0.2535 -0.5726 -0.4109
  156SAPE   C2117367   3.762   7.240  10.180 -0.3179 -0.1253  0.2123
  156SAPE   O2217368   3.817   7.349  10.214 -0.2915  0.4271  0.4956
  156SAPE   C2217369   3.656   7.219  10.078  0.2942  0.2458  0.5417
  156SAPE   H2R17370   3.607   7.125  10.109  0.6995 -0.4174 -0.7489
  156SAPE   H2S17371   3.593   7.310  10.087  1.9856  1.2736  3.8012
  156SAPE    C317372   4.006   7.018  10.317 -0.2114  0.3349  0.2332
  156SAPE    HX17373   3.945   6.928  10.337 -0.4956  0.4719 -0.0152
  156SAPE    HY17374   4.085   7.024  10.395  0.4810  2.6948 -0.5712
  156SAPE   O3117375   4.050   7.013  10.181 -0.0903 -0.0645 -0.1253
  156SAPE   C3117376   4.145   7.094  10.152 -0.4609  0.3602 -0.6534
  156SAPE   O3217377   4.193   7.180  10.231 -0.3224  0.8475  0.3741
  156SAPE   C3217378   4.202   7.063  10.013  0.3258 -0.4418  0.3403
  156SAPE   H2X17379   4.177   7.151   9.950  2.3191  1.9732  2.6478
  156SAPE   H2Y17380   4.142   6.980   9.972  0.7597  0.6942 -2.8524
  156SAPE   C2317381   3.713   7.205   9.940 -0.0769  0.3157  0.8113
  156SAPE   H3R17382   3.626   7.184   9.874  0.2578 -1.2641  0.8329
  156SAPE   H3S17383   3.785   7.121   9.936  0.6847  0.9814 -0.5223
  156SAPE   C2417384   3.770   7.332   9.880  0.6536  0.2606 -0.2910
  156SAPE   H4R17385   3.862   7.350   9.940  0.5761  1.0476 -0.3898
  156SAPE   H4S17386   3.713   7.428   9.887  0.8659  0.3412  0.3962
  156SAPE   C2517387   3.808   7.317   9.733 -0.4448 -0.2133  0.1127
  156SAPE   H5R17388   3.911   7.280   9.723 -1.3973 -2.9290 -0.4497
  156SAPE   C2617389   3.725   7.343   9.622  0.3344 -0.2279 -0.5374
  156SAPE   H6R17390   3.761   7.315   9.521 -0.5154 -0.0831 -0.8903
  156SAPE   C2717391   3.590   7.410   9.626 -0.0083 -0.7269 -0.6674
  156SAPE   H7R17392   3.602   7.492   9.700  1.1629  0.9296 -2.5768
  156SAPE   H7S17393   3.521   7.329   9.655 -0.2111 -0.6065 -0.8147
  156SAPE   C2817394   3.556   7.473   9.490 -0.4914  0.2325 -0.4032
  156SAPE   H8R17395   3.592   7.576   9.483 -0.7900  0.2743 -1.4003
  156SAPE   C2917396   3.512   7.412   9.376  0.8547 -0.0427  0.5676
  156SAPE   H9R17397   3.504   7.472   9.285 -0.8451 -0.4525  0.4055
  156SAPE  C21017398   3.468   7.264   9.358 -0.0470 -0.0448 -0.0261
  156SAPE  H10R17399   3.408   7.230   9.445 -0.3270  1.7994  0.5588
  156SAPE  H10S17400   3.563   7.210   9.340 -0.7528 -0.9368 -1.1776
  156SAPE  C21117401   3.384   7.230   9.240 -0.0533  0.6799  0.0558
  156SAPE  H11R17402   3.280   7.214   9.272  0.5656  1.2478  2.5993
  156SAPE  C21217403   3.429   7.206   9.112 -0.3678  0.0654 -0.0195
  156SAPE  H12R17404   3.356   7.150   9.051  1.0127 -3.4096  1.2924
  156SAPE  C21317405   3.575   7.212   9.062 -0.4314  0.3004  0.1821
  156SAPE  H13R17406   3.613   7.107   9.064  0.6917  0.7025  1.5057
  156SAPE  H13S17407   3.631   7.279   9.131 -0.9715  0.0595  0.8563
  156SAPE  C21417408   3.575   7.256   8.919 -0.4949  0.0326  0.2366
  156SAPE  H14R17409   3.574   7.365   8.913 -0.2980  0.0667  0.7797
  156SAPE  C21517410   3.562   7.188   8.800 -0.6140  0.1976  0.3724
  156SAPE  H15R17411   3.580   7.238   8.704  1.1324 -1.0867 -0.0184
  156SAPE  C21617412   3.543   7.038   8.788  0.5283 -0.4911 -0.4698
  156SAPE  H16R17413   3.439   7.024   8.749 -1.1401  0.9755  3.0360
  156SAPE  H16S17414   3.562   6.979   8.880  0.2740 -1.4457 -1.0189
  156SAPE  C21717415   3.631   6.966   8.681 -0.6941  0.9760 -0.0538
  156SAPE  H17R17416   3.614   6.857   8.687  0.0468  0.9299  1.6050
  156SAPE  H17S17417   3.737   6.994   8.701 -0.8680  0.6284  1.4392
  156SAPE  C21817418   3.605   7.011   8.530 -0.0139  0.0163 -0.9055
  156SAPE  H18R17419   3.619   7.120   8.512  2.2806 -0.4488 -2.3296
  156SAPE  H18S17420   3.499   6.985   8.507 -0.0985 -1.9687  1.3672
  156SAPE  C21917421   3.706   6.940   8.439  0.7631  0.0591 -0.0900
  156SAPE  H19R17422   3.699   6.831   8.456  0.4432  0.4023  2.2548
  156SAPE  H19S17423   3.810   6.962   8.470  0.5100  0.7964  0.2868
  156SAPE  C22017424   3.712   6.980   8.295  0.2392  0.5198  0.4889
  156SAPE  H20R17425   3.615   6.960   8.244  0.5944  1.7248 -0.7199
  156SAPE  H20S17426   3.785   6.916   8.241 -0.7902  2.2673 -3.3426
  156SAPE  H20T17427   3.732   7.088   8.275 -2.5399  1.0085 -0.0564
  156SAPE   C3317428   4.355   7.048  10.001 -0.0893  1.0759 -0.3156
  156SAPE   H3X17429   4.389   6.972  10.075  0.4647  2.3809  0.8310
  156SAPE   H3Y17430   4.408   7.138  10.040  0.5538 -0.1252  1.7402
  156SAPE   C3417431   4.401   7.027   9.855 -0.3493 -0.1005  0.0211
  156SAPE   H4X17432   4.511   7.037   9.848 -0.4795  0.2379 -2.4225
  156SAPE   H4Y17433   4.358   7.102   9.785 -1.3576 -1.2501 -0.6216
  156SAPE   C3517434   4.391   6.883   9.804 -0.0136  0.2912 -0.8356
  156SAPE   H5X17435   4.366   6.822   9.893  1.6001  0.3981 -0.2722
  156SAPE   H5Y17436   4.488   6.842   9.767 -0.5020 -0.9500 -0.7869
  156SAPE   C3617437   4.292   6.847   9.699  0.3679  0.2092 -0.2206
  156SAPE   H6X17438   4.188   6.876   9.722  0.3765 -0.3567  0.5843
  156SAPE   H6Y17439   4.286   6.737   9.681  1.8377 -0.3878  2.3769
  156SAPE   C3717440   4.333   6.920   9.572 -0.8439 -0.5753  0.8856
  156SAPE   H7X17441   4.338   7.030   9.588 -0.7511 -0.6261  1.2048
  156SAPE   H7Y17442   4.267   6.883   9.490  0.3846 -2.5156  0.7088
  156SAPE   C3817443   4.473   6.875   9.517 -0.7515  0.5764 -0.1383
  156SAPE   H8X17444   4.478   6.765   9.536 -1.6933  0.4110 -0.7438
  156SAPE   H8Y17445   4.541   6.928   9.586 -1.0475  2.1857 -1.0487
  156SAPE   C3917446   4.497   6.917   9.375 -0.4721 -0.2530 -0.2304
  156SAPE   H9X17447   4.406   6.907   9.312 -1.9498 -2.1630  2.0385
  156SAPE   H9Y17448   4.582   6.863   9.326 -0.7866 -0.9707  0.0025
  156SAPE  C31017449   4.553   7.062   9.361  0.0667  0.0349 -0.7669
  156SAPE  H10X17450   4.644   7.088   9.420  0.8930 -0.0936 -1.9357
  156SAPE  H10Y17451   4.476   7.136   9.391 -1.0325 -1.1236 -0.6494
  156SAPE  C31117452   4.596   7.096   9.221 -0.3278  0.6094  0.1421
  156SAPE  H11X17453   4.659   7.013   9.181 -0.5824  0.7778 -0.6369
  156SAPE  H11Y17454   4.670   7.178   9.211  2.8934 -1.9368  1.2363
  156SAPE  C31217455   4.479   7.138   9.134 -0.8039  0.3300  0.6677
  156SAPE  H12X17456   4.419   7.215   9.186 -1.4144 -1.3436  2.5690
  156SAPE  H12Y17457   4.413   7.050   9.121  1.0328 -0.9400 -0.5368
  156SAPE  C31317458   4.519   7.192   8.993  1.0477 -0.1554 -0.3458
  156SAPE  H13X17459   4.572   7.119   8.928  0.0948 -0.4670 -0.7844
  156SAPE  H13Y17460   4.592   7.273   9.016  0.1946  0.4171  0.3806
  156SAPE  C31417461   4.403   7.258   8.914 -0.1493 -0.0349  0.2777
  156SAPE  H14X17462   4.323   7.291   8.983  0.0019 -1.2390  1.0615
  156SAPE  H14Y17463   4.348   7.181   8.856  1.4395 -1.8190  1.0295
  156SAPE  C31517464   4.449   7.360   8.807  0.7113  0.0279 -0.3307
  156SAPE  H15X17465   4.486   7.316   8.712 -0.0307 -1.7829  0.1787
  156SAPE  H15Y17466   4.528   7.421   8.856  0.7794 -1.5141  1.5689
  156SAPE  C31617467   4.339   7.456   8.755 -0.7133  0.1550  0.1228
  156SAPE  H16X17468   4.278   7.488   8.842 -0.3291 -1.2081  0.9298
  156SAPE  H16Y17469   4.282   7.393   8.684  0.3306 -0.4015 -0.2410
  156SAPE  C31717470   4.381   7.576   8.672  0.2887  0.5353 -0.4447
  156SAPE  H17X17471   4.427   7.644   8.747  0.2959  1.3260 -1.1464
  156SAPE  H17Y17472   4.290   7.624   8.630  1.0853  1.7777 -0.7867
  156SAPE  C31817473   4.492   7.555   8.562 -0.3473 -0.7652 -0.1001
  156SAPE  H18X17474   4.580   7.520   8.620  0.1830  1.2627  0.4229
  156SAPE  H18Y17475   4.523   7.652   8.518 -1.9748  0.0807  0.5592
  156SAPE  H18Z17476   4.465   7.485   8.480 -1.6523  0.0718 -0.4089
  157SAPE     N17477   2.375   0.338  10.544  0.1909  0.3273 -0.0458
  157SAPE   HN117478   2.288   0.395  10.551 -1.6445 -2.3863  1.2293
  157SAPE   HN217479   2.368   0.263  10.616  1.2411  1.2537  1.0490
  157SAPE   HN317480   2.458   0.398  10.563  0.4485  0.0205 -0.1961
  157SAPE   C1217481   2.377   0.292  10.399 -0.9577 -0.1125 -0.1896
  157SAPE  H12A17482   2.389   0.380  10.332 -1.3356  0.5581  0.5972
  157SAPE  H12B17483   2.282   0.235  10.389 -1.6238  1.0224 -0.5613
  157SAPE   C1117484   2.502   0.206  10.379 -0.7084 -0.0917  0.2645
  157SAPE  H11A17485   2.594   0.269  10.387 -1.1536  0.8916 -1.6855
  157SAPE  H11B17486   2.496   0.173  10.273 -0.2565 -0.2325  0.2804
  157SAPE     P17487   2.621  -0.022  10.442 -0.3675  0.1982 -0.1415
  157SAPE   O1317488   2.757   0.040  10.420  0.7823 -0.1513  0.2546
  157SAPE   O1417489   2.605  -0.107  10.563 -0.2058 -0.7225  0.0162
  157SAPE   O1217490   2.507   0.082  10.448 -0.4244 -0.1786  0.1868
  157SAPE   O1117491   2.578  -0.114  10.319 -0.3314  0.4078 -0.4904
  157SAPE    C117492   2.450  -0.114  10.256  0.2215  0.0904 -0.3750
  157SAPE    HA17493   2.391  -0.196  10.302  3.1009 -1.0777  1.4286
  157SAPE    HB17494   2.390  -0.026  10.287 -0.0517 -0.8074  1.8149
  157SAPE    C217495   2.462  -0.151  10.105 -0.4910  0.8130  0.5177
  157SAPE    HS17496   2.531  -0.237  10.097 -1.3032 -0.1503  2.8616
  157SAPE   O2117497   2.509  -0.029  10.039  0.3045  0.0576  0.7332
  157SAPE   C2117498   2.643  -0.014  10.031  0.2986 -1.1082  0.1551
  157SAPE   O2217499   2.724  -0.089  10.075  0.4228  0.1210 -0.2448
  157SAPE   C2217500   2.673   0.110   9.953  0.3767  0.7771  0.9187
  157SAPE   H2R17501   2.779   0.141   9.962  0.1626  1.9254 -0.1284
  157SAPE   H2S17502   2.635   0.091   9.850 -2.2209 -0.1801  1.9764
  157SAPE    C317503   2.324  -0.192  10.049  1.1507 -0.2052 -0.5386
  157SAPE    HX17504   2.260  -0.102  10.055 -1.5156 -1.8120 -2.4567
  157SAPE    HY17505   2.274  -0.265  10.116  0.2706  1.2861  0.4864
  157SAPE   O3117506   2.338  -0.248   9.918  0.1411  0.6712  0.9803
  157SAPE   C3117507   2.221  -0.227   9.853  0.1682  0.2907 -0.4195
  157SAPE   O3217508   2.127  -0.160   9.898 -0.7185  0.5276 -0.1770
  157SAPE   C3217509   2.237  -0.302   9.711  0.1317  0.2708 -0.1496
  157SAPE   H2X17510   2.166  -0.388   9.718  2.1003 -1.3480  1.3189
  157SAPE   H2Y17511   2.335  -0.353   9.699 -1.7048 -3.2166 -1.8076
  157SAPE   C2317512   2.611   0.240  10.011  0.4696 -0.8786 -0.1880
  157SAPE   H3R17513   2.657   0.253  10.112  1.8379 -3.0133 -0.4766
  157SAPE   H3S17514   2.504   0.218  10.032 -0.0998  0.6455 -1.3624
  157SAPE   C2417515   2.628   0.354   9.917  0.2570  0.2868  0.1328
  157SAPE   H4R17516   2.564   0.439   9.951 -0.6918 -0.2086 -0.3668
  157SAPE   H4S17517   2.583   0.318   9.822  4.1466 -2.2267 -0.9685
  157SAPE   C2517518   2.773   0.393   9.912 -0.2016 -0.5228  1.0813
  157SAPE   H5R17519   2.825   0.398  10.009 -1.7540  1.9693  1.8879
  157SAPE   C2617520   2.835   0.422   9.797 -0.3021 -0.2013  0.2048
  157SAPE   H6R17521   2.942   0.446   9.787  0.6077 -3.2439  1.4653
  157SAPE   C2717522   2.774   0.424   9.660 -0.1959  0.0604 -0.1857
  157SAPE   H7R17523   2.808   0.514   9.605 -2.5671  1.6976  0.8472
  157SAPE   H7S17524   2.666   0.445   9.676  0.2695  2.3875  0.3507
  157SAPE   C2817525   2.779   0.291   9.585  0.0311 -0.0346 -0.3170
  157SAPE   H8R17526   2.751   0.204   9.645 -1.0777  0.7698  0.3799
  157SAPE   C2917527   2.800   0.267   9.453 -0.0720 -0.2611  0.0477
  157SAPE   H9R17528   2.808   0.164   9.416  2.1847  0.4415 -1.6790
  157SAPE  C21017529   2.804   0.375   9.347 -0.1408  0.5365 -0.9267
  157SAPE  H10R17530   2.909   0.404   9.324 -0.1521  1.3993  0.0263
  157SAPE  H10S17531   2.754   0.468   9.381 -2.1916  0.4002 -3.3146
  157SAPE  C21117532   2.731   0.333   9.228 -0.1061  0.1120  0.0406
  157SAPE  H11R17533   2.664   0.246   9.232 -1.3117  1.0562  2.0030
  157SAPE  C21217534   2.743   0.396   9.107  0.2662  0.5118 -0.3195
  157SAPE  H12R17535   2.683   0.353   9.025 -2.0836 -0.9981  2.0000
  157SAPE  C21317536   2.831   0.517   9.076 -0.6576  0.4169  0.2289
  157SAPE  H13R17537   2.839   0.588   9.161 -2.2808  2.5389 -1.2858
  157SAPE  H13S17538   2.780   0.563   8.988 -1.8142 -2.5459 -0.7587
  157SAPE  C21417539   2.975   0.469   9.044 -0.6494 -0.4337 -0.1607
  157SAPE  H14R17540   3.019   0.388   9.104  0.3033  2.2653  3.0476
  157SAPE  C21517541   3.055   0.514   8.941 -1.0723  0.0653 -0.2733
  157SAPE  H15R17542   3.158   0.475   8.940  0.0885  2.7987  1.7619
  157SAPE  C21617543   3.032   0.624   8.841  0.4622  0.1493 -0.1386
  157SAPE  H16R17544   2.960   0.689   8.896 -0.9469 -2.1555  0.8963
  157SAPE  H16S17545   3.002   0.585   8.741  1.0116  0.6200 -0.4991
  157SAPE  C21717546   3.156   0.705   8.807  0.3165 -0.2670 -0.8318
  157SAPE  H17R17547   3.211   0.725   8.901  2.2367 -1.3179 -1.6832
  157SAPE  H17S17548   3.127   0.804   8.767 -0.4099  0.6714  1.8059
  157SAPE  C21817549   3.249   0.627   8.711 -0.2285 -0.5584 -0.5144
  157SAPE  H18R17550   3.191   0.613   8.617  0.4328  2.2072 -1.4399
  157SAPE  H18S17551   3.287   0.533   8.756 -1.9136 -1.0626 -0.0654
  157SAPE  C21917552   3.364   0.712   8.661  1.1166  0.2619 -0.2759
  157SAPE  H19R17553   3.439   0.733   8.740  0.1015  2.4241  0.1880
  157SAPE  H19S17554   3.323   0.810   8.629 -1.9137 -1.2384 -1.3858
  157SAPE  C22017555   3.432   0.649   8.544  0.7818  0.6400  0.1255
  157SAPE  H20R17556   3.522   0.712   8.528 -0.0424  1.3273 -2.1112
  157SAPE  H20S17557   3.378   0.651   8.447  2.7375  0.5305 -1.0080
  157SAPE  H20T17558   3.456   0.542   8.562  1.3823  0.9423  1.1956
  157SAPE   C3317559   2.191  -0.205   9.599  0.2114  0.0588  1.1210
  157SAPE   H3X17560   2.244  -0.107   9.599  0.6432 -0.1448 -0.4219
  157SAPE   H3Y17561   2.087  -0.175   9.623 -1.1743 -0.8862 -2.9214
  157SAPE   C3417562   2.190  -0.267   9.460 -0.2247 -0.4290  0.1763
  157SAPE   H4X17563   2.177  -0.182   9.390 -2.3979  0.5419  1.6468
  157SAPE   H4Y17564   2.103  -0.334   9.444 -0.0387 -0.7283  0.4008
  157SAPE   C3517565   2.306  -0.346   9.423  0.3534 -0.0391  0.8087
  157SAPE   H5X17566   2.288  -0.448   9.462  0.5734  0.9113  3.6017
  157SAPE   H5Y17567   2.400  -0.304   9.465  1.4458  0.7831 -2.1745
  157SAPE   C3617568   2.324  -0.371   9.268  0.3721  0.4328  0.6000
  157SAPE   H6X17569   2.400  -0.452   9.257 -1.3866 -1.0186 -1.9431
  157SAPE   H6Y17570   2.376  -0.277   9.238 -0.9824  1.1687  0.5049
  157SAPE   C3717571   2.205  -0.386   9.180  0.2656 -0.0593 -0.2154
  157SAPE   H7X17572   2.130  -0.309   9.207  0.8835 -0.2157  2.2118
  157SAPE   H7Y17573   2.144  -0.476   9.202 -1.3795  1.3786  1.5071
  157SAPE   C3817574   2.253  -0.380   9.034  0.6106  0.7042 -0.2729
  157SAPE   H8X17575   2.333  -0.458   9.025 -0.8349 -0.7630 -1.0101
  157SAPE   H8Y17576   2.301  -0.282   9.016  0.0017  1.2090  0.8202
  157SAPE   C3917577   2.145  -0.414   8.927  0.2707  0.4449 -0.1307
  157SAPE   H9X17578   2.065  -0.337   8.925 -0.8956 -0.7146  0.2217
  157SAPE   H9Y17579   2.091  -0.507   8.955 -0.3506  0.7450 -0.3275
  157SAPE  C31017580   2.210  -0.441   8.797  0.0037  0.1892  0.3478
  157SAPE  H10X17581   2.284  -0.522   8.810  2.3099  2.1280  0.1241
  157SAPE  H10Y17582   2.256  -0.344   8.767 -1.4724  0.8446  0.0776
  157SAPE  C31117583   2.107  -0.474   8.689 -0.1348 -0.0382 -0.7507
  157SAPE  H11X17584   2.038  -0.390   8.663 -2.1110 -1.8782 -1.7371
  157SAPE  H11Y17585   2.042  -0.556   8.726 -1.2584  0.5774 -1.2956
  157SAPE  C31217586   2.173  -0.526   8.566 -0.2373 -0.3034  0.4297
  157SAPE  H12X17587   2.227  -0.622   8.583  0.0042 -0.6311 -1.9435
  157SAPE  H12Y17588   2.237  -0.448   8.520  2.8222 -2.6462  0.4036
  157SAPE  C31317589   2.068  -0.570   8.466  1.1149  0.8213 -0.0513
  157SAPE  H13X17590   1.991  -0.491   8.455 -0.9862 -1.1880 -0.5284
  157SAPE  H13Y17591   2.033  -0.661   8.520 -2.3784  1.1279 -1.5616
  157SAPE  C31417592   2.125  -0.598   8.322  0.8023  0.1912 -0.3395
  157SAPE  H14X17593   2.152  -0.499   8.281  0.7813  0.7492  0.9294
  157SAPE  H14Y17594   2.040  -0.638   8.263  0.1630 -0.0915  0.7358
  157SAPE  C31517595   2.244  -0.691   8.313 -0.1169 -0.3824 -0.2803
  157SAPE  H15X17596   2.221  -0.782   8.373  1.6918 -2.0314 -1.9557
  157SAPE  H15Y17597   2.339  -0.651   8.354  1.1633  0.4645 -3.7507
  157SAPE  C31617598   2.272  -0.736   8.172 -0.2059 -0.0467 -0.3456
  157SAPE  H16X17599   2.176  -0.776   8.133 -0.3661  0.3837 -0.3954
  157SAPE  H16Y17600   2.355  -0.810   8.172  0.7807  0.8953  2.6600
  157SAPE  C31717601   2.314  -0.631   8.070 -0.3045  0.3884  0.4118
  157SAPE  H17X17602   2.400  -0.573   8.109 -0.5052  1.5275 -0.7355
  157SAPE  H17Y17603   2.232  -0.556   8.057 -0.0306  0.2584 -3.0755
  157SAPE  C31817604   2.365  -0.677   7.935 -0.1074 -0.3390  0.1791
  157SAPE  H18X17605   2.412  -0.588   7.887 -1.3308  0.9606  1.2971
  157SAPE  H18Y17606   2.274  -0.706   7.878  0.0650  0.4968 -0.5502
  157SAPE  H18Z17607   2.436  -0.761   7.945 -0.8353 -0.6981  3.6543
  158SAPE     N17608   5.116   1.570  10.734  0.1919 -0.1325  0.6184
  158SAPE   HN117609   5.104   1.475  10.772 -0.7918 -0.7700 -1.1640
  158SAPE   HN217610   5.212   1.594  10.764 -0.4714 -1.1191  3.8782
  158SAPE   HN317611   5.049   1.632  10.785 -3.0289  0.2084 -3.4905
  158SAPE   C1217612   5.092   1.569  10.585 -0.1061  0.0027 -0.1985
  158SAPE  H12A17613   5.000   1.509  10.572  1.1240 -1.5776 -2.2684
  158SAPE  H12B17614   5.169   1.512  10.528 -1.3651 -2.6374  0.5808
  158SAPE   C1117615   5.081   1.713  10.536 -0.2299 -0.1856 -0.4240
  158SAPE  H11A17616   5.048   1.706  10.430 -0.2238 -4.5236 -0.3315
  158SAPE  H11B17617   5.186   1.749  10.529  0.0433 -0.8288  0.2819
  158SAPE     P17618   4.850   1.801  10.603  0.2251  0.0320  0.0319
  158SAPE   O1317619   4.818   1.656  10.614  0.4438 -0.0993  0.4174
  158SAPE   O1417620   4.777   1.896  10.696 -0.0393 -0.5515  0.2580
  158SAPE   O1217621   5.007   1.808  10.620 -0.0484 -0.1223 -0.3914
  158SAPE   O1117622   4.825   1.862  10.462  0.2259 -0.7376 -0.4228
  158SAPE    C117623   4.909   1.972  10.419  0.1944 -0.2299  0.4278
  158SAPE    HA17624   4.923   2.053  10.494  0.2503  2.8761 -2.7137
  158SAPE    HB17625   5.013   1.944  10.395  0.6983  1.4913  0.4900
  158SAPE    C217626   4.834   2.032  10.303 -1.2638  0.5657 -0.0680
  158SAPE    HS17627   4.746   2.080  10.351 -1.7726  0.4357 -0.8382
  158SAPE   O2117628   4.789   1.929  10.209  0.3085 -0.0809  0.0436
  158SAPE   C2117629   4.684   1.951  10.147 -0.5641 -0.3129  0.7754
  158SAPE   O2217630   4.606   2.045  10.160  0.4564  0.3025  0.0310
  158SAPE   C2217631   4.664   1.837  10.046  0.0378  0.1424  0.1674
  158SAPE   H2R17632   4.758   1.778  10.038  0.9764  1.5433  0.5123
  158SAPE   H2S17633   4.589   1.763  10.081 -0.0028  0.9123  1.8042
  158SAPE    C317634   4.928   2.139  10.233 -0.1065  0.1139  0.2876
  158SAPE    HX17635   5.023   2.093  10.198 -0.4802  0.6843 -1.5457
  158SAPE    HY17636   4.957   2.214  10.310 -0.5303  2.1554 -1.4474
  158SAPE   O3117637   4.860   2.202  10.127  0.1041  0.2546  0.1368
  158SAPE   C3117638   4.773   2.302  10.152  0.0946 -0.4785 -0.1315
  158SAPE   O3217639   4.749   2.344  10.263 -0.2914 -0.3693  0.7393
  158SAPE   C3217640   4.706   2.346  10.016 -0.5132  0.0701 -0.7099
  158SAPE   H2X17641   4.620   2.276  10.025 -1.2058  1.0182  0.4114
  158SAPE   H2Y17642   4.772   2.314   9.933  0.7686 -2.9646  1.3000
  158SAPE   C2317643   4.615   1.898   9.914 -0.3331 -0.0352  0.5565
  158SAPE   H3R17644   4.694   1.968   9.879  0.4631 -1.0345  0.3089
  158SAPE   H3S17645   4.530   1.962   9.944  0.4114  1.1716  0.1599
  158SAPE   C2417646   4.560   1.812   9.809 -0.7095 -0.6703 -0.4168
  158SAPE   H4R17647   4.521   1.874   9.725 -0.5897 -0.5653 -0.3962
  158SAPE   H4S17648   4.464   1.769   9.842 -1.2137  1.2814  0.8502
  158SAPE   C2517649   4.666   1.716   9.769 -0.4555  0.2442 -0.0036
  158SAPE   H5R17650   4.710   1.664   9.855 -1.5691 -2.9558 -1.2395
  158SAPE   C2617651   4.715   1.706   9.646  0.4567 -0.8280  0.5313
  158SAPE   H6R17652   4.797   1.632   9.645  1.4743  0.1880  2.2187
  158SAPE   C2717653   4.667   1.764   9.513  0.1931 -0.0719 -0.3610
  158SAPE   H7R17654   4.676   1.874   9.499  0.9396 -0.3048 -1.9378
  158SAPE   H7S17655   4.556   1.763   9.516  0.0519  2.7644  3.2957
  158SAPE   C2817656   4.722   1.705   9.386  0.2022  0.0336 -0.3172
  158SAPE   H8R17657   4.814   1.744   9.340 -0.6576  0.3042 -1.8753
  158SAPE   C2917658   4.664   1.604   9.317  0.5470 -0.6910 -0.0079
  158SAPE   H9R17659   4.718   1.564   9.230  1.3905  1.6451 -0.6220
  158SAPE  C21017660   4.539   1.523   9.354 -0.5028 -0.1291 -0.0402
  158SAPE  H10R17661   4.514   1.548   9.459 -0.2295 -0.3729  0.0829
  158SAPE  H10S17662   4.559   1.413   9.355 -1.4932 -0.3225  0.7686
  158SAPE  C21117663   4.412   1.567   9.287 -0.3689  1.0042  0.7349
  158SAPE  H11R17664   4.368   1.666   9.308  0.2854  1.3508  0.5118
  158SAPE  C21217665   4.348   1.497   9.190  0.3969 -0.8401  0.4586
  158SAPE  H12R17666   4.249   1.534   9.158 -0.7066 -1.3067  3.1137
  158SAPE  C21317667   4.371   1.357   9.135  0.5172  0.5708  0.1155
  158SAPE  H13R17668   4.284   1.290   9.150 -0.2755  1.2798 -1.1976
  158SAPE  H13S17669   4.456   1.303   9.182  0.3384 -0.5480 -0.8092
  158SAPE  C21417670   4.402   1.373   8.988 -0.0772 -1.1650  0.2662
  158SAPE  H14R17671   4.498   1.425   8.976  0.3296 -0.5546  4.5949
  158SAPE  C21517672   4.346   1.324   8.875 -0.6201  0.3482  0.0293
  158SAPE  H15R17673   4.384   1.349   8.774 -2.6931 -0.1745 -0.9295
  158SAPE  C21617674   4.213   1.245   8.868 -0.7257  0.2969  0.0121
  158SAPE  H16R17675   4.130   1.318   8.874  0.1547  1.2699  0.7417
  158SAPE  H16S17676   4.201   1.175   8.954  0.2752 -2.2462 -1.7988
  158SAPE  C21717677   4.214   1.153   8.743  0.4361 -0.4247 -0.8894
  158SAPE  H17R17678   4.117   1.101   8.727 -0.2003  0.3079  0.4014
  158SAPE  H17S17679   4.292   1.075   8.754 -2.8519 -4.1848 -1.7266
  158SAPE  C21817680   4.228   1.215   8.610 -0.3014 -0.3641 -0.3517
  158SAPE  H18R17681   4.312   1.287   8.601 -2.5106  2.4483  0.1023
  158SAPE  H18S17682   4.141   1.283   8.599 -0.4401 -0.3782  0.5355
  158SAPE  C21917683   4.230   1.124   8.486  0.1576 -0.3010  0.3038
  158SAPE  H19R17684   4.301   1.039   8.494  2.1514  1.2133 -0.6248
  158SAPE  H19S17685   4.279   1.184   8.407 -0.1157 -0.2894  0.1397
  158SAPE  C22017686   4.090   1.084   8.434  0.3268  0.0806  0.8349
  158SAPE  H20R17687   4.036   1.165   8.380  0.4578 -1.9245 -2.5732
  158SAPE  H20S17688   4.031   1.056   8.524 -1.7161 -1.0421 -0.7389
  158SAPE  H20T17689   4.101   1.002   8.360  0.7486  2.2302 -1.6348
  158SAPE   C3317690   4.655   2.491   9.988 -0.0055  0.3057 -0.0941
  158SAPE   H3X17691   4.746   2.552   9.966  0.9161 -1.7552 -2.5524
  158SAPE   H3Y17692   4.612   2.532  10.082 -2.7187 -0.9011 -0.7128
  158SAPE   C3417693   4.552   2.513   9.883 -0.0626 -0.1934  0.3644
  158SAPE   H4X17694   4.554   2.619   9.850  0.2370 -0.9850 -2.3815
  158SAPE   H4Y17695   4.450   2.496   9.922 -0.1368 -0.8400 -0.1093
  158SAPE   C3517696   4.571   2.435   9.755  1.5628 -0.2706 -1.0036
  158SAPE   H5X17697   4.677   2.404   9.740  2.0640  0.9191 -0.1260
  158SAPE   H5Y17698   4.536   2.500   9.673  2.3314  1.2761 -0.1375
  158SAPE   C3617699   4.465   2.310   9.756  0.0118 -0.7720 -0.6113
  158SAPE   H6X17700   4.372   2.356   9.797 -0.5729 -1.2577 -1.3791
  158SAPE   H6Y17701   4.497   2.227   9.822 -1.4785 -0.1853  0.9220
  158SAPE   C3717702   4.437   2.259   9.618 -0.0264  0.5057  0.2728
  158SAPE   H7X17703   4.361   2.327   9.573  1.9471  1.2148 -2.1771
  158SAPE   H7Y17704   4.389   2.159   9.625  0.7630  0.0625 -0.5155
  158SAPE   C3817705   4.553   2.236   9.522  0.0234  0.3586 -0.0859
  158SAPE   H8X17706   4.649   2.204   9.568  1.5407 -0.7544 -3.7230
  158SAPE   H8Y17707   4.571   2.335   9.476  2.2223  0.1395  0.2240
  158SAPE   C3917708   4.507   2.140   9.406  0.9861 -0.2160 -0.2697
  158SAPE   H9X17709   4.397   2.143   9.390  0.2961  1.4188  3.7945
  158SAPE   H9Y17710   4.533   2.035   9.433 -0.9183 -0.7744 -0.4594
  158SAPE  C31017711   4.586   2.163   9.279 -0.5310  0.8146 -0.3220
  158SAPE  H10X17712   4.696   2.155   9.297 -0.3984 -1.7946 -1.9003
  158SAPE  H10Y17713   4.564   2.261   9.232 -0.0039  0.7465 -0.7177
  158SAPE  C31117714   4.551   2.062   9.173  0.0660 -0.4462 -1.0368
  158SAPE  H11X17715   4.445   2.084   9.149  0.0797  0.4292 -0.3331
  158SAPE  H11Y17716   4.560   1.957   9.210  2.6103 -0.1576 -0.6436
  158SAPE  C31217717   4.635   2.059   9.045  0.3511 -0.1772  0.7222
  158SAPE  H12X17718   4.631   2.155   8.989  1.3770 -0.7707 -0.4084
  158SAPE  H12Y17719   4.588   1.987   8.975 -1.8572  0.4712  1.4483
  158SAPE  C31317720   4.774   2.010   9.061  0.3680  0.3498 -0.8314
  158SAPE  H13X17721   4.772   1.909   9.107 -1.0451  0.0295 -1.5440
  158SAPE  H13Y17722   4.812   2.069   9.146  0.6732 -1.9518  0.7334
  158SAPE  C31417723   4.868   2.005   8.942  0.3130 -0.8965 -0.4804
  158SAPE  H14X17724   4.958   1.950   8.978  0.7786  1.0398  1.5266
  158SAPE  H14Y17725   4.892   2.111   8.918  0.2319 -0.7560  0.0429
  158SAPE  C31517726   4.811   1.940   8.817 -0.2540  0.6741 -0.4033
  158SAPE  H15X17727   4.890   1.945   8.739 -0.3182  1.6422 -0.4164
  158SAPE  H15Y17728   4.733   2.006   8.772 -1.3172 -1.0552 -1.2151
  158SAPE  C31617729   4.770   1.789   8.825 -0.1764 -0.5105  0.4327
  158SAPE  H16X17730   4.735   1.767   8.722 -0.8854 -3.2627  1.1582
  158SAPE  H16Y17731   4.678   1.774   8.886 -0.1114 -0.6459  0.5002
  158SAPE  C31717732   4.873   1.695   8.880 -0.0234  0.1956  0.5600
  158SAPE  H17X17733   4.889   1.724   8.986 -0.7162  1.0977  0.4212
  158SAPE  H17Y17734   4.972   1.717   8.834 -1.0294 -0.4966 -2.1391
  158SAPE  C31817735   4.846   1.545   8.876  0.4153  0.1097  0.6432
  158SAPE  H18X17736   4.762   1.513   8.941  0.7923 -1.2575  0.4881
  158SAPE  H18Y17737   4.934   1.485   8.906 -0.8752 -1.6772  0.9920
  158SAPE  H18Z17738   4.815   1.515   8.773 -1.4626  0.5180  1.0506
  159SAPE     N17739   0.842   6.440   6.228  0.2179  0.2505 -0.5694
  159SAPE   HN117740   0.915   6.475   6.163 -0.2542  0.9979 -0.7032
  159SAPE   HN217741   0.818   6.529   6.276  0.9680  0.3595 -0.3938
  159SAPE   HN317742   0.879   6.374   6.299  1.9820  0.2925 -1.3959
  159SAPE   C1217743   0.710   6.398   6.161  0.0742  0.6076 -0.4026
  159SAPE  H12A17744   0.633   6.369   6.236  0.9624  1.9376  1.0602
  159SAPE  H12B17745   0.740   6.315   6.093 -3.1432 -1.2985  0.2711
  159SAPE   C1117746   0.665   6.526   6.089 -0.3636 -0.4093 -0.3519
  159SAPE  H11A17747   0.729   6.539   5.999 -0.2647  0.9778 -0.1043
  159SAPE  H11B17748   0.689   6.622   6.138  2.8460 -1.0490 -0.4264
  159SAPE     P17749   0.414   6.593   6.086 -0.5155  0.6801  0.2136
  159SAPE   O1317750   0.457   6.719   6.148 -0.2081  0.4402  0.0856
  159SAPE   O1417751   0.317   6.599   5.971  0.4108 -0.0019  0.1776
  159SAPE   O1217752   0.540   6.513   6.038 -0.6572  0.2564  0.0005
  159SAPE   O1117753   0.365   6.499   6.213 -0.4399 -0.4064 -0.2776
  159SAPE    C117754   0.341   6.360   6.183 -0.2104 -0.2386 -0.5186
  159SAPE    HA17755   0.253   6.353   6.115  0.5309  0.2146 -1.5483
  159SAPE    HB17756   0.423   6.316   6.122  0.1631  1.9476 -1.6876
  159SAPE    C217757   0.316   6.273   6.308 -0.0167  0.2052 -1.0425
  159SAPE    HS17758   0.229   6.322   6.357  0.3967  0.6574 -0.7569
  159SAPE   O2117759   0.433   6.272   6.388 -0.2807  0.2982 -0.2578
  159SAPE   C2117760   0.419   6.252   6.513 -0.0134 -0.4984 -0.5623
  159SAPE   O2217761   0.312   6.251   6.580 -0.4074 -0.1572  0.2292
  159SAPE   C2217762   0.560   6.281   6.571 -0.3275  0.1342  0.3192
  159SAPE   H2R17763   0.643   6.238   6.512 -1.3451 -0.5970 -0.6360
  159SAPE   H2S17764   0.578   6.390   6.569 -1.7799  0.4121  0.7648
  159SAPE    C317765   0.285   6.125   6.266 -0.2571  1.3229  0.2973
  159SAPE    HX17766   0.362   6.084   6.197 -2.6614 -1.9588 -0.7071
  159SAPE    HY17767   0.195   6.124   6.201  1.4993 -0.6534 -2.3031
  159SAPE   O3117768   0.261   6.038   6.387  0.1938 -0.3933 -0.3158
  159SAPE   C3117769   0.297   5.913   6.377 -0.6224 -0.1333 -0.5089
  159SAPE   O3217770   0.361   5.868   6.281 -0.2025  0.1073  0.4992
  159SAPE   C3217771   0.252   5.843   6.496  0.5623  0.1917 -0.7805
  159SAPE   H2X17772   0.142   5.851   6.510  0.6384 -0.3782  0.2369
  159SAPE   H2Y17773   0.314   5.884   6.579 -0.6143  0.8710 -0.2199
  159SAPE   C2317774   0.552   6.234   6.716  0.0764 -0.1599  0.2894
  159SAPE   H3R17775   0.470   6.282   6.773 -0.8506 -1.8911  0.4916
  159SAPE   H3S17776   0.646   6.272   6.761 -0.8231  1.4521  0.8766
  159SAPE   C2417777   0.538   6.084   6.745  0.2660  0.1559 -0.7016
  159SAPE   H4R17778   0.433   6.057   6.719  0.3010 -0.2983 -0.3832
  159SAPE   H4S17779   0.546   6.057   6.853 -1.5716 -0.3804 -0.6656
  159SAPE   C2517780   0.614   5.987   6.664 -0.3307  0.7300 -0.2611
  159SAPE   H5R17781   0.686   6.030   6.593  0.9534  0.1067  0.6243
  159SAPE   C2617782   0.613   5.847   6.682  1.4420 -0.3378  0.3374
  159SAPE   H6R17783   0.661   5.783   6.607  1.2477  1.0485 -1.0212
  159SAPE   C2717784   0.533   5.768   6.782 -0.3440 -0.3484  0.0983
  159SAPE   H7R17785   0.437   5.746   6.731 -0.7914  1.2814  0.1632
  159SAPE   H7S17786   0.524   5.817   6.881 -0.2364 -0.2635  0.0662
  159SAPE   C2817787   0.600   5.635   6.802  0.3912  0.3852 -0.0798
  159SAPE   H8R17788   0.690   5.612   6.743 -0.1491  0.5122 -0.9610
  159SAPE   C2917789   0.551   5.542   6.886  0.3497 -0.1543 -0.4698
  159SAPE   H9R17790   0.608   5.448   6.896  0.1564 -0.2576 -0.3388
  159SAPE  C21017791   0.425   5.546   6.968  0.6153  0.2925  0.3367
  159SAPE  H10R17792   0.378   5.646   6.958  2.0781  0.9594 -0.0751
  159SAPE  H10S17793   0.445   5.550   7.077  3.1922  0.2251 -0.0749
  159SAPE  C21117794   0.319   5.439   6.944  0.4686 -0.0869  0.2611
  159SAPE  H11R17795   0.268   5.457   6.848 -0.8525 -0.8002  0.8118
  159SAPE  C21217796   0.286   5.334   7.020  0.5436  0.2939 -1.4786
  159SAPE  H12R17797   0.214   5.257   6.990  0.8258 -1.7025  2.3518
  159SAPE  C21317798   0.326   5.292   7.157 -0.4789 -0.2856  0.0134
  159SAPE  H13R17799   0.266   5.201   7.181  0.2929 -0.9288 -0.4139
  159SAPE  H13S17800   0.286   5.375   7.219 -2.5453 -1.9166  1.0022
  159SAPE  C21417801   0.473   5.268   7.170  0.5074  0.1512 -0.3897
  159SAPE  H14R17802   0.527   5.223   7.085 -1.0597  1.9142 -2.4675
  159SAPE  C21517803   0.543   5.294   7.282 -0.1358 -0.1644  0.1181
  159SAPE  H15R17804   0.649   5.265   7.273  0.1395  0.7240  0.3676
  159SAPE  C21617805   0.508   5.366   7.414 -1.1712  0.0914 -0.1849
  159SAPE  H16R17806   0.423   5.436   7.406 -0.5988  1.3031  2.9525
  159SAPE  H16S17807   0.582   5.444   7.443  1.9749 -2.1569 -1.5208
  159SAPE  C21717808   0.492   5.264   7.519  0.4068 -0.0167 -1.2530
  159SAPE  H17R17809   0.583   5.201   7.528  0.4875  0.0882 -1.3272
  159SAPE  H17S17810   0.415   5.187   7.498 -1.7666  1.9387 -0.8906
  159SAPE  C21817811   0.461   5.318   7.658 -0.2760 -0.2941  0.2443
  159SAPE  H18R17812   0.439   5.228   7.719 -2.3519 -0.0639 -0.1060
  159SAPE  H18S17813   0.370   5.381   7.670  0.7873  1.3762 -0.0990
  159SAPE  C21917814   0.565   5.417   7.716  0.3281 -0.0264  0.1392
  159SAPE  H19R17815   0.563   5.506   7.650 -0.0156  0.0803  0.2953
  159SAPE  H19S17816   0.668   5.375   7.711 -0.1509 -1.2618  0.2623
  159SAPE  C22017817   0.537   5.457   7.862 -0.1436  0.2346 -0.1725
  159SAPE  H20R17818   0.543   5.371   7.931 -0.3588  0.4743  0.1476
  159SAPE  H20S17819   0.439   5.511   7.863 -0.0823  0.3594 -0.5354
  159SAPE  H20T17820   0.616   5.527   7.897  0.5569 -1.6644  2.2437
  159SAPE   C3317821   0.277   5.683   6.495  0.0833 -0.0848 -0.7540
  159SAPE   H3X17822   0.388   5.675   6.502  0.1345  0.2884 -1.0530
  159SAPE   H3Y17823   0.248   5.631   6.402  0.6355 -1.6046 -0.1012
  159SAPE   C3417824   0.222   5.615   6.619  0.3295 -0.4550 -0.6672
  159SAPE   H4X17825   0.244   5.668   6.714 -3.5501 -0.0368  0.1786
  159SAPE   H4Y17826   0.267   5.514   6.631  0.5172 -0.6424 -2.6608
  159SAPE   C3517827   0.070   5.605   6.637  0.1300  0.3366  0.0900
  159SAPE   H5X17828   0.029   5.529   6.567 -2.3247  1.0993  0.6205
  159SAPE   H5Y17829   0.033   5.706   6.608  2.6280  0.9869 -1.1479
  159SAPE   C3617830   0.011   5.580   6.777  0.1615  0.2671  0.2922
  159SAPE   H6X17831  -0.078   5.642   6.799 -0.2151 -0.0022 -0.4429
  159SAPE   H6Y17832   0.082   5.613   6.857  0.7507  1.1847 -0.5884
  159SAPE   C3717833  -0.016   5.429   6.803  0.3421 -0.7500  0.2259
  159SAPE   H7X17834   0.078   5.377   6.777  0.2435 -0.3438 -1.0395
  159SAPE   H7Y17835  -0.086   5.388   6.726  1.0043 -2.6009  0.5615
  159SAPE   C3817836  -0.068   5.402   6.950 -0.1193 -0.3600 -0.1179
  159SAPE   H8X17837  -0.013   5.466   7.023  0.3151 -2.8364  1.8570
  159SAPE   H8Y17838  -0.038   5.298   6.974  0.4676  0.5697  3.9056
  159SAPE   C3917839  -0.213   5.419   6.965  0.2189 -0.6397  1.1364
  159SAPE   H9X17840  -0.275   5.337   6.924  2.6951 -2.9008  1.6925
  159SAPE   H9Y17841  -0.245   5.515   6.918  0.2473 -0.5548  1.2881
  159SAPE  C31017842  -0.256   5.414   7.110 -0.0683  0.2316  0.4234
  159SAPE  H10X17843  -0.208   5.323   7.154  0.7540  1.4980  2.2718
  159SAPE  H10Y17844  -0.366   5.402   7.117 -0.2068  1.5459  0.8116
  159SAPE  C31117845  -0.217   5.538   7.189 -0.4464  0.5326  0.1637
  159SAPE  H11X17846  -0.112   5.564   7.164 -1.1693  2.5864 -0.9789
  159SAPE  H11Y17847  -0.222   5.516   7.297 -0.5595  2.3730  0.5709
  159SAPE  C31217848  -0.302   5.655   7.149  0.5502 -0.0123 -0.0791
  159SAPE  H12X17849  -0.410   5.632   7.143  0.5146 -0.3029  1.3400
  159SAPE  H12Y17850  -0.281   5.679   7.042 -0.6573 -0.0117 -0.3257
  159SAPE  C31317851  -0.282   5.770   7.254  0.2569  0.3215 -0.1541
  159SAPE  H13X17852  -0.323   5.870   7.226  0.3404  0.0879 -1.1459
  159SAPE  H13Y17853  -0.171   5.780   7.254  1.1854 -6.0305 -0.1858
  159SAPE  C31417854  -0.343   5.739   7.393  0.5495 -0.6966  0.1898
  159SAPE  H14X17855  -0.319   5.637   7.431 -1.5645 -1.7066 -0.9958
  159SAPE  H14Y17856  -0.454   5.740   7.382  0.7332 -1.6871 -2.4679
  159SAPE  C31517857  -0.306   5.844   7.497  0.6530  0.0684  0.0751
  159SAPE  H15X17858  -0.349   5.944   7.474  0.5041 -0.2629 -1.1318
  159SAPE  H15Y17859  -0.195   5.846   7.504  0.5689  0.5995  1.9043
  159SAPE  C31617860  -0.356   5.794   7.633 -0.6732 -0.6135  0.7141
  159SAPE  H16X17861  -0.298   5.703   7.659  2.9223  1.3086  0.0539
  159SAPE  H16Y17862  -0.465   5.777   7.627 -0.6570 -0.3992 -0.5487
  159SAPE  C31717863  -0.301   5.871   7.759  0.7776  0.1051  0.6031
  159SAPE  H17X17864  -0.358   5.822   7.841 -3.9505  1.0792 -1.7283
  159SAPE  H17Y17865  -0.347   5.972   7.762 -2.2585 -1.1853  2.5445
  159SAPE  C31817866  -0.148   5.900   7.766 -0.9274  0.4792  0.4222
  159SAPE  H18X17867  -0.126   5.998   7.813  1.7656 -0.0722  0.4699
  159SAPE  H18Y17868  -0.113   5.915   7.662 -0.6864  0.4342  0.4957
  159SAPE  H18Z17869  -0.100   5.811   7.812  0.1385  1.1395  0.6233
  160SAPE     N17870   6.105   6.442   6.213 -0.3262  0.3259 -0.5830
  160SAPE   HN117871   6.071   6.344   6.201  1.6521 -0.4949  0.0461
  160SAPE   HN217872   6.048   6.497   6.146  0.1037 -0.8688 -1.9919
  160SAPE   HN317873   6.205   6.436   6.185  0.2269  1.5055  0.9737
  160SAPE   C1217874   6.085   6.487   6.355  0.2694  0.5167 -0.6399
  160SAPE  H12A17875   6.181   6.530   6.389  0.8487 -0.2413 -1.2941
  160SAPE  H12B17876   6.067   6.396   6.416 -1.1927  0.6671 -0.7913
  160SAPE   C1117877   5.973   6.590   6.362 -0.3721  0.7322  0.4793
  160SAPE  H11A17878   6.005   6.674   6.296 -0.6536 -1.7801 -3.1851
  160SAPE  H11B17879   5.954   6.625   6.466 -2.6894  1.2323 -0.0554
  160SAPE     P17880   5.757   6.451   6.357  0.2735  0.2242 -0.0296
  160SAPE   O1317881   5.614   6.481   6.319 -0.0429  0.2667 -0.0283
  160SAPE   O1417882   5.800   6.313   6.318 -0.0796 -0.5717  0.2905
  160SAPE   O1217883   5.858   6.552   6.289  0.0578 -0.6102  0.9991
  160SAPE   O1117884   5.780   6.460   6.508  0.2774  0.1310 -0.3368
  160SAPE    C117885   5.698   6.530   6.596  0.3218  0.2096 -0.0516
  160SAPE    HA17886   5.680   6.633   6.560  2.5337  0.8547  0.5752
  160SAPE    HB17887   5.596   6.486   6.604 -0.3904  1.6365 -0.8146
  160SAPE    C217888   5.769   6.535   6.732  0.3564 -0.4974  0.0990
  160SAPE    HS17889   5.702   6.601   6.792  1.7693  3.3589 -2.1459
  160SAPE   O2117890   5.901   6.586   6.711 -0.7161 -0.5334  0.3290
  160SAPE   C2117891   5.915   6.714   6.724  0.4369 -0.0268 -0.6340
  160SAPE   O2217892   5.825   6.794   6.754 -0.6397  0.4386 -0.1796
  160SAPE   C2217893   6.056   6.761   6.705  0.2871 -0.7871 -0.2980
  160SAPE   H2R17894   6.120   6.672   6.686  1.8202  0.3503 -0.6406
  160SAPE   H2S17895   6.068   6.819   6.611  1.6184 -2.1092 -0.9971
  160SAPE    C317896   5.766   6.391   6.801  0.0478  0.2032  0.0810
  160SAPE    HX17897   5.861   6.347   6.763  0.0603  0.9371 -0.7589
  160SAPE    HY17898   5.682   6.327   6.767  0.3509 -0.4011  0.4381
  160SAPE   O3117899   5.766   6.401   6.942  0.1393  0.3283 -0.1840
  160SAPE   C3117900   5.658   6.440   7.003  0.3288 -0.2641  0.6681
  160SAPE   O3217901   5.547   6.441   6.953 -0.2889 -0.5364 -0.0513
  160SAPE   C3217902   5.682   6.470   7.149  0.3670  0.3890 -0.7893
  160SAPE   H2X17903   5.755   6.553   7.162 -2.6641  3.3497 -1.4592
  160SAPE   H2Y17904   5.718   6.377   7.198  2.9213  2.8317  2.4297
  160SAPE   C2317905   6.130   6.824   6.832 -0.0494  0.0176  0.3879
  160SAPE   H3R17906   6.065   6.890   6.894  0.0270  1.3905 -0.9124
  160SAPE   H3S17907   6.213   6.887   6.792  0.2569 -0.7927 -0.2670
  160SAPE   C2417908   6.197   6.718   6.919  0.1452 -0.3502  0.6947
  160SAPE   H4R17909   6.257   6.778   6.990  1.3079 -0.8155  0.1233
  160SAPE   H4S17910   6.268   6.660   6.857 -1.1921 -2.2493  0.8322
  160SAPE   C2517911   6.100   6.640   6.996  0.4754  0.1603 -0.0762
  160SAPE   H5R17912   6.070   6.548   6.943 -1.3253  1.3047 -1.1839
  160SAPE   C2617913   6.047   6.675   7.110 -0.5850  0.4831 -0.7219
  160SAPE   H6R17914   5.984   6.599   7.160  2.1212 -1.8384 -0.6081
  160SAPE   C2717915   6.071   6.805   7.180  0.1813 -0.9601  0.5822
  160SAPE   H7R17916   5.989   6.855   7.235 -0.2793 -0.7058 -0.3096
  160SAPE   H7S17917   6.089   6.883   7.103 -0.2914 -2.0524 -0.6770
  160SAPE   C2817918   6.188   6.790   7.266 -0.2626 -0.1400 -0.7062
  160SAPE   H8R17919   6.278   6.821   7.211 -2.2897  0.6744 -3.8591
  160SAPE   C2917920   6.207   6.724   7.382 -0.3967 -0.2452 -0.4672
  160SAPE   H9R17921   6.308   6.707   7.423  0.9749 -0.5742 -3.6455
  160SAPE  C21017922   6.106   6.647   7.457  0.3104 -0.9183  0.0305
  160SAPE  H10R17923   6.123   6.537   7.453  0.8944 -0.7928 -0.9713
  160SAPE  H10S17924   6.005   6.650   7.410  0.2594  0.5534  0.1782
  160SAPE  C21117925   6.084   6.682   7.599 -0.4907  0.2021 -0.2888
  160SAPE  H11R17926   6.107   6.786   7.626  0.5968 -0.1771  0.3151
  160SAPE  C21217927   6.013   6.614   7.696 -0.6235  0.2092  0.0870
  160SAPE  H12R17928   5.990   6.654   7.796 -0.3089 -0.3456  0.3827
  160SAPE  C21317929   5.957   6.480   7.659  0.3879 -0.0035  0.4385
  160SAPE  H13R17930   6.025   6.424   7.592 -0.2733  0.4647 -0.6587
  160SAPE  H13S17931   5.859   6.489   7.606  0.1194 -0.6591  0.8104
  160SAPE  C21417932   5.940   6.402   7.787  0.0457  0.5643 -0.2122
  160SAPE  H14R17933   6.029   6.347   7.820 -2.3435 -3.6583 -0.1594
  160SAPE  C21517934   5.834   6.379   7.871  0.0938  0.4457  0.5599
  160SAPE  H15R17935   5.844   6.308   7.954 -1.0031  1.4989  1.6543
  160SAPE  C21617936   5.694   6.436   7.856 -0.4173  0.0736  0.6997
  160SAPE  H16R17937   5.618   6.356   7.842  0.2716 -0.1906 -2.0957
  160SAPE  H16S17938   5.685   6.485   7.757  0.7246 -1.2177 -0.0723
  160SAPE  C21717939   5.664   6.518   7.984 -0.6049  0.1601 -0.0145
  160SAPE  H17R17940   5.573   6.581   7.977 -1.4126 -1.1111 -1.8285
  160SAPE  H17S17941   5.751   6.588   7.989  0.5760 -1.1462 -1.2817
  160SAPE  C21817942   5.652   6.452   8.119 -0.0006 -0.6581  0.4428
  160SAPE  H18R17943   5.739   6.385   8.138  0.8450  0.2460 -0.1481
  160SAPE  H18S17944   5.577   6.371   8.133  1.8639 -2.1379  2.4609
  160SAPE  C21917945   5.653   6.554   8.234  0.0497 -0.0310 -0.3214
  160SAPE  H19R17946   5.594   6.638   8.192  1.6232 -0.3511 -3.4598
  160SAPE  H19S17947   5.762   6.572   8.250  0.2300 -0.0724 -1.4109
  160SAPE  C22017948   5.593   6.496   8.366 -0.6460 -0.0048 -0.0170
  160SAPE  H20R17949   5.541   6.570   8.430  0.5534 -0.3717  1.4292
  160SAPE  H20S17950   5.667   6.450   8.435  1.0088  0.2357 -1.5535
  160SAPE  H20T17951   5.508   6.425   8.358 -1.9656  1.1643  2.5311
  160SAPE   C3317952   5.542   6.503   7.204 -0.4017 -1.0879  0.1365
  160SAPE   H3X17953   5.475   6.415   7.192  1.3321 -2.3940 -0.4853
  160SAPE   H3Y17954   5.493   6.589   7.154  0.5608  0.4749  1.7609
  160SAPE   C3417955   5.552   6.531   7.355  0.1839  0.1628 -0.1197
  160SAPE   H4X17956   5.602   6.628   7.375 -0.4848  0.4928 -0.0344
  160SAPE   H4Y17957   5.618   6.445   7.379 -1.3824 -0.9887  0.2355
  160SAPE   C3517958   5.425   6.513   7.440  0.0978 -0.2476 -0.0333
  160SAPE   H5X17959   5.384   6.412   7.419 -1.8737  0.0014  2.2247
  160SAPE   H5Y17960   5.356   6.594   7.409  1.1692  0.6992 -0.0403
  160SAPE   C3617961   5.456   6.505   7.597 -0.0746 -0.4009  0.0640
  160SAPE   H6X17962   5.492   6.601   7.639 -0.4885  0.6567 -1.8439
  160SAPE   H6Y17963   5.528   6.423   7.615  1.8432  1.4246  1.1925
  160SAPE   C3717964   5.323   6.473   7.660  0.0365 -0.4451 -0.4923
  160SAPE   H7X17965   5.288   6.383   7.606  1.0598 -1.6457  0.7716
  160SAPE   H7Y17966   5.244   6.551   7.654  0.3471 -0.0749  0.0464
  160SAPE   C3817967   5.333   6.437   7.810 -0.1624  0.4532  0.4590
  160SAPE   H8X17968   5.386   6.518   7.865 -0.4290 -0.4412  2.1098
  160SAPE   H8Y17969   5.396   6.346   7.816 -0.1216  0.3577 -1.0767
  160SAPE   C3917970   5.194   6.428   7.883 -1.0533 -0.6237 -0.3410
  160SAPE   H9X17971   5.125   6.376   7.812  0.7152 -0.5697 -2.1813
  160SAPE   H9Y17972   5.151   6.529   7.901  1.5715  0.1547  2.1219
  160SAPE  C31017973   5.199   6.357   8.019  0.5436 -0.2008 -0.1059
  160SAPE  H10X17974   5.248   6.422   8.095  0.5632 -0.8590  0.4548
  160SAPE  H10Y17975   5.253   6.261   8.016  3.8184  1.5061 -0.2138
  160SAPE  C31117976   5.056   6.335   8.081  0.0708  0.0962  0.3028
  160SAPE  H11X17977   5.001   6.246   8.042 -1.0552  1.5840 -1.6653
  160SAPE  H11Y17978   4.997   6.419   8.040  0.8896  0.5523  0.0461
  160SAPE  C31217979   5.052   6.355   8.237 -0.2536 -0.1683 -0.4397
  160SAPE  H12X17980   4.950   6.361   8.280  0.9273  0.2083  2.5424
  160SAPE  H12Y17981   5.108   6.448   8.259 -0.0936 -0.3690  0.0080
  160SAPE  C31317982   5.116   6.237   8.311 -0.2364  0.2866  1.1489
  160SAPE  H13X17983   5.224   6.236   8.286  0.0250 -3.2530  1.8629
  160SAPE  H13Y17984   5.071   6.145   8.268  0.2186  1.1011 -1.2571
  160SAPE  C31417985   5.096   6.241   8.462  0.4693  0.0293  0.2590
  160SAPE  H14X17986   4.992   6.234   8.499  1.2377 -1.6217  2.3139
  160SAPE  H14Y17987   5.133   6.342   8.491 -0.2835  0.8594 -1.5114
  160SAPE  C31517988   5.186   6.132   8.530  0.5135  0.9671  1.0662
  160SAPE  H15X17989   5.286   6.156   8.488 -0.5571 -0.4116 -2.6618
  160SAPE  H15Y17990   5.153   6.029   8.503  2.7013  0.0645  1.5923
  160SAPE  C31617991   5.194   6.142   8.691 -0.2877  0.4219  0.5730
  160SAPE  H16X17992   5.088   6.139   8.724 -0.4178  1.2230  0.2431
  160SAPE  H16Y17993   5.230   6.242   8.722  0.6464  0.0288  0.7927
  160SAPE  C31717994   5.278   6.025   8.746  0.5054 -0.4226 -0.4465
  160SAPE  H17X17995   5.387   6.024   8.726  0.6237  1.7366 -0.1748
  160SAPE  H17Y17996   5.228   5.936   8.701  0.6581 -0.4832 -0.4963
  160SAPE  C31817997   5.266   6.021   8.903 -0.4344  0.0168 -0.1556
  160SAPE  H18X17998   5.345   5.953   8.941  0.4121  0.5502 -0.9060
  160SAPE  H18Y17999   5.169   5.976   8.933  1.0370 -1.6103  2.5700
  160SAPE  H18Z18000   5.277   6.121   8.950  2.7501 -0.0709 -0.4882
  161SAPE     N18001   0.408   3.042   5.625  0.4151 -0.3805 -0.3734
  161SAPE   HN118002   0.412   2.968   5.553  2.1349 -0.1114 -0.6015
  161SAPE   HN218003   0.422   2.987   5.712  1.5710  0.3172 -0.0978
  161SAPE   HN318004   0.314   3.085   5.640  0.4339 -0.6202  0.5008
  161SAPE   C1218005   0.511   3.151   5.602  0.1988  0.3203  0.3824
  161SAPE  H12A18006   0.479   3.204   5.509 -0.8872 -0.4062  0.3290
  161SAPE  H12B18007   0.609   3.099   5.591  1.0816  2.0201 -0.2079
  161SAPE   C1118008   0.520   3.241   5.727  0.9835  0.1291  0.1193
  161SAPE  H11A18009   0.420   3.288   5.736  2.0010  2.4355  0.0410
  161SAPE  H11B18010   0.588   3.329   5.716 -0.5280  1.2172 -0.8603
  161SAPE     P18011   0.690   3.143   5.904 -0.1887  0.0892  0.3998
  161SAPE   O1318012   0.760   3.056   5.811 -0.5828  0.3152  0.4257
  161SAPE   O1418013   0.744   3.280   5.919 -0.2503  0.9779  0.6998
  161SAPE   O1218014   0.542   3.163   5.842  0.0985  0.0236 -0.4397
  161SAPE   O1118015   0.668   3.086   6.044 -0.3017  0.8530 -0.1655
  161SAPE    C118016   0.582   3.152   6.142 -0.2691  0.5838 -0.5037
  161SAPE    HA18017   0.505   3.212   6.089 -1.8688  0.2401  1.3300
  161SAPE    HB18018   0.520   3.085   6.205 -0.1622  1.1185  0.1814
  161SAPE    C218019   0.666   3.251   6.233 -0.3096 -1.0786  0.9395
  161SAPE    HS18020   0.729   3.317   6.170  1.2609 -1.8808  1.6200
  161SAPE   O2118021   0.751   3.176   6.330  0.3304  0.3562  0.2940
  161SAPE   C2118022   0.835   3.257   6.394 -0.0203 -0.1164  0.5748
  161SAPE   O2218023   0.860   3.376   6.360  0.3196  0.0916  0.0442
  161SAPE   C2218024   0.908   3.189   6.510  0.5106  0.0066  0.4972
  161SAPE   H2R18025   0.831   3.138   6.572 -2.9435  1.7423 -1.9753
  161SAPE   H2S18026   0.964   3.100   6.475  3.3039  1.7664  0.2154
  161SAPE    C318027   0.561   3.348   6.305 -0.4260  0.2750  0.1021
  161SAPE    HX18028   0.509   3.409   6.228  0.7774 -0.3229 -1.2313
  161SAPE    HY18029   0.618   3.420   6.369 -0.4608 -0.1616  0.6346
  161SAPE   O3118030   0.469   3.278   6.380  0.0873  0.3757 -0.1083
  161SAPE   C3118031   0.501   3.264   6.505 -0.1416  0.0773  0.0191
  161SAPE   O3218032   0.577   3.333   6.571  0.0940 -0.6405  0.1135
  161SAPE   C3218033   0.425   3.141   6.549  0.9692 -0.2098 -0.0593
  161SAPE   H2X18034   0.412   3.065   6.470  0.4565 -1.1941  0.9476
  161SAPE   H2Y18035   0.324   3.184   6.573  1.2145  1.0215 -1.1437
  161SAPE   C2318036   0.982   3.285   6.603  0.3157  0.6143 -0.2699
  161SAPE   H3R18037   0.914   3.370   6.625 -0.6491 -0.8553  3.1145
  161SAPE   H3S18038   1.069   3.321   6.543  1.4764 -0.9815  0.3955
  161SAPE   C2418039   1.017   3.210   6.728 -0.1813  0.0671  0.2193
  161SAPE   H4R18040   1.082   3.125   6.697 -0.1946  0.0832  0.1468
  161SAPE   H4S18041   0.925   3.163   6.768  0.1706  0.3489  1.3937
  161SAPE   C2518042   1.074   3.297   6.833 -0.2330 -0.4397 -0.1204
  161SAPE   H5R18043   1.183   3.311   6.822 -0.2518  0.5905  0.7876
  161SAPE   C2618044   1.004   3.354   6.930  0.9068  0.0133  0.1928
  161SAPE   H6R18045   1.055   3.430   6.991  1.2242 -0.0412  0.0011
  161SAPE   C2718046   0.854   3.348   6.955 -0.2021  0.7280  0.6548
  161SAPE   H7R18047   0.836   3.252   7.009 -3.5749  0.5755 -0.5409
  161SAPE   H7S18048   0.802   3.334   6.858 -0.4927 -0.3318  0.9445
  161SAPE   C2818049   0.794   3.465   7.033  0.4361  0.3415  0.2420
  161SAPE   H8R18050   0.729   3.530   6.973  0.0041  0.4727  0.8411
  161SAPE   C2918051   0.825   3.503   7.159 -0.1873 -0.3875  0.8878
  161SAPE   H9R18052   0.779   3.593   7.202 -1.1816 -0.7600  0.6201
  161SAPE  C21018053   0.919   3.423   7.253 -0.5597 -0.2038 -0.0889
  161SAPE  H10R18054   1.005   3.488   7.279  1.5221 -2.0069 -2.0281
  161SAPE  H10S18055   0.965   3.336   7.202  2.3934  1.3153 -0.1929
  161SAPE  C21118056   0.839   3.370   7.370 -0.0824 -0.0933  0.0436
  161SAPE  H11R18057   0.772   3.286   7.347  0.3701  0.1328 -2.3745
  161SAPE  C21218058   0.825   3.417   7.494 -0.1804  0.3653  0.2990
  161SAPE  H12R18059   0.752   3.369   7.561 -1.0722 -0.3192 -1.1126
  161SAPE  C21318060   0.891   3.539   7.556 -0.0296  0.2804  0.6455
  161SAPE  H13R18061   0.810   3.592   7.610 -0.4899  0.7799 -0.5011
  161SAPE  H13S18062   0.915   3.618   7.481 -2.2164  1.3329  0.9740
  161SAPE  C21418063   1.011   3.494   7.645  0.0110 -1.0983  0.1238
  161SAPE  H14R18064   1.095   3.458   7.584  1.4753  1.1444  0.7139
  161SAPE  C21518065   1.023   3.496   7.776 -0.1199 -0.8293 -0.3383
  161SAPE  H15R18066   1.112   3.457   7.828 -0.2566  1.8818  2.1763
  161SAPE  C21618067   0.904   3.538   7.868 -0.6893 -0.9983 -0.4903
  161SAPE  H16R18068   0.866   3.438   7.900  2.2795 -2.0287  0.1773
  161SAPE  H16S18069   0.825   3.602   7.823 -0.5874  2.1632  3.2598
  161SAPE  C21718070   0.956   3.625   7.989  0.3253  0.1251 -0.2171
  161SAPE  H17R18071   0.996   3.720   7.947  3.1365 -0.6329  0.5487
  161SAPE  H17S18072   1.043   3.571   8.032 -0.4719 -0.9131  0.1630
  161SAPE  C21818073   0.844   3.652   8.097 -0.0898 -0.6396  0.0758
  161SAPE  H18R18074   0.810   3.553   8.134 -2.3917 -0.3770 -1.1610
  161SAPE  H18S18075   0.763   3.701   8.039 -0.5495  0.0803  1.2663
  161SAPE  C21918076   0.879   3.750   8.214 -0.0677 -0.3218  0.7862
  161SAPE  H19R18077   0.893   3.852   8.172  4.3566 -0.8039  0.5078
  161SAPE  H19S18078   0.981   3.720   8.249  0.2004 -0.4957 -0.1130
  161SAPE  C22018079   0.772   3.762   8.320 -0.4417  0.3098  0.6849
  161SAPE  H20R18080   0.677   3.802   8.278  0.4818  1.5599 -0.2963
  161SAPE  H20S18081   0.809   3.824   8.405  2.1411 -0.2198  0.0020
  161SAPE  H20T18082   0.754   3.661   8.362  0.7001  0.1095  0.7243
  161SAPE   C3318083   0.473   3.069   6.684 -0.2415  0.2585  0.7280
  161SAPE   H3X18084   0.581   3.065   6.655 -1.2702 -0.5590 -3.7901
  161SAPE   H3Y18085   0.423   2.970   6.675  0.5402  0.0225 -2.4766
  161SAPE   C3418086   0.452   3.138   6.811 -0.0062  0.2113  0.5358
  161SAPE   H4X18087   0.343   3.126   6.827 -0.1173  2.9934  2.9013
  161SAPE   H4Y18088   0.473   3.248   6.808  0.4431  0.1104 -0.1626
  161SAPE   C3518089   0.531   3.066   6.924  0.6198  0.0302 -0.0529
  161SAPE   H5X18090   0.639   3.081   6.903  0.8652  1.5831  1.9497
  161SAPE   H5Y18091   0.503   2.959   6.924  1.0833 -0.0882 -0.0848
  161SAPE   C3618092   0.507   3.138   7.059 -0.1992  0.5091  0.0235
  161SAPE   H6X18093   0.410   3.193   7.057 -0.0842  0.6989 -0.2034
  161SAPE   H6Y18094   0.588   3.211   7.079 -0.4905  1.4740 -2.1383
  161SAPE   C3718095   0.493   3.045   7.179 -0.0624  0.4144 -0.8673
  161SAPE   H7X18096   0.573   2.967   7.182 -0.4738 -0.0109 -0.8262
  161SAPE   H7Y18097   0.402   2.982   7.169  1.3742 -2.0255  0.4109
  161SAPE   C3818098   0.484   3.122   7.316 -0.2647  0.7887  0.6945
  161SAPE   H8X18099   0.385   3.169   7.334  0.3399  1.9899  0.9991
  161SAPE   H8Y18100   0.569   3.193   7.326  1.4986 -0.8746 -1.4162
  161SAPE   C3918101   0.497   3.027   7.432 -0.7494  0.3289  0.5167
  161SAPE   H9X18102   0.571   2.946   7.413 -1.1250 -0.4853  2.2768
  161SAPE   H9Y18103   0.397   2.978   7.437  0.4731 -2.6028 -0.9408
  161SAPE  C31018104   0.528   3.102   7.565  0.3983  0.1980 -0.5014
  161SAPE  H10X18105   0.463   3.188   7.593  0.8206  0.7217 -1.0985
  161SAPE  H10Y18106   0.632   3.138   7.550 -0.1177  2.7295  1.3577
  161SAPE  C31118107   0.522   3.009   7.680 -0.2508 -0.0825 -0.2579
  161SAPE  H11X18108   0.590   2.921   7.678 -0.9583 -0.6995  1.1482
  161SAPE  H11Y18109   0.420   2.968   7.666  0.3806 -1.0951 -2.3970
  161SAPE  C31218110   0.545   3.079   7.812  0.1377  0.0738  0.2101
  161SAPE  H12X18111   0.463   3.154   7.812 -0.8207 -0.8990 -1.9838
  161SAPE  H12Y18112   0.643   3.126   7.788  0.2427 -0.2352  0.0295
  161SAPE  C31318113   0.565   2.993   7.931  0.1479  0.2686 -0.1137
  161SAPE  H13X18114   0.631   2.905   7.917  2.0163  1.5291  0.3337
  161SAPE  H13Y18115   0.466   2.957   7.968  0.4092 -0.9519 -0.5624
  161SAPE  C31418116   0.621   3.069   8.054 -0.4780 -0.6312 -0.6675
  161SAPE  H14X18117   0.599   3.016   8.149  1.7366  1.2391  0.9795
  161SAPE  H14Y18118   0.577   3.170   8.041 -2.2623 -1.5045 -1.8182
  161SAPE  C31518119   0.772   3.092   8.053 -0.7558  0.5898  0.0293
  161SAPE  H15X18120   0.803   3.169   7.979  1.6193 -2.5324 -2.5615
  161SAPE  H15Y18121   0.828   3.000   8.025  0.1838  1.3617 -0.7118
  161SAPE  C31618122   0.836   3.121   8.188  0.6324  0.1826 -0.2534
  161SAPE  H16X18123   0.940   3.138   8.151 -0.0742  2.7211 -1.3623
  161SAPE  H16Y18124   0.826   3.037   8.259 -0.8753  0.7650  0.2718
  161SAPE  C31718125   0.791   3.257   8.252 -0.6271 -0.0126  0.2577
  161SAPE  H17X18126   0.708   3.253   8.325 -2.1260  2.6328 -1.1486
  161SAPE  H17Y18127   0.739   3.318   8.175  1.3446  0.2260 -0.9740
  161SAPE  C31818128   0.907   3.332   8.317  0.4467 -0.3091 -0.1319
  161SAPE  H18X18129   0.961   3.253   8.374  1.3031  0.9513  0.8751
  161SAPE  H18Y18130   0.870   3.412   8.385 -0.9466  0.9927 -2.3140
  161SAPE  H18Z18131   0.973   3.362   8.233  0.5018 -0.9314 -0.3142
  162SAPE     N18132   6.556   0.632   5.866  0.5103 -0.1238 -0.0165
  162SAPE   HN118133   6.546   0.631   5.762  2.1991  0.4886 -0.2013
  162SAPE   HN218134   6.624   0.707   5.888  0.8894 -0.1453 -1.0522
  162SAPE   HN318135   6.602   0.544   5.899 -0.1737 -0.9747 -1.2292
  162SAPE   C1218136   6.420   0.634   5.946  0.4116 -0.7166  0.9040
  162SAPE  H12A18137   6.350   0.559   5.905 -0.6806 -0.6148  2.4902
  162SAPE  H12B18138   6.384   0.738   5.928  0.7034 -0.3691  2.2189
  162SAPE   C1118139   6.454   0.614   6.087 -0.8874 -0.5793 -0.9357
  162SAPE  H11A18140   6.492   0.512   6.108  1.2717  0.4115  0.2160
  162SAPE  H11B18141   6.360   0.620   6.147 -0.6164  1.3903 -0.6426
  162SAPE     P18142   6.542   0.851   6.186 -0.2827 -0.2451 -0.0757
  162SAPE   O1318143   6.663   0.885   6.263  0.1939 -0.2877  0.0226
  162SAPE   O1418144   6.514   0.937   6.066  0.1613  0.2417  0.0188
  162SAPE   O1218145   6.560   0.704   6.131 -0.5369  0.0794 -0.1881
  162SAPE   O1118146   6.415   0.840   6.281  0.4436  0.2831  0.5090
  162SAPE    C118147   6.374   0.952   6.363  0.4998  0.1330 -0.3658
  162SAPE    HA18148   6.450   1.033   6.358 -0.5334  1.0742 -1.2276
  162SAPE    HB18149   6.289   0.994   6.307  0.1787 -0.4375 -0.3166
  162SAPE    C218150   6.360   0.908   6.514 -0.6292  0.3992  0.8721
  162SAPE    HS18151   6.324   0.997   6.571  0.6536  0.2860  1.8966
  162SAPE   O2118152   6.480   0.855   6.577  0.2586 -1.1034  0.2831
  162SAPE   C2118153   6.572   0.940   6.618  0.1858 -0.7177  0.9178
  162SAPE   O2218154   6.553   1.062   6.620  0.3457  0.2691  0.0788
  162SAPE   C2218155   6.706   0.876   6.649 -0.0329 -0.5802 -0.0134
  162SAPE   H2R18156   6.687   0.796   6.723 -2.4985 -0.0427  0.0420
  162SAPE   H2S18157   6.744   0.835   6.553  0.5839 -0.1126  0.0281
  162SAPE    C318158   6.244   0.814   6.525  0.0030 -0.2200  0.3035
  162SAPE    HX18159   6.253   0.721   6.465 -1.4104  1.0655 -2.0153
  162SAPE    HY18160   6.158   0.859   6.471  0.0038 -1.8294 -1.1275
  162SAPE   O3118161   6.221   0.784   6.666  0.4530  0.1911 -0.2668
  162SAPE   C3118162   6.090   0.734   6.674  0.4799 -0.2033 -0.4058
  162SAPE   O3218163   6.027   0.694   6.578 -0.0347 -0.0906 -0.7013
  162SAPE   C3218164   6.056   0.725   6.824 -0.4438  0.4556  0.0219
  162SAPE   H2X18165   6.018   0.828   6.839 -0.5502  0.4103  0.0689
  162SAPE   H2Y18166   6.145   0.717   6.890 -1.2160  0.5175  1.0926
  162SAPE   C2318167   6.812   0.976   6.694 -0.6950  0.1015 -0.5194
  162SAPE   H3R18168   6.833   1.060   6.625 -2.1007  0.3349 -0.6845
  162SAPE   H3S18169   6.914   0.931   6.703 -0.9874 -0.1618  2.5679
  162SAPE   C2418170   6.774   1.045   6.825  0.4671 -0.1367  0.5103
  162SAPE   H4R18171   6.719   0.978   6.894 -0.1018 -1.6609 -1.3336
  162SAPE   H4S18172   6.697   1.121   6.799  0.5570 -0.9456 -2.4825
  162SAPE   C2518173   6.897   1.106   6.895  0.9804  0.6353  0.7814
  162SAPE   H5R18174   6.949   1.186   6.839 -0.2884 -0.7440 -2.6346
  162SAPE   C2618175   6.947   1.072   7.012  0.4528 -0.5530  0.3897
  162SAPE   H6R18176   7.046   1.116   7.031  0.9885  0.1890 -3.3315
  162SAPE   C2718177   6.884   0.967   7.108 -0.5129 -0.4198  0.3392
  162SAPE   H7R18178   6.873   0.866   7.063  0.9797 -0.4310 -0.0548
  162SAPE   H7S18179   6.778   0.988   7.131 -0.1341  0.4057  1.4309
  162SAPE   C2818180   6.970   0.958   7.238  0.1864 -0.2960  0.0737
  162SAPE   H8R18181   7.076   0.932   7.223  0.9389  2.7811 -0.8019
  162SAPE   C2918182   6.937   0.963   7.365  0.0365  0.4855  0.6042
  162SAPE   H9R18183   7.018   0.950   7.438 -0.8849  0.9289  1.7376
  162SAPE  C21018184   6.805   0.995   7.411 -0.7853  0.1050 -0.5344
  162SAPE  H10R18185   6.736   1.042   7.337 -1.6102  0.6687  0.5593
  162SAPE  H10S18186   6.800   1.074   7.489 -1.4163 -0.6716  0.2371
  162SAPE  C21118187   6.726   0.870   7.457  0.9922  0.2872 -0.6069
  162SAPE  H11R18188   6.651   0.826   7.390 -1.0445 -1.6910  2.6598
  162SAPE  C21218189   6.712   0.824   7.585  0.9258  0.0328 -0.2526
  162SAPE  H12R18190   6.642   0.744   7.611 -0.8890  2.3220  2.5538
  162SAPE  C21318191   6.792   0.858   7.710 -0.0065  0.3221  0.2485
  162SAPE  H13R18192   6.833   0.961   7.708  2.6528 -0.5550  2.4681
  162SAPE  H13S18193   6.873   0.782   7.703 -0.8602 -0.4915 -1.3872
  162SAPE  C21418194   6.709   0.847   7.837  0.0605 -0.0722  0.9875
  162SAPE  H14R18195   6.618   0.909   7.840  1.8468  2.8204 -0.0326
  162SAPE  C21518196   6.757   0.775   7.945 -0.0960  0.2000 -0.3389
  162SAPE  H15R18197   6.677   0.764   8.019 -0.9820  2.1279 -0.9336
  162SAPE  C21618198   6.892   0.712   7.965  0.3448  0.3100  0.2141
  162SAPE  H16R18199   6.962   0.792   7.934 -0.3254  1.1125  0.7142
  162SAPE  H16S18200   6.912   0.619   7.907  1.1803 -0.0879  1.1019
  162SAPE  C21718201   6.918   0.667   8.110  0.4275 -0.0023 -0.1179
  162SAPE  H17R18202   7.018   0.619   8.120  1.3716  1.6732 -1.0679
  162SAPE  H17S18203   6.836   0.600   8.145 -1.1981  2.2649  0.6131
  162SAPE  C21818204   6.921   0.791   8.199  0.5814 -0.1727  0.5522
  162SAPE  H18R18205   6.814   0.823   8.201  0.5333 -0.3323  0.6883
  162SAPE  H18S18206   6.974   0.868   8.140  0.7448 -1.6442 -1.3293
  162SAPE  C21918207   6.974   0.769   8.339  0.4378 -0.2486  1.2107
  162SAPE  H19R18208   6.942   0.667   8.369  0.5513 -0.4380  0.6991
  162SAPE  H19S18209   6.942   0.856   8.401 -1.5578  0.0613 -0.1578
  162SAPE  C22018210   7.127   0.760   8.337  0.4591  0.1692  0.7773
  162SAPE  H20R18211   7.156   0.739   8.443 -0.2140 -0.5132  0.8397
  162SAPE  H20S18212   7.162   0.860   8.306 -1.3590  0.7997  0.6091
  162SAPE  H20T18213   7.163   0.684   8.265 -0.9730  1.5412 -1.4874
  162SAPE   C3318214   5.956   0.614   6.864 -0.3838 -0.5494 -0.2660
  162SAPE   H3X18215   5.979   0.516   6.817 -0.6535 -0.4645 -0.5740
  162SAPE   H3Y18216   5.857   0.654   6.834 -0.5940  0.5165  1.6653
  162SAPE   C3418217   5.952   0.591   7.018  0.1491 -0.1341  0.3163
  162SAPE   H4X18218   6.050   0.553   7.055  0.1054 -0.1602  0.4053
  162SAPE   H4Y18219   5.880   0.511   7.043 -0.8084  1.1371  1.8354
  162SAPE   C3518220   5.917   0.711   7.111 -0.1425  0.1625 -0.3328
  162SAPE   H5X18221   5.839   0.777   7.068 -0.4347  0.9133  1.2752
  162SAPE   H5Y18222   6.010   0.772   7.109 -0.5991  0.8885  0.3045
  162SAPE   C3618223   5.895   0.667   7.254 -0.0921  0.6153  0.4027
  162SAPE   H6X18224   5.987   0.615   7.288 -0.8747 -0.5750  0.7668
  162SAPE   H6Y18225   5.820   0.586   7.261  0.5892  0.0249  1.0105
  162SAPE   C3718226   5.876   0.776   7.366  0.1222  0.2610  0.5649
  162SAPE   H7X18227   5.789   0.841   7.342 -0.8680 -1.8357 -2.0188
  162SAPE   H7Y18228   5.974   0.828   7.363  1.0783 -1.5311 -0.4413
  162SAPE   C3818229   5.857   0.701   7.498 -0.1343 -0.0867  0.8079
  162SAPE   H8X18230   5.942   0.633   7.521  1.0029  0.5419 -1.2627
  162SAPE   H8Y18231   5.755   0.655   7.502 -0.3229  0.4074  2.2854
  162SAPE   C3918232   5.861   0.800   7.612 -0.3415 -0.7590  0.1832
  162SAPE   H9X18233   5.779   0.872   7.590 -2.6245 -2.8053  1.4529
  162SAPE   H9Y18234   5.962   0.845   7.620 -0.4840 -0.6504  1.4448
  162SAPE  C31018235   5.830   0.738   7.750  0.1121 -0.1885  0.4761
  162SAPE  H10X18236   5.908   0.665   7.783 -0.9404 -1.5849 -0.0194
  162SAPE  H10Y18237   5.739   0.676   7.743  0.1823 -0.1603 -0.8899
  162SAPE  C31118238   5.819   0.846   7.860  0.6786 -0.5463  0.0688
  162SAPE  H11X18239   5.713   0.879   7.858  1.1187  0.8908 -1.6446
  162SAPE  H11Y18240   5.887   0.934   7.852 -2.1105  1.7250 -0.3931
  162SAPE  C31218241   5.835   0.790   8.004 -0.2453  0.4338  0.1943
  162SAPE  H12X18242   5.944   0.774   8.020 -0.0006  2.2167  0.5145
  162SAPE  H12Y18243   5.781   0.693   8.009 -1.4014  1.0174 -0.4951
  162SAPE  C31318244   5.791   0.885   8.116  0.0646  0.0267  0.4974
  162SAPE  H13X18245   5.699   0.946   8.099  1.5818  2.4515  0.4912
  162SAPE  H13Y18246   5.872   0.960   8.125 -1.1242  1.4628 -0.2497
  162SAPE  C31418247   5.770   0.815   8.248 -0.5446 -0.6154 -0.1386
  162SAPE  H14X18248   5.856   0.750   8.272 -0.6246  0.1775  2.6451
  162SAPE  H14Y18249   5.669   0.769   8.258 -1.5393  1.4799  0.1547
  162SAPE  C31518250   5.777   0.921   8.359  0.4270  0.9718 -0.6666
  162SAPE  H15X18251   5.686   0.985   8.350 -1.1426 -1.1740 -1.0816
  162SAPE  H15Y18252   5.868   0.984   8.357  0.3295  1.2202  1.2369
  162SAPE  C31618253   5.772   0.857   8.502 -0.1088  0.5609  1.0107
  162SAPE  H16X18254   5.858   0.787   8.515 -0.9867 -1.0006 -0.9558
  162SAPE  H16Y18255   5.686   0.788   8.493 -1.6842  2.5863 -0.3213
  162SAPE  C31718256   5.744   0.948   8.620  0.0712 -0.1107  0.2338
  162SAPE  H17X18257   5.712   1.048   8.583 -2.2919 -1.2370 -0.9384
  162SAPE  H17Y18258   5.843   0.960   8.669  0.4998  0.1585 -0.6822
  162SAPE  C31818259   5.640   0.892   8.717  0.4675 -0.1014 -0.6962
  162SAPE  H18X18260   5.673   0.797   8.763 -0.5907  0.6225  1.7000
  162SAPE  H18Y18261   5.548   0.890   8.654  0.6578 -1.2674 -0.9523
  162SAPE  H18Z18262   5.612   0.951   8.806  0.0937  0.2221 -1.0230
  163SAPE     N18263   5.350   6.515   6.317 -0.0869 -0.0096  0.0630
  163SAPE   HN118264   5.316   6.610   6.290  1.2222  0.2839 -0.6049
  163SAPE   HN218265   5.453   6.509   6.309 -0.1099  0.0531 -0.3164
  163SAPE   HN318266   5.312   6.457   6.239 -0.1802  0.5660 -0.3334
  163SAPE   C1218267   5.302   6.466   6.453  0.0675  0.6995  0.3104
  163SAPE  H12A18268   5.386   6.496   6.520  0.3152  2.7379 -0.8317
  163SAPE  H12B18269   5.283   6.357   6.457 -0.6657  0.8014 -0.1970
  163SAPE   C1118270   5.172   6.535   6.502  0.5135  0.7370 -0.0749
  163SAPE  H11A18271   5.171   6.639   6.465 -1.8035 -0.6260 -4.5443
  163SAPE  H11B18272   5.165   6.537   6.613  0.6873  0.6996 -0.0618
  163SAPE     P18273   4.979   6.493   6.329  0.0668 -0.2824  0.5940
  163SAPE   O1318274   5.073   6.538   6.223  0.4397  0.5510  0.2036
  163SAPE   O1418275   4.892   6.379   6.293  0.5205 -0.4362  0.2606
  163SAPE   O1218276   5.058   6.461   6.459  0.0466 -0.4308  0.0735
  163SAPE   O1118277   4.888   6.615   6.365 -0.1418 -0.3185  1.0029
  163SAPE    C118278   4.817   6.620   6.483 -0.2205  0.7818  0.4022
  163SAPE    HA18279   4.727   6.677   6.449 -0.2516 -1.1344 -3.3299
  163SAPE    HB18280   4.773   6.519   6.499 -0.9711  1.0985  0.4040
  163SAPE    C218281   4.888   6.681   6.603 -0.3649  0.4102 -0.6089
  163SAPE    HS18282   4.969   6.616   6.642  1.4875  2.3707 -0.9997
  163SAPE   O2118283   4.786   6.700   6.699  0.3945  0.2074  0.4953
  163SAPE   C2118284   4.748   6.593   6.768  0.0327 -0.9558 -0.5159
  163SAPE   O2218285   4.759   6.482   6.732  0.7105  0.1737  0.6218
  163SAPE   C2218286   4.694   6.644   6.905  0.7812 -0.1285  0.7979
  163SAPE   H2R18287   4.751   6.734   6.935  1.1459 -0.7602  2.0686
  163SAPE   H2S18288   4.588   6.676   6.892  0.5733  0.1975  2.8973
  163SAPE    C318289   4.955   6.815   6.559 -0.7614 -0.5152 -0.0256
  163SAPE    HX18290   4.871   6.878   6.522  1.1843  2.2709 -0.0683
  163SAPE    HY18291   5.011   6.803   6.464  0.6121  1.7318  0.4151
  163SAPE   O3118292   5.042   6.882   6.650 -0.0004 -0.3735  0.6023
  163SAPE   C3118293   4.994   6.998   6.704 -0.1539 -0.5566  0.4364
  163SAPE   O3218294   4.881   7.047   6.682 -0.0801 -0.1515  0.0327
  163SAPE   C3218295   5.094   7.059   6.801 -0.2206 -0.1912  0.1368
  163SAPE   H2X18296   5.123   7.163   6.773 -2.4992  0.4869  0.0536
  163SAPE   H2Y18297   5.186   6.996   6.799  0.6063  1.0058 -1.0806
  163SAPE   C2318298   4.703   6.534   7.018  0.4407 -0.3548  0.1321
  163SAPE   H3R18299   4.682   6.433   6.976  1.2757 -1.6133  2.5223
  163SAPE   H3S18300   4.625   6.560   7.093 -2.1115 -0.5429 -2.3036
  163SAPE   C2418301   4.840   6.539   7.090 -0.4106 -0.1757 -0.0992
  163SAPE   H4R18302   4.912   6.537   7.006 -1.1330 -1.3983 -0.7377
  163SAPE   H4S18303   4.851   6.442   7.143  0.9964  1.3188  2.5555
  163SAPE   C2518304   4.845   6.651   7.184  0.3313 -0.3199  0.2901
  163SAPE   H5R18305   4.891   6.746   7.153 -0.2230  0.2116  1.0447
  163SAPE   C2618306   4.816   6.640   7.311 -0.3671  0.1640  0.5809
  163SAPE   H6R18307   4.842   6.728   7.371  1.3785  1.1644 -1.5195
  163SAPE   C2718308   4.763   6.526   7.392 -0.3415 -0.3027  0.2106
  163SAPE   H7R18309   4.703   6.457   7.330 -1.6972  0.4194  0.6925
  163SAPE   H7S18310   4.687   6.571   7.459  2.1187  0.4869  2.7151
  163SAPE   C2818311   4.869   6.466   7.475 -0.5868  0.2457 -0.1186
  163SAPE   H8R18312   4.911   6.376   7.428 -1.0276 -1.0517  1.8347
  163SAPE   C2918313   4.924   6.494   7.597  0.3757  0.0746 -0.0546
  163SAPE   H9R18314   5.014   6.435   7.619  0.3049 -0.3193 -0.7721
  163SAPE  C21018315   4.883   6.611   7.687  0.1635 -0.4852 -0.2622
  163SAPE  H10R18316   4.857   6.699   7.624  2.2403 -0.5015 -1.2288
  163SAPE  H10S18317   4.970   6.629   7.753 -0.6175 -1.3729  1.0581
  163SAPE  C21118318   4.764   6.577   7.776  0.4964  0.5800 -0.7844
  163SAPE  H11R18319   4.695   6.497   7.744  1.4353 -1.2665  1.5136
  163SAPE  C21218320   4.741   6.626   7.896  0.4327  0.1913  0.3593
  163SAPE  H12R18321   4.654   6.584   7.950  0.1792 -1.4139 -1.2271
  163SAPE  C21318322   4.833   6.730   7.956 -0.1786 -0.8476  0.1985
  163SAPE  H13R18323   4.884   6.796   7.883 -0.2071 -0.6692  0.3396
  163SAPE  H13S18324   4.912   6.681   8.017  0.5812 -3.7161 -2.7925
  163SAPE  C21418325   4.744   6.804   8.055 -0.8876  0.3941  0.5237
  163SAPE  H14R18326   4.687   6.884   8.005 -2.1371 -1.2134 -0.7143
  163SAPE  C21518327   4.731   6.787   8.184 -0.3270  0.0749 -0.3512
  163SAPE  H15R18328   4.657   6.850   8.236  0.5706  0.6869  0.2028
  163SAPE  C21618329   4.799   6.686   8.278  0.2741 -0.1164 -0.1589
  163SAPE  H16R18330   4.883   6.738   8.330 -1.7400  0.3727  2.8484
  163SAPE  H16S18331   4.839   6.598   8.224 -2.8622 -1.8214  0.0731
  163SAPE  C21718332   4.702   6.634   8.377  0.0205 -0.3333  0.1571
  163SAPE  H17R18333   4.659   6.723   8.429  0.8041  0.5138 -0.5982
  163SAPE  H17S18334   4.761   6.567   8.444 -1.6977 -1.6386  0.4058
  163SAPE  C21818335   4.584   6.556   8.321  0.2056  0.6103  0.3291
  163SAPE  H18R18336   4.621   6.454   8.298 -0.1489  0.2523  1.3089
  163SAPE  H18S18337   4.551   6.598   8.224 -0.5094 -0.7765 -0.0390
  163SAPE  C21918338   4.456   6.541   8.409 -0.3071  0.1155 -0.7638
  163SAPE  H19R18339   4.422   6.645   8.424  0.3683  0.2453 -0.0365
  163SAPE  H19S18340   4.477   6.502   8.511 -3.2390  1.7366  0.5757
  163SAPE  C22018341   4.344   6.460   8.347  0.6429  1.2510  0.1283
  163SAPE  H20R18342   4.360   6.350   8.346 -2.3924  0.7252 -0.4055
  163SAPE  H20S18343   4.319   6.496   8.245 -3.8286 -1.2691  0.1091
  163SAPE  H20T18344   4.259   6.476   8.416 -0.1366 -1.8407  0.0021
  163SAPE   C3318345   5.025   7.071   6.942  0.3505  0.7888  1.0478
  163SAPE   H3X18346   4.990   6.975   6.985  0.3111 -0.0163 -0.7127
  163SAPE   H3Y18347   4.931   7.130   6.931 -0.4159 -0.8404 -2.2768
  163SAPE   C3418348   5.125   7.140   7.034  0.8889 -0.4029  0.1007
  163SAPE   H4X18349   5.187   7.221   6.991 -0.6842  0.5946 -0.3377
  163SAPE   H4Y18350   5.201   7.061   7.056  3.1816  1.0130 -2.2365
  163SAPE   C3518351   5.059   7.189   7.168  0.3356 -0.1059 -0.0709
  163SAPE   H5X18352   5.011   7.105   7.222  0.3972 -0.3579 -0.4102
  163SAPE   H5Y18353   4.980   7.265   7.147 -0.1328 -0.0834  1.5920
  163SAPE   C3618354   5.154   7.248   7.268  0.1404  0.2127 -0.1238
  163SAPE   H6X18355   5.182   7.347   7.225  2.6168 -0.8531 -1.1632
  163SAPE   H6Y18356   5.249   7.190   7.274 -1.0845 -1.7700  0.9362
  163SAPE   C3718357   5.084   7.259   7.401 -0.2361 -0.0076  0.4007
  163SAPE   H7X18358   5.077   7.158   7.446  0.1717  0.2233  1.0041
  163SAPE   H7Y18359   4.981   7.302   7.394 -0.1919 -0.0769 -0.8929
  163SAPE   C3818360   5.161   7.353   7.496 -0.4759  0.0126  1.0846
  163SAPE   H8X18361   5.153   7.458   7.460 -3.6682 -1.0123 -1.8587
  163SAPE   H8Y18362   5.268   7.324   7.492 -0.3114  0.6699 -1.8672
  163SAPE   C3918363   5.108   7.354   7.636  0.1130  0.4868 -0.1293
  163SAPE   H9X18364   5.085   7.248   7.660  1.2761  0.3446  0.4376
  163SAPE   H9Y18365   5.011   7.408   7.646 -0.5124 -0.5413 -0.5241
  163SAPE  C31018366   5.212   7.416   7.737 -0.0793  0.1373  1.6063
  163SAPE  H10X18367   5.236   7.520   7.706 -0.4588 -0.0155  0.7611
  163SAPE  H10Y18368   5.308   7.360   7.738 -1.7273 -2.9013  0.9265
  163SAPE  C31118369   5.156   7.434   7.878 -0.5076 -0.3590 -0.3990
  163SAPE  H11X18370   5.128   7.335   7.920 -1.9436  1.7403  4.2746
  163SAPE  H11Y18371   5.071   7.504   7.885  1.4800  2.0698  0.8926
  163SAPE  C31218372   5.276   7.497   7.967  0.0338  0.2637 -0.8300
  163SAPE  H12X18373   5.288   7.601   7.929  0.1866  0.1405 -1.1276
  163SAPE  H12Y18374   5.373   7.443   7.962  0.2483  0.5288  0.2869
  163SAPE  C31318375   5.252   7.506   8.119  0.0781 -0.1156 -0.3834
  163SAPE  H13X18376   5.223   7.405   8.157  1.4807 -0.6981 -0.7895
  163SAPE  H13Y18377   5.158   7.565   8.128 -0.0154 -0.4452  1.0161
  163SAPE  C31418378   5.368   7.565   8.191 -0.0415  0.4280  1.0212
  163SAPE  H14X18379   5.385   7.670   8.159 -1.1643  0.7543  1.4230
  163SAPE  H14Y18380   5.460   7.507   8.168 -0.1363  0.6961 -0.1059
  163SAPE  C31518381   5.357   7.570   8.341  0.5287 -0.3621 -0.7920
  163SAPE  H15X18382   5.450   7.615   8.381  1.1348 -3.8254  2.2874
  163SAPE  H15Y18383   5.351   7.468   8.384 -0.2158  0.5138  1.3208
  163SAPE  C31618384   5.234   7.643   8.388 -0.0012 -0.8055 -0.7541
  163SAPE  H16X18385   5.145   7.606   8.332 -0.3487 -2.0190  0.5369
  163SAPE  H16Y18386   5.265   7.749   8.382 -0.2694 -0.4901  2.0712
  163SAPE  C31718387   5.206   7.618   8.539  0.1578 -0.4841  0.0276
  163SAPE  H17X18388   5.307   7.621   8.586 -0.0135  1.2424  0.3558
  163SAPE  H17Y18389   5.175   7.514   8.564 -0.5010 -0.5354 -0.9452
  163SAPE  C31818390   5.108   7.714   8.605 -0.5268 -0.7916 -0.3095
  163SAPE  H18X18391   5.009   7.664   8.608 -0.5654 -0.6816  0.5233
  163SAPE  H18Y18392   5.083   7.799   8.538  1.3426 -0.0690 -0.1471
  163SAPE  H18Z18393   5.147   7.753   8.702  0.9893 -0.7323 -0.9162
  164SAPE     N18394   2.264   2.855   5.926 -0.0870  0.3304 -0.4481
  164SAPE   HN118395   2.203   2.819   5.849 -0.0509 -0.9762  0.1216
  164SAPE   HN218396   2.341   2.919   5.898 -0.1745 -0.0116 -1.5148
  164SAPE   HN318397   2.312   2.778   5.975  0.5990  0.9529 -0.1251
  164SAPE   C1218398   2.188   2.923   6.042 -0.2159  0.5045 -0.1347
  164SAPE  H12A18399   2.150   2.846   6.113  0.4079 -0.4697 -0.8216
  164SAPE  H12B18400   2.108   2.975   5.986  1.4745  0.6173 -2.6029
  164SAPE   C1118401   2.279   3.021   6.115 -0.4158 -0.0814 -0.4414
  164SAPE  H11A18402   2.362   2.960   6.157  1.6238  2.1708 -0.9798
  164SAPE  H11B18403   2.210   3.058   6.194  2.0011  1.9470  0.8666
  164SAPE     P18404   2.378   3.262   6.061 -0.1110 -0.1595 -0.0765
  164SAPE   O1318405   2.527   3.258   6.059 -0.2151  0.4569 -0.5761
  164SAPE   O1418406   2.310   3.360   5.979 -0.0104  0.4141  0.0742
  164SAPE   O1218407   2.325   3.119   6.019 -0.4665  0.4146 -0.0485
  164SAPE   O1118408   2.326   3.282   6.206  0.5588  0.2188  0.0344
  164SAPE    C118409   2.401   3.238   6.319 -0.0231  0.6138  0.1855
  164SAPE    HA18410   2.345   3.222   6.414  1.3571  0.8051  1.0674
  164SAPE    HB18411   2.445   3.138   6.301 -1.0603  0.1999 -0.1185
  164SAPE    C218412   2.510   3.335   6.371 -0.3822  0.7417  0.4254
  164SAPE    HS18413   2.567   3.361   6.279 -1.4004  0.5173 -0.2812
  164SAPE   O2118414   2.591   3.263   6.459  0.2796  0.2442 -0.1208
  164SAPE   C2118415   2.717   3.308   6.471 -0.3370 -0.6668 -1.0420
  164SAPE   O2218416   2.776   3.391   6.396  0.4609  0.4572  0.1407
  164SAPE   C2218417   2.782   3.237   6.598 -0.3605  0.2766  0.3350
  164SAPE   H2R18418   2.695   3.205   6.659 -0.9632 -0.1894 -0.7226
  164SAPE   H2S18419   2.840   3.152   6.556 -0.9574 -0.3306  0.7139
  164SAPE    C318420   2.451   3.465   6.442  0.0966  0.1857  0.1648
  164SAPE    HX18421   2.372   3.505   6.375  0.1764  0.7991  0.4292
  164SAPE    HY18422   2.525   3.547   6.448 -1.2313  1.4017  0.4559
  164SAPE   O3118423   2.392   3.429   6.562 -0.3830 -0.0086 -0.7942
  164SAPE   C3118424   2.399   3.503   6.674  0.4427 -0.0678  0.0893
  164SAPE   O3218425   2.449   3.610   6.672 -0.5371 -0.2292  0.1043
  164SAPE   C3218426   2.311   3.446   6.782 -0.5531  0.4270  0.5793
  164SAPE   H2X18427   2.261   3.358   6.737 -0.9962  1.4618 -1.0386
  164SAPE   H2Y18428   2.231   3.522   6.801 -1.0337  0.7206 -2.2094
  164SAPE   C2318429   2.874   3.328   6.683 -0.3056  0.1492  0.0926
  164SAPE   H3R18430   2.811   3.401   6.737  2.0879  1.9502  0.6380
  164SAPE   H3S18431   2.939   3.396   6.625 -0.3370 -2.3313 -3.1607
  164SAPE   C2418432   2.971   3.262   6.785  0.6265 -1.0139  0.4497
  164SAPE   H4R18433   2.903   3.199   6.846 -3.8553  2.2837 -0.6005
  164SAPE   H4S18434   3.014   3.337   6.855  2.1230 -1.8811  0.4864
  164SAPE   C2518435   3.091   3.201   6.715  0.1600 -0.1170  0.4051
  164SAPE   H5R18436   3.152   3.273   6.659  0.5424 -0.8327 -0.1062
  164SAPE   C2618437   3.110   3.063   6.698 -0.8925  0.4456 -0.1940
  164SAPE   H6R18438   3.209   3.042   6.654 -0.6681 -0.7163  0.8053
  164SAPE   C2718439   3.040   2.946   6.767 -0.0715 -0.2798  0.7280
  164SAPE   H7R18440   3.012   2.973   6.871  0.4527 -1.4408  1.1850
  164SAPE   H7S18441   3.121   2.871   6.761  2.0637  1.8329  1.4589
  164SAPE   C2818442   2.927   2.895   6.680  0.0762  0.3962  0.5268
  164SAPE   H8R18443   2.954   2.907   6.574  1.4772  1.3239  0.9619
  164SAPE   C2918444   2.809   2.842   6.711 -0.5739  0.2717 -0.1614
  164SAPE   H9R18445   2.747   2.805   6.628  0.2383  0.5687 -0.9249
  164SAPE  C21018446   2.760   2.822   6.853  0.0126  0.0385 -0.3298
  164SAPE  H10R18447   2.662   2.866   6.879  0.7491  0.5258  1.9024
  164SAPE  H10S18448   2.828   2.880   6.919 -0.9130  2.2268 -1.2212
  164SAPE  C21118449   2.761   2.683   6.903  0.6959  0.4309 -0.5676
  164SAPE  H11R18450   2.744   2.603   6.829 -3.9418 -0.0162  0.6389
  164SAPE  C21218451   2.789   2.650   7.029  0.4626 -0.0471  0.5052
  164SAPE  H12R18452   2.779   2.543   7.056 -1.4171 -0.3937 -1.2954
  164SAPE  C21318453   2.826   2.734   7.150  0.5424  0.0296  0.3227
  164SAPE  H13R18454   2.810   2.679   7.246 -1.5548 -1.0242 -0.5726
  164SAPE  H13S18455   2.751   2.816   7.155 -2.0215 -2.0923 -0.6488
  164SAPE  C21418456   2.968   2.793   7.150  0.9761  0.1969 -0.8698
  164SAPE  H14R18457   3.028   2.787   7.058 -0.4457  0.6424 -1.8614
  164SAPE  C21518458   3.031   2.844   7.260 -0.3957  0.7331 -0.5863
  164SAPE  H15R18459   3.139   2.862   7.262 -0.0422 -1.2136  0.7129
  164SAPE  C21618460   2.970   2.852   7.392 -0.0248 -0.4120 -0.0015
  164SAPE  H16R18461   2.861   2.835   7.382  0.0048 -1.1063  0.7297
  164SAPE  H16S18462   2.985   2.953   7.434  0.4719 -0.8914  1.0278
  164SAPE  C21718463   3.034   2.748   7.490  0.8980  0.0979 -1.1524
  164SAPE  H17R18464   3.135   2.788   7.509  1.0577 -0.9883  0.4867
  164SAPE  H17S18465   3.036   2.655   7.429  1.9097 -0.9354  0.4096
  164SAPE  C21818466   2.952   2.724   7.624 -0.7430  0.1433 -0.7781
  164SAPE  H18R18467   2.842   2.714   7.612 -0.6635 -0.8862 -0.6793
  164SAPE  H18S18468   2.963   2.815   7.687  0.2498 -0.1979 -0.4394
  164SAPE  C21918469   3.004   2.601   7.701 -0.8245  0.8364  0.1270
  164SAPE  H19R18470   3.111   2.616   7.724 -0.3248 -1.0112 -0.7793
  164SAPE  H19S18471   2.999   2.516   7.629  0.0147  1.1808 -0.3437
  164SAPE  C22018472   2.921   2.550   7.825  0.7499 -0.7731  0.2234
  164SAPE  H20R18473   2.929   2.623   7.909 -0.6157 -0.5840  0.2185
  164SAPE  H20S18474   2.950   2.447   7.856 -1.7520 -2.2417 -1.8614
  164SAPE  H20T18475   2.816   2.545   7.787  1.4335  0.0033 -1.9172
  164SAPE   C3318476   2.395   3.399   6.903 -0.3500 -0.2227 -0.0281
  164SAPE   H3X18477   2.323   3.376   6.984  0.5027  1.7813  1.3959
  164SAPE   H3Y18478   2.453   3.485   6.945 -2.2173  1.3224 -0.4661
  164SAPE   C3418479   2.489   3.288   6.854 -0.0578 -0.6291 -0.4629
  164SAPE   H4X18480   2.577   3.325   6.797 -0.0504 -0.5063 -0.3731
  164SAPE   H4Y18481   2.432   3.220   6.789 -3.4702 -0.2344  1.8552
  164SAPE   C3518482   2.549   3.208   6.968  0.5899  0.4137  0.3109
  164SAPE   H5X18483   2.583   3.107   6.935 -0.3586  0.5108 -1.0231
  164SAPE   H5Y18484   2.474   3.193   7.048 -1.4943  0.3910 -1.5624
  164SAPE   C3618485   2.673   3.274   7.034 -0.4568  0.7642 -0.8695
  164SAPE   H6X18486   2.649   3.370   7.084 -0.5976  1.0824 -1.5388
  164SAPE   H6Y18487   2.746   3.295   6.953 -0.1099  0.6589 -0.5854
  164SAPE   C3718488   2.746   3.185   7.139  0.2501 -0.0934 -0.0550
  164SAPE   H7X18489   2.847   3.225   7.162 -0.8035  1.5972  1.9871
  164SAPE   H7Y18490   2.741   3.091   7.079  3.5977 -1.1370  1.0814
  164SAPE   C3818491   2.665   3.157   7.273  0.3672 -0.7585 -0.2776
  164SAPE   H8X18492   2.704   3.061   7.312  3.1132  0.0319 -0.8755
  164SAPE   H8Y18493   2.559   3.146   7.241  0.1452 -0.9534  0.5173
  164SAPE   C3918494   2.675   3.270   7.383  0.5219  0.6228  0.1914
  164SAPE   H9X18495   2.638   3.366   7.342  0.3130  0.3796 -0.1896
  164SAPE   H9Y18496   2.784   3.271   7.406  1.0038 -1.0758 -1.7245
  164SAPE  C31018497   2.584   3.251   7.504  0.0879 -0.3076  0.4295
  164SAPE  H10X18498   2.611   3.159   7.560  2.8508  0.0202 -0.2196
  164SAPE  H10Y18499   2.485   3.257   7.454  1.1931  0.3639 -1.8189
  164SAPE  C31118500   2.571   3.361   7.606 -0.8262 -0.6377  0.0541
  164SAPE  H11X18501   2.486   3.359   7.678 -0.3898 -0.0034  0.6032
  164SAPE  H11Y18502   2.575   3.464   7.566  0.3435  0.3780  2.5630
  164SAPE  C31218503   2.689   3.366   7.701 -0.1961 -0.0334 -0.2560
  164SAPE  H12X18504   2.772   3.410   7.641  0.6059 -0.1295  0.7561
  164SAPE  H12Y18505   2.725   3.266   7.734 -1.8800 -0.7152 -0.4010
  164SAPE  C31318506   2.662   3.456   7.822  0.1542  0.0686  0.4677
  164SAPE  H13X18507   2.602   3.397   7.894 -0.9476  0.5543 -0.0217
  164SAPE  H13Y18508   2.601   3.548   7.804  0.1799 -0.1100 -0.5574
  164SAPE  C31418509   2.789   3.499   7.894  0.1579  0.3443  0.9147
  164SAPE  H14X18510   2.859   3.554   7.827  0.5226 -0.1103  0.9170
  164SAPE  H14Y18511   2.847   3.410   7.928 -1.8284 -1.2022  0.4186
  164SAPE  C31518512   2.762   3.583   8.019  0.4856  0.5066  0.2030
  164SAPE  H15X18513   2.727   3.687   8.006 -0.7281  0.3262  1.7495
  164SAPE  H15Y18514   2.861   3.581   8.071  0.8444  1.8070 -0.3786
  164SAPE  C31618515   2.662   3.521   8.124  0.2533 -0.1980  0.2683
  164SAPE  H16X18516   2.695   3.415   8.134 -1.3614 -0.9949 -2.1288
  164SAPE  H16Y18517   2.557   3.524   8.088  0.2490 -0.8262  0.2183
  164SAPE  C31718518   2.660   3.589   8.258 -0.1393 -0.2591 -0.1376
  164SAPE  H17X18519   2.635   3.696   8.242 -2.0974 -0.7374 -0.5712
  164SAPE  H17Y18520   2.760   3.583   8.306 -0.2751  1.0247  0.3659
  164SAPE  C31818521   2.553   3.530   8.357 -0.7601 -0.0871  0.5841
  164SAPE  H18X18522   2.568   3.574   8.458 -0.5901  0.8943  0.1409
  164SAPE  H18Y18523   2.560   3.420   8.370 -1.9338 -0.2047  0.3205
  164SAPE  H18Z18524   2.454   3.572   8.330  0.0162  0.6054 -1.3604
  165SAPE     N18525   2.269   5.033   6.187 -0.4512  0.2283 -0.1902
  165SAPE   HN118526   2.362   5.018   6.142 -1.4681  1.5495 -2.9148
  165SAPE   HN218527   2.193   5.006   6.122 -0.1656 -0.8464 -0.1013
  165SAPE   HN318528   2.273   5.136   6.198 -3.0500  0.3818 -0.1806
  165SAPE   C1218529   2.248   4.959   6.316  0.0351 -0.7358 -0.1776
  165SAPE  H12A18530   2.317   4.997   6.395 -0.5280 -0.3844  0.1510
  165SAPE  H12B18531   2.261   4.851   6.296 -0.4686 -0.6464 -1.0185
  165SAPE   C1118532   2.099   4.975   6.343  0.3112 -0.6060  0.1549
  165SAPE  H11A18533   2.078   5.084   6.353 -1.4371 -0.8473 -0.5455
  165SAPE  H11B18534   2.078   4.930   6.442  1.2022 -2.1627 -0.3393
  165SAPE     P18535   1.899   4.966   6.193 -0.2381 -0.0060  0.3630
  165SAPE   O1318536   1.944   5.065   6.090  0.1758 -0.1871 -0.3148
  165SAPE   O1418537   1.804   4.861   6.139  0.0433 -0.2987 -0.0375
  165SAPE   O1218538   2.021   4.902   6.253 -0.2341  0.7631 -0.2151
  165SAPE   O1118539   1.836   5.050   6.302  0.6139  0.2405  0.1363
  165SAPE    C118540   1.706   5.111   6.275 -0.4634 -0.4992  0.1097
  165SAPE    HA18541   1.656   5.085   6.179 -2.3094 -0.0050  0.8965
  165SAPE    HB18542   1.639   5.067   6.352  0.1814  1.6882  2.0150
  165SAPE    C218543   1.712   5.262   6.296 -0.0880 -0.5799 -0.3236
  165SAPE    HS18544   1.774   5.305   6.214  2.1835 -1.5151  0.8056
  165SAPE   O2118545   1.775   5.294   6.423  0.3933 -0.2329 -0.2891
  165SAPE   C2118546   1.820   5.421   6.428 -0.0734 -0.1102 -0.0102
  165SAPE   O2218547   1.822   5.495   6.333  0.3934 -0.4798 -0.4487
  165SAPE   C2218548   1.877   5.442   6.562  0.2133 -0.5261  0.2043
  165SAPE   H2R18549   1.956   5.365   6.575  2.1050  0.9108 -2.0263
  165SAPE   H2S18550   1.927   5.541   6.559 -0.4689 -0.1250  1.2652
  165SAPE    C318551   1.577   5.339   6.285  0.5797 -0.6507 -0.5095
  165SAPE    HX18552   1.533   5.296   6.192  1.2745 -1.3333 -0.5385
  165SAPE    HY18553   1.602   5.447   6.281 -1.2195 -0.1490  0.7681
  165SAPE   O3118554   1.487   5.308   6.399  0.2310  0.0763 -0.5502
  165SAPE   C3118555   1.473   5.402   6.491  0.6583  0.1832 -0.2455
  165SAPE   O3218556   1.523   5.511   6.490  0.1588  0.0499 -0.0169
  165SAPE   C3218557   1.382   5.346   6.596  0.1950  0.6092 -0.2842
  165SAPE   H2X18558   1.434   5.255   6.632 -0.1916  0.6536  0.4103
  165SAPE   H2Y18559   1.280   5.325   6.556  0.1682  2.5337 -1.3825
  165SAPE   C2318560   1.773   5.445   6.682 -0.6264 -0.3592  1.2876
  165SAPE   H3R18561   1.698   5.364   6.669  0.9551 -1.7349  0.3088
  165SAPE   H3S18562   1.716   5.540   6.681  0.3446  0.4672 -3.7066
  165SAPE   C2418563   1.831   5.422   6.826  0.2140  0.2447  0.9938
  165SAPE   H4R18564   1.936   5.385   6.823  0.6262  1.2378  2.1995
  165SAPE   H4S18565   1.761   5.349   6.873 -0.6536 -0.1274 -0.7945
  165SAPE   C2518566   1.827   5.551   6.909  0.3548 -0.8835 -0.3990
  165SAPE   H5R18567   1.816   5.645   6.854  4.9620 -0.1315 -0.3623
  165SAPE   C2618568   1.849   5.552   7.044 -0.2002  0.2772 -0.1629
  165SAPE   H6R18569   1.849   5.645   7.104 -0.9436  0.4116 -0.3631
  165SAPE   C2718570   1.885   5.434   7.130 -0.2686  0.2520 -0.6091
  165SAPE   H7R18571   1.849   5.334   7.095  0.0102  0.1435 -0.5875
  165SAPE   H7S18572   1.817   5.452   7.217  0.2733 -1.6417  0.2556
  165SAPE   C2818573   2.028   5.417   7.163  0.0214 -1.1783  0.4441
  165SAPE   H8R18574   2.083   5.357   7.088  0.7424  0.4157 -0.3387
  165SAPE   C2918575   2.091   5.477   7.267  0.2810 -0.2790  0.5985
  165SAPE   H9R18576   2.195   5.442   7.278 -0.1006 -1.6395  0.0806
  165SAPE  C21018577   2.036   5.567   7.375  0.2165 -0.0819  0.5964
  165SAPE  H10R18578   1.985   5.648   7.319  0.4532 -0.7984 -0.7077
  165SAPE  H10S18579   2.122   5.609   7.432  1.4779  0.2712 -1.4741
  165SAPE  C21118580   1.953   5.485   7.469  0.1166  0.6055  0.2470
  165SAPE  H11R18581   1.992   5.386   7.498 -1.7452 -0.9944 -2.3005
  165SAPE  C21218582   1.829   5.519   7.509  0.4610 -0.2470  0.1202
  165SAPE  H12R18583   1.778   5.452   7.579  3.8903 -0.5420  2.6211
  165SAPE  C21318584   1.754   5.644   7.483  0.3437 -0.0216 -0.6764
  165SAPE  H13R18585   1.729   5.647   7.375 -0.5632  0.7119 -0.4625
  165SAPE  H13S18586   1.814   5.732   7.517  1.4218 -0.7540 -0.6407
  165SAPE  C21418587   1.627   5.641   7.564 -0.3652  0.1502 -0.6763
  165SAPE  H14R18588   1.538   5.613   7.506 -0.7020 -0.2398  0.0180
  165SAPE  C21518589   1.608   5.713   7.673  0.3982  0.1857 -0.1054
  165SAPE  H15R18590   1.505   5.724   7.710 -0.1629 -2.1698 -0.8082
  165SAPE  C21618591   1.705   5.778   7.760 -0.7707  0.3200 -0.2020
  165SAPE  H16R18592   1.670   5.866   7.818  1.6308  0.6829  0.8250
  165SAPE  H16S18593   1.797   5.819   7.714  0.9372 -1.9166  1.0466
  165SAPE  C21718594   1.756   5.674   7.860 -0.0149  0.6545 -0.4608
  165SAPE  H17R18595   1.819   5.726   7.936 -0.3936 -0.5628  0.7380
  165SAPE  H17S18596   1.814   5.594   7.809 -0.2703  1.4871 -2.1203
  165SAPE  C21818597   1.656   5.604   7.954 -0.0807  0.2047 -0.7182
  165SAPE  H18R18598   1.583   5.549   7.890  2.9673 -0.5561 -3.8446
  165SAPE  H18S18599   1.604   5.684   8.010  1.8886  0.6232  0.5881
  165SAPE  C21918600   1.720   5.520   8.070  0.0240 -0.5372 -0.3610
  165SAPE  H19R18601   1.781   5.583   8.139 -1.5029  1.3304 -0.6097
  165SAPE  H19S18602   1.797   5.461   8.016  0.3917 -1.2651  0.9144
  165SAPE  C22018603   1.629   5.430   8.150 -1.0990  0.0805 -0.5641
  165SAPE  H20R18604   1.566   5.498   8.210  0.2749  2.8561 -2.0627
  165SAPE  H20S18605   1.690   5.358   8.209 -1.5337  0.3351  0.2025
  165SAPE  H20T18606   1.562   5.380   8.077  0.6658 -0.8370 -1.6166
  165SAPE   C3318607   1.371   5.435   6.722 -0.3206  0.5552 -0.1381
  165SAPE   H3X18608   1.275   5.490   6.708 -0.4901  0.0357 -1.1731
  165SAPE   H3Y18609   1.464   5.494   6.736  0.3490 -0.0774 -1.6437
  165SAPE   C3418610   1.360   5.354   6.860 -0.3084 -1.1671  1.0514
  165SAPE   H4X18611   1.447   5.285   6.871  0.5392  0.2722  5.0475
  165SAPE   H4Y18612   1.268   5.292   6.859 -1.3144  0.2860  0.6347
  165SAPE   C3518613   1.344   5.456   6.979  0.6700 -0.5099  0.1712
  165SAPE   H5X18614   1.239   5.491   6.980 -0.4911 -3.7314  0.6782
  165SAPE   H5Y18615   1.424   5.531   6.957  0.8547 -1.2450 -1.8733
  165SAPE   C3618616   1.375   5.381   7.103 -0.3275  0.5382 -0.3082
  165SAPE   H6X18617   1.476   5.338   7.086 -0.0658  1.0794 -0.1368
  165SAPE   H6Y18618   1.313   5.290   7.114  1.7638 -1.0799 -1.3072
  165SAPE   C3718619   1.377   5.460   7.237 -0.2942  0.2698 -0.7041
  165SAPE   H7X18620   1.441   5.551   7.233 -1.5133  1.1588 -0.6089
  165SAPE   H7Y18621   1.414   5.393   7.317  2.4416  1.9442 -0.4437
  165SAPE   C3818622   1.237   5.501   7.278 -0.1002  0.2411  0.4626
  165SAPE   H8X18623   1.177   5.409   7.261 -0.3789  0.4744  0.1730
  165SAPE   H8Y18624   1.196   5.580   7.211 -1.1524 -0.0050  0.7973
  165SAPE   C3918625   1.238   5.563   7.418 -0.1808  0.2580 -0.0173
  165SAPE   H9X18626   1.153   5.635   7.419  0.8779  1.5297  0.9934
  165SAPE   H9Y18627   1.325   5.629   7.435  0.1093  0.5865 -2.4470
  165SAPE  C31018628   1.223   5.461   7.523  0.3501 -0.2515  0.0135
  165SAPE  H10X18629   1.295   5.377   7.514  0.5480  0.0318 -1.2191
  165SAPE  H10Y18630   1.127   5.404   7.523  0.5631 -0.6139 -0.1960
  165SAPE  C31118631   1.243   5.524   7.661  0.4591 -0.3424  0.0831
  165SAPE  H11X18632   1.155   5.582   7.696 -0.8230 -2.0546 -0.2031
  165SAPE  H11Y18633   1.337   5.584   7.664 -0.8146  1.7036  1.0786
  165SAPE  C31218634   1.253   5.419   7.778  0.4007 -0.8379  0.2137
  165SAPE  H12X18635   1.346   5.359   7.773  0.1427 -1.2136 -0.0304
  165SAPE  H12Y18636   1.163   5.358   7.756  0.1997 -0.2021 -0.7644
  165SAPE  C31318637   1.238   5.483   7.916  0.0127 -0.4099 -0.0855
  165SAPE  H13X18638   1.153   5.555   7.917 -0.1155 -0.5614  0.0767
  165SAPE  H13Y18639   1.336   5.535   7.924  0.4509 -1.0909 -0.9170
  165SAPE  C31418640   1.221   5.387   8.036  0.6385 -0.1618  0.4515
  165SAPE  H14X18641   1.234   5.439   8.133 -0.9318 -1.4743  1.4034
  165SAPE  H14Y18642   1.296   5.306   8.022 -0.1989 -1.2946  2.1819
  165SAPE  C31518643   1.080   5.330   8.037  0.0572 -0.0225  0.8227
  165SAPE  H15X18644   1.082   5.235   8.093 -0.5130 -1.4210 -1.3841
  165SAPE  H15Y18645   1.053   5.313   7.930  1.7366 -1.4923  0.5923
  165SAPE  C31618646   0.984   5.424   8.116 -0.6271 -0.0066 -0.1545
  165SAPE  H16X18647   0.993   5.524   8.069 -3.2346 -0.2116 -1.2616
  165SAPE  H16Y18648   1.022   5.427   8.220 -0.5442  1.6913 -0.2128
  165SAPE  C31718649   0.843   5.372   8.104  1.0495 -0.2316 -0.0110
  165SAPE  H17X18650   0.833   5.263   8.119  0.0944 -0.3363 -1.3131
  165SAPE  H17Y18651   0.815   5.381   7.997 -0.9047  1.4187  0.5798
  165SAPE  C31818652   0.755   5.448   8.202  0.7442 -0.1135  0.0104
  165SAPE  H18X18653   0.768   5.426   8.310 -0.1820 -2.8005 -0.3416
  165SAPE  H18Y18654   0.651   5.413   8.184  0.6884  0.1044 -0.0933
  165SAPE  H18Z18655   0.760   5.557   8.184 -2.6797  0.2299  0.4863
  166SAPE     N18656   3.340   3.593   6.457 -0.1035 -0.0101  0.1562
  166SAPE   HN118657   3.275   3.674   6.458  1.3665  1.2495 -1.2792
  166SAPE   HN218658   3.355   3.570   6.557  0.4336  4.1347  1.2099
  166SAPE   HN318659   3.424   3.641   6.421 -0.4272  0.7133  0.3425
  166SAPE   C1218660   3.316   3.474   6.371  0.0091  0.1386  0.1790
  166SAPE  H12A18661   3.312   3.505   6.265  1.3115 -1.0286 -0.2369
  166SAPE  H12B18662   3.218   3.426   6.396  1.2648 -1.5861  2.1020
  166SAPE   C1118663   3.434   3.381   6.383 -0.2395 -0.3604 -0.5176
  166SAPE  H11A18664   3.418   3.302   6.306  1.0034 -0.2864 -0.8706
  166SAPE  H11B18665   3.431   3.340   6.486 -0.2652 -0.5763 -0.6028
  166SAPE     P18666   3.685   3.378   6.343  0.0495 -0.1236 -0.2119
  166SAPE   O1318667   3.681   3.251   6.424 -0.0252 -0.2604  0.4056
  166SAPE   O1418668   3.722   3.369   6.200  0.5686  0.3002  0.0216
  166SAPE   O1218669   3.549   3.450   6.341 -0.6123  0.7651 -0.0138
  166SAPE   O1118670   3.777   3.481   6.408 -0.4721 -0.2410 -0.1571
  166SAPE    C118671   3.744   3.555   6.526 -0.2947  0.4364  0.2220
  166SAPE    HA18672   3.799   3.652   6.526  1.6449 -0.5651  2.3637
  166SAPE    HB18673   3.637   3.582   6.534 -0.2058  0.7770  0.3119
  166SAPE    C218674   3.783   3.485   6.659  0.7473 -0.0056  0.0171
  166SAPE    HS18675   3.739   3.383   6.657  1.7458 -0.4503  0.2085
  166SAPE   O2118676   3.754   3.565   6.773  0.5620  0.3326  0.2010
  166SAPE   C2118677   3.697   3.501   6.871 -0.1914 -0.3153 -0.4635
  166SAPE   O2218678   3.685   3.378   6.881 -0.0576 -0.4598  0.5317
  166SAPE   C2218679   3.675   3.587   6.992  0.3078  0.9888  0.4918
  166SAPE   H2R18680   3.669   3.694   6.963 -1.0795  1.1085  1.1464
  166SAPE   H2S18681   3.569   3.572   7.021 -0.0851  0.5363 -1.0705
  166SAPE    C318682   3.935   3.462   6.663 -0.1332  0.5237  0.0958
  166SAPE    HX18683   3.988   3.555   6.634  0.5375  0.0972 -0.0720
  166SAPE    HY18684   3.961   3.395   6.579  0.7738 -0.6831  1.3023
  166SAPE   O3118685   3.984   3.413   6.792 -0.0177 -0.0797 -0.3690
  166SAPE   C3118686   3.987   3.276   6.800 -0.1771 -0.2567  0.4692
  166SAPE   O3218687   3.931   3.199   6.722 -0.2966 -0.3795  0.1136
  166SAPE   C3218688   4.078   3.234   6.914  0.3373  0.4010 -0.3734
  166SAPE   H2X18689   4.179   3.274   6.893  0.6711 -0.3189 -0.1492
  166SAPE   H2Y18690   4.088   3.124   6.911 -1.3965 -0.0209  3.4704
  166SAPE   C2318691   3.788   3.564   7.096 -0.0738 -1.0737 -0.5519
  166SAPE   H3R18692   3.878   3.594   7.039  0.5158 -0.7176  0.5351
  166SAPE   H3S18693   3.803   3.459   7.131  2.0176 -0.1197  1.6712
  166SAPE   C2418694   3.780   3.676   7.211 -0.8888 -0.3217  0.1017
  166SAPE   H4R18695   3.784   3.777   7.164  1.7185 -0.0272  0.8381
  166SAPE   H4S18696   3.875   3.672   7.269 -0.1351 -2.0197 -1.1469
  166SAPE   C2518697   3.652   3.654   7.284  0.5767 -0.9901 -0.1567
  166SAPE   H5R18698   3.561   3.695   7.239  0.6394 -1.2910 -0.5624
  166SAPE   C2618699   3.640   3.576   7.397 -0.4691 -0.0499  0.0987
  166SAPE   H6R18700   3.537   3.561   7.433 -0.0690  0.4274  1.4920
  166SAPE   C2718701   3.748   3.487   7.452 -0.3337  0.1673  0.4433
  166SAPE   H7R18702   3.818   3.458   7.372 -2.0389  0.1246 -1.1041
  166SAPE   H7S18703   3.704   3.390   7.485 -0.0386 -0.3236 -0.5680
  166SAPE   C2818704   3.824   3.560   7.560 -0.1095  0.9077 -0.4361
  166SAPE   H8R18705   3.903   3.623   7.514 -1.8117  1.9200 -2.1296
  166SAPE   C2918706   3.804   3.547   7.695 -0.6983  0.5684  0.0067
  166SAPE   H9R18707   3.869   3.606   7.761  0.2979  0.6436 -0.9988
  166SAPE  C21018708   3.688   3.479   7.764 -0.6850  0.4959  0.6836
  166SAPE  H10R18709   3.637   3.399   7.706  0.4764 -0.8123  1.3908
  166SAPE  H10S18710   3.612   3.553   7.797 -0.9833 -0.9384  3.6081
  166SAPE  C21118711   3.740   3.392   7.876 -0.4023 -0.4307 -0.0570
  166SAPE  H11R18712   3.840   3.351   7.853 -0.7503 -2.3633  1.5924
  166SAPE  C21218713   3.681   3.364   7.993 -0.4908  0.2556  0.5884
  166SAPE  H12R18714   3.727   3.290   8.060 -0.3120  1.6932  2.1342
  166SAPE  C21318715   3.547   3.402   8.039  0.1310  0.2823 -0.6120
  166SAPE  H13R18716   3.477   3.316   8.032  0.2692  0.2818 -2.8174
  166SAPE  H13S18717   3.507   3.489   7.982  4.0282  2.8737  0.2424
  166SAPE  C21418718   3.540   3.464   8.177 -0.4589  0.4116  0.1834
  166SAPE  H14R18719   3.553   3.573   8.171  0.1297  0.2841 -1.3310
  166SAPE  C21518720   3.532   3.404   8.298  0.0247 -0.5683  0.2323
  166SAPE  H15R18721   3.537   3.471   8.386 -0.1045  0.2178 -0.3487
  166SAPE  C21618722   3.511   3.260   8.325  0.0980  0.7590 -0.5018
  166SAPE  H16R18723   3.586   3.215   8.394 -0.6887  1.5357  0.9257
  166SAPE  H16S18724   3.506   3.202   8.231 -2.4230 -1.1833  0.6969
  166SAPE  C21718725   3.372   3.230   8.394  0.1284  0.4692  0.0176
  166SAPE  H17R18726   3.296   3.282   8.332  1.0826  0.0019 -1.6179
  166SAPE  H17S18727   3.368   3.285   8.491 -2.6485  0.0634  0.2292
  166SAPE  C21818728   3.341   3.079   8.406 -0.0386 -0.0959 -0.3981
  166SAPE  H18R18729   3.302   3.043   8.309 -1.1035 -1.6347  0.5439
  166SAPE  H18S18730   3.264   3.073   8.486 -0.5980 -1.3419 -1.0092
  166SAPE  C21918731   3.448   2.981   8.442 -0.0188  0.5480  0.5113
  166SAPE  H19R18732   3.496   3.005   8.539  1.4385 -0.8156  0.1636
  166SAPE  H19S18733   3.527   2.983   8.363  0.1926 -0.4010  0.6941
  166SAPE  C22018734   3.394   2.843   8.451  0.1175  0.8624 -0.1789
  166SAPE  H20R18735   3.467   2.762   8.476  0.8211  1.5864  0.1532
  166SAPE  H20S18736   3.345   2.814   8.355  0.0585 -2.2298  0.6799
  166SAPE  H20T18737   3.310   2.855   8.522  0.6602  0.6251  0.5200
  166SAPE   C3318738   4.029   3.284   7.044 -0.5959 -0.4007 -0.1989
  166SAPE   H3X18739   3.926   3.246   7.062  0.1229 -2.1563  0.4393
  166SAPE   H3Y18740   4.028   3.395   7.042 -5.5367 -0.1357  2.2614
  166SAPE   C3418741   4.122   3.235   7.154  0.6124  0.6183 -0.4030
  166SAPE   H4X18742   4.220   3.287   7.154  1.2121 -0.4722  0.5725
  166SAPE   H4Y18743   4.147   3.128   7.140 -0.5776  0.1839  0.5751
  166SAPE   C3518744   4.060   3.237   7.296 -0.6000  0.6410 -0.0696
  166SAPE   H5X18745   3.981   3.158   7.292 -0.3402  0.3638 -4.1797
  166SAPE   H5Y18746   4.018   3.339   7.310  0.9890  1.1881  0.8629
  166SAPE   C3618747   4.154   3.202   7.415  0.1301 -0.2363  0.0127
  166SAPE   H6X18748   4.255   3.230   7.376 -1.4701  1.5755 -3.2980
  166SAPE   H6Y18749   4.163   3.092   7.429  2.2253 -0.4811 -2.5128
  166SAPE   C3718750   4.119   3.280   7.538 -0.0718 -0.3795 -0.0996
  166SAPE   H7X18751   4.013   3.264   7.569  0.0346  1.3992  1.4098
  166SAPE   H7Y18752   4.128   3.387   7.508 -1.8931 -0.1097  0.1731
  166SAPE   C3818753   4.211   3.241   7.655 -0.7370 -0.2128  0.0182
  166SAPE   H8X18754   4.302   3.305   7.656 -0.1466 -0.8859  3.3345
  166SAPE   H8Y18755   4.246   3.136   7.653  1.2637  0.2348  3.2736
  166SAPE   C3918756   4.148   3.264   7.795 -0.0996  0.1633  0.1231
  166SAPE   H9X18757   4.045   3.222   7.797  0.1449 -0.4383  1.7959
  166SAPE   H9Y18758   4.154   3.373   7.815  2.8249  0.3376 -1.2155
  166SAPE  C31018759   4.237   3.208   7.902 -0.4168  0.0783  1.1065
  166SAPE  H10X18760   4.340   3.240   7.876 -0.0344 -2.1934 -0.5500
  166SAPE  H10Y18761   4.237   3.097   7.901  1.9366  0.0277 -0.1501
  166SAPE  C31118762   4.196   3.265   8.035 -0.7637  0.4968 -0.0801
  166SAPE  H11X18763   4.089   3.238   8.042 -0.3365 -1.2260  0.3539
  166SAPE  H11Y18764   4.207   3.376   8.039 -1.6200  0.6103 -0.7090
  166SAPE  C31218765   4.270   3.194   8.149  0.0004 -0.3144  0.1532
  166SAPE  H12X18766   4.259   3.083   8.150 -0.0016 -0.3131  0.3165
  166SAPE  H12Y18767   4.223   3.218   8.246  0.7527 -0.8819  0.6715
  166SAPE  C31318768   4.413   3.236   8.175  0.0796  0.8751  0.3269
  166SAPE  H13X18769   4.428   3.343   8.150  0.6595  0.4794 -1.1437
  166SAPE  H13Y18770   4.478   3.178   8.106  0.7161 -1.0336  2.4144
  166SAPE  C31418771   4.472   3.232   8.318 -0.2856 -0.2524 -0.4915
  166SAPE  H14X18772   4.430   3.316   8.377  1.3551 -1.1217  2.0888
  166SAPE  H14Y18773   4.582   3.242   8.309 -0.4340  1.4631 -0.6461
  166SAPE  C31518774   4.435   3.111   8.405  0.1007  0.2456 -0.4508
  166SAPE  H15X18775   4.327   3.107   8.432  0.3088 -1.4318  0.2429
  166SAPE  H15Y18776   4.495   3.124   8.498 -1.4896  0.1972  0.6147
  166SAPE  C31618777   4.483   2.975   8.353  0.3926 -0.3393  0.6668
  166SAPE  H16X18778   4.594   2.978   8.347  0.4204 -2.7190 -2.2326
  166SAPE  H16Y18779   4.441   2.968   8.251  0.5217  0.3410  0.5666
  166SAPE  C31718780   4.447   2.854   8.439 -0.5224  0.0437  0.7343
  166SAPE  H17X18781   4.485   2.757   8.401 -1.5019  0.0545 -0.2951
  166SAPE  H17Y18782   4.337   2.848   8.427 -0.5923  1.5587  0.4973
  166SAPE  C31818783   4.476   2.876   8.593  0.2745  0.1671 -0.0976
  166SAPE  H18X18784   4.447   2.778   8.637 -0.8297 -0.2060 -1.5740
  166SAPE  H18Y18785   4.417   2.959   8.637  0.5607  0.0187  0.5789
  166SAPE  H18Z18786   4.585   2.885   8.614  0.5338  0.4253 -1.4601
  167SAPE     N18787   1.450   0.035   6.128  0.1494 -0.2292 -0.0588
  167SAPE   HN118788   1.401   0.127   6.128  0.9359  0.2010 -0.2687
  167SAPE   HN218789   1.381  -0.035   6.163  0.5582 -0.3658  0.4767
  167SAPE   HN318790   1.520   0.049   6.204 -2.1628  3.4295  1.7255
  167SAPE   C1218791   1.501  -0.002   5.990 -0.2280  0.5580  0.1920
  167SAPE  H12A18792   1.418  -0.039   5.927  0.2245 -0.4103  0.1556
  167SAPE  H12B18793   1.571  -0.083   6.017  0.0397  0.2418 -1.3814
  167SAPE   C1118794   1.589   0.099   5.924 -0.3817 -0.1006  0.2332
  167SAPE  H11A18795   1.537   0.187   5.880  1.8469  1.0811 -0.1836
  167SAPE  H11B18796   1.623   0.049   5.831 -1.0135  2.7040 -1.6176
  167SAPE     P18797   1.839   0.063   5.997 -0.2115  0.3910 -0.3552
  167SAPE   O1318798   1.813  -0.067   6.050  0.3600 -0.0081  0.0051
  167SAPE   O1418799   1.892   0.077   5.856 -0.4321 -0.6100 -0.6118
  167SAPE   O1218800   1.697   0.145   6.007 -0.6229 -0.2010  0.4949
  167SAPE   O1118801   1.941   0.127   6.098  0.2907  0.5415 -0.2730
  167SAPE    C118802   1.936   0.256   6.157  0.2726  0.0346 -0.3130
  167SAPE    HA18803   2.034   0.306   6.163 -0.0792  0.8038 -0.7936
  167SAPE    HB18804   1.886   0.327   6.088  0.6564  0.5738 -0.0356
  167SAPE    C218805   1.871   0.264   6.298  0.0813  0.3547 -0.7282
  167SAPE    HS18806   1.899   0.368   6.324  2.7739 -0.4010 -0.3347
  167SAPE   O2118807   1.937   0.174   6.390  0.6020  0.2382  0.7063
  167SAPE   C2118808   2.061   0.201   6.432  0.2379 -0.4892 -0.4482
  167SAPE   O2218809   2.120   0.308   6.410  0.5650  0.2603  0.6406
  167SAPE   C2218810   2.113   0.090   6.519 -0.0996 -0.1960 -0.2418
  167SAPE   H2R18811   2.054  -0.003   6.504  0.8837 -1.0431  0.9510
  167SAPE   H2S18812   2.219   0.062   6.503  0.5197  0.9037  1.6309
  167SAPE    C318813   1.722   0.237   6.300 -0.6931  0.4342  0.4156
  167SAPE    HX18814   1.710   0.132   6.267 -0.1157  0.3851  0.3447
  167SAPE    HY18815   1.670   0.298   6.222 -0.4380 -0.9846 -0.9196
  167SAPE   O3118816   1.668   0.253   6.427 -0.0298  0.1542  0.6024
  167SAPE   C3118817   1.555   0.193   6.456 -0.2386 -0.3640 -0.4869
  167SAPE   O3218818   1.487   0.134   6.374  0.0179  0.2557 -0.2940
  167SAPE   C3218819   1.538   0.223   6.602  0.0138 -0.0761  1.0285
  167SAPE   H2X18820   1.525   0.333   6.605 -0.9934  0.0796 -2.8883
  167SAPE   H2Y18821   1.635   0.189   6.643  0.5035  0.0260 -0.0023
  167SAPE   C2318822   2.101   0.135   6.665 -0.5109  0.5652  0.0755
  167SAPE   H3R18823   1.992   0.142   6.684 -0.6396  2.3677 -1.0659
  167SAPE   H3S18824   2.150   0.234   6.674 -1.3308  1.1451 -1.5258
  167SAPE   C2418825   2.157   0.028   6.765 -0.6569  0.2023 -0.0666
  167SAPE   H4R18826   2.088  -0.055   6.741  0.4611 -0.3243 -1.6936
  167SAPE   H4S18827   2.132   0.060   6.868 -0.3553  2.6204 -0.6711
  167SAPE   C2518828   2.307  -0.017   6.746 -0.3388 -0.3920 -0.3204
  167SAPE   H5R18829   2.356   0.039   6.665 -1.0440 -1.3115 -1.4198
  167SAPE   C2618830   2.369  -0.106   6.820 -0.4453 -0.1955 -0.2483
  167SAPE   H6R18831   2.474  -0.134   6.803 -0.6448 -1.1486  0.0179
  167SAPE   C2718832   2.296  -0.177   6.934  0.0680 -1.2041 -0.4352
  167SAPE   H7R18833   2.227  -0.250   6.887 -1.3000 -1.2586  1.4861
  167SAPE   H7S18834   2.226  -0.115   6.995 -0.9621 -3.0102  0.3213
  167SAPE   C2818835   2.387  -0.236   7.038  0.0080  0.0303  0.6899
  167SAPE   H8R18836   2.485  -0.188   7.052  0.1242  0.0584 -0.2069
  167SAPE   C2918837   2.378  -0.358   7.095 -1.4709 -0.0446 -0.1535
  167SAPE   H9R18838   2.461  -0.377   7.164 -1.3777  3.2118  0.7819
  167SAPE  C21018839   2.266  -0.458   7.093  0.2634 -0.2721  0.4136
  167SAPE  H10R18840   2.288  -0.534   7.015 -0.9818 -0.6988  0.4596
  167SAPE  H10S18841   2.164  -0.417   7.078 -0.0627 -1.0523  0.4470
  167SAPE  C21118842   2.271  -0.525   7.225 -0.0021 -1.5927  0.0856
  167SAPE  H11R18843   2.354  -0.498   7.291 -0.2996 -0.5720  0.0579
  167SAPE  C21218844   2.184  -0.626   7.268  0.5705  0.2556  0.0251
  167SAPE  H12R18845   2.203  -0.678   7.363 -1.1043 -1.2847 -0.4136
  167SAPE  C21318846   2.075  -0.680   7.182  0.5168  0.1108  0.0548
  167SAPE  H13R18847   2.086  -0.635   7.081 -0.4704  2.5460  0.9492
  167SAPE  H13S18848   1.981  -0.633   7.218  1.1662  1.8378 -0.3678
  167SAPE  C21418849   2.076  -0.831   7.182  0.6126  0.3651  0.2959
  167SAPE  H14R18850   2.030  -0.865   7.275 -0.3612 -0.1997 -0.3738
  167SAPE  C21518851   2.139  -0.919   7.101 -0.0360  0.2800  0.2680
  167SAPE  H15R18852   2.128  -1.029   7.097 -1.7761  0.4730 -1.2313
  167SAPE  C21618853   2.215  -0.877   6.974 -0.4817  0.3192  0.6436
  167SAPE  H16R18854   2.319  -0.915   6.974 -0.5824 -0.2192 -2.8702
  167SAPE  H16S18855   2.237  -0.768   6.970 -1.1040  0.4631  1.1038
  167SAPE  C21718856   2.145  -0.916   6.850  0.1050  0.2306  0.0510
  167SAPE  H17R18857   2.047  -0.867   6.833  1.0891  2.0826 -0.5695
  167SAPE  H17S18858   2.113  -1.022   6.856  3.4184 -0.9312 -0.4766
  167SAPE  C21818859   2.232  -0.917   6.724 -0.7607 -0.5529 -0.7135
  167SAPE  H18R18860   2.322  -0.975   6.752  0.4775  2.6837  2.9102
  167SAPE  H18S18861   2.269  -0.814   6.700 -1.4863 -0.1604 -0.1769
  167SAPE  C21918862   2.172  -0.973   6.601  0.5494  0.1395  0.3083
  167SAPE  H19R18863   2.097  -1.049   6.631  2.0183 -1.5345 -0.0863
  167SAPE  H19S18864   2.258  -1.030   6.559  1.6365  1.7180  0.2843
  167SAPE  C22018865   2.111  -0.868   6.499 -0.3156  0.4277  0.2080
  167SAPE  H20R18866   2.058  -0.920   6.417  2.8037 -0.0855 -1.6295
  167SAPE  H20S18867   2.186  -0.803   6.449 -0.6832  0.1836 -0.6674
  167SAPE  H20T18868   2.035  -0.820   6.565  1.2645 -0.7394  3.0623
  167SAPE   C3318869   1.416   0.156   6.658 -0.2782 -0.7265 -0.4291
  167SAPE   H3X18870   1.415   0.045   6.657 -0.0392 -0.7394 -1.9813
  167SAPE   H3Y18871   1.331   0.192   6.595 -0.6910 -2.0016 -0.6192
  167SAPE   C3418872   1.398   0.205   6.803  0.2564  0.0523 -0.4842
  167SAPE   H4X18873   1.293   0.205   6.840 -1.2962 -1.1772 -4.3231
  167SAPE   H4Y18874   1.420   0.313   6.801 -3.0794  0.9507  2.2336
  167SAPE   C3518875   1.480   0.118   6.898  0.0205  0.6029 -0.5961
  167SAPE   H5X18876   1.576   0.092   6.849 -0.6406 -0.7324 -1.2473
  167SAPE   H5Y18877   1.423   0.025   6.920 -2.7633  1.0041 -5.0548
  167SAPE   C3618878   1.510   0.196   7.025  0.4847 -0.0218 -0.7128
  167SAPE   H6X18879   1.415   0.221   7.077 -0.0177 -1.1965 -1.0128
  167SAPE   H6Y18880   1.563   0.291   7.006  0.3349 -0.2694 -2.5232
  167SAPE   C3718881   1.603   0.115   7.118  0.0760 -0.1314 -0.7042
  167SAPE   H7X18882   1.702   0.108   7.068  1.7057 -1.4891  2.4434
  167SAPE   H7Y18883   1.561   0.013   7.127 -1.3826  0.5201  0.3334
  167SAPE   C3818884   1.626   0.180   7.255  0.5263  0.2360 -0.2620
  167SAPE   H8X18885   1.528   0.211   7.300  1.3075 -0.7845  2.3672
  167SAPE   H8Y18886   1.683   0.272   7.232 -0.9156  0.9786 -1.0588
  167SAPE   C3918887   1.700   0.077   7.355 -0.5036  0.6655 -0.2134
  167SAPE   H9X18888   1.799   0.045   7.316 -0.2168  2.1569 -0.7577
  167SAPE   H9Y18889   1.631  -0.010   7.362 -1.3799  1.3208 -0.5389
  167SAPE  C31018890   1.716   0.127   7.502 -0.5057  0.6021  0.7361
  167SAPE  H10X18891   1.767   0.047   7.559 -1.3978 -0.1543  0.4988
  167SAPE  H10Y18892   1.615   0.133   7.549 -1.1263  0.8841 -0.5949
  167SAPE  C31118893   1.792   0.255   7.507 -0.8679  0.2948  0.3191
  167SAPE  H11X18894   1.736   0.341   7.464  0.2142  1.1664  0.6227
  167SAPE  H11Y18895   1.881   0.237   7.442 -1.7716  2.3179 -1.6266
  167SAPE  C31218896   1.849   0.279   7.646 -0.3448  0.2015 -0.1493
  167SAPE  H12X18897   1.903   0.189   7.683  0.3233  0.6538 -0.0162
  167SAPE  H12Y18898   1.765   0.295   7.717  1.8684  0.6033  2.5505
  167SAPE  C31318899   1.926   0.408   7.647 -0.3019 -0.9263 -0.2699
  167SAPE  H13X18900   1.871   0.491   7.597 -0.6970 -1.2658 -0.3957
  167SAPE  H13Y18901   2.025   0.395   7.598  0.9170  1.2417  1.4063
  167SAPE  C31418902   1.958   0.455   7.789 -0.5762  0.9446  0.1307
  167SAPE  H14X18903   2.001   0.376   7.855 -0.2885  2.1617  1.4493
  167SAPE  H14Y18904   1.861   0.479   7.837 -0.9154  1.1100 -0.6282
  167SAPE  C31518905   2.061   0.569   7.795  0.0534  0.0909  0.8961
  167SAPE  H15X18906   2.010   0.662   7.760 -0.1719 -1.3895 -3.3194
  167SAPE  H15Y18907   2.150   0.554   7.730 -0.5582 -0.2420  0.1180
  167SAPE  C31618908   2.107   0.619   7.938  0.5936  0.1209  0.0438
  167SAPE  H16X18909   2.169   0.712   7.936  1.2449 -0.3055  0.2455
  167SAPE  H16Y18910   2.163   0.533   7.979 -0.6141 -1.2058 -1.0032
  167SAPE  C31718911   1.980   0.663   8.014  0.1992 -0.0136 -0.4666
  167SAPE  H17X18912   1.920   0.572   8.032  1.2007 -0.8718 -1.3393
  167SAPE  H17Y18913   1.932   0.737   7.947  0.9159  1.3133  0.4176
  167SAPE  C31818914   2.019   0.724   8.148  0.4201 -0.4427  0.1740
  167SAPE  H18X18915   1.934   0.748   8.215  0.5961  1.3449 -0.2025
  167SAPE  H18Y18916   2.075   0.818   8.131 -0.6929  0.1190 -0.5091
  167SAPE  H18Z18917   2.098   0.669   8.202  1.0910  1.4516  1.1949
  168SAPE     N18918   4.668   3.109   6.226  0.0859  0.1150  0.7029
  168SAPE   HN118919   4.710   3.101   6.320 -1.8049 -0.5670  1.5444
  168SAPE   HN218920   4.658   3.019   6.174 -1.8302  1.5227 -1.5996
  168SAPE   HN318921   4.717   3.177   6.164 -0.8848  0.3150  0.1163
  168SAPE   C1218922   4.522   3.143   6.248 -0.3723  0.2005 -0.2767
  168SAPE  H12A18923   4.474   3.054   6.294  0.2846  0.3067  0.6379
  168SAPE  H12B18924   4.470   3.158   6.151 -2.2872  2.6775  1.0271
  168SAPE   C1118925   4.515   3.269   6.333  0.3581 -0.7884 -0.0278
  168SAPE  H11A18926   4.582   3.259   6.422  1.8987  1.3635 -0.8689
  168SAPE  H11B18927   4.415   3.272   6.381  0.5951  1.3025  0.4249
  168SAPE     P18928   4.482   3.518   6.256  0.0371 -0.0900  0.1760
  168SAPE   O1318929   4.573   3.617   6.195  0.2158 -0.1191 -0.9372
  168SAPE   O1418930   4.346   3.516   6.199  0.1261  0.2930 -0.2828
  168SAPE   O1218931   4.549   3.373   6.244 -0.0308 -0.3521 -1.0647
  168SAPE   O1118932   4.473   3.525   6.420 -0.0421  0.1300  0.6445
  168SAPE    C118933   4.595   3.551   6.491 -0.2130 -0.6802  0.1137
  168SAPE    HA18934   4.677   3.485   6.458 -0.3452  0.5486 -3.0096
  168SAPE    HB18935   4.627   3.657   6.479  1.0369 -1.1230 -0.5950
  168SAPE    C218936   4.584   3.522   6.641  0.2135 -0.4504 -0.6856
  168SAPE    HS18937   4.521   3.431   6.646 -1.6491  0.6891 -1.9723
  168SAPE   O2118938   4.524   3.638   6.703  0.6464  0.3219  0.3946
  168SAPE   C2118939   4.396   3.644   6.738  0.1023  0.6860  0.3749
  168SAPE   O2218940   4.314   3.556   6.730  0.1959  0.2645 -0.0263
  168SAPE   C2218941   4.363   3.785   6.775 -0.3758 -0.0019 -0.1017
  168SAPE   H2R18942   4.433   3.827   6.850  0.5309  0.7984 -1.3727
  168SAPE   H2S18943   4.372   3.843   6.681  0.0724  0.9969  0.5402
  168SAPE    C318944   4.721   3.500   6.700 -0.0988  0.0438 -0.3865
  168SAPE    HX18945   4.789   3.578   6.659 -1.0737  1.5858  0.8231
  168SAPE    HY18946   4.767   3.404   6.667  1.7676  0.9647 -0.6098
  168SAPE   O3118947   4.730   3.506   6.844 -0.1181  0.4718 -0.5776
  168SAPE   C3118948   4.862   3.494   6.885  0.1067  0.4289 -0.2298
  168SAPE   O3218949   4.956   3.481   6.809  0.1248 -0.0221 -0.0088
  168SAPE   C3218950   4.867   3.494   7.041  0.4974 -0.3555  0.1547
  168SAPE   H2X18951   4.828   3.392   7.064  0.1499 -0.2210  0.1752
  168SAPE   H2Y18952   4.798   3.571   7.081  2.5501  2.4947 -1.4798
  168SAPE   C2318953   4.212   3.816   6.813  0.1550 -0.9800  0.3766
  168SAPE   H3R18954   4.147   3.755   6.747 -1.6900  0.5495  0.6849
  168SAPE   H3S18955   4.188   3.920   6.783  0.6463 -0.1080  2.7434
  168SAPE   C2418956   4.194   3.786   6.963  0.1763 -0.8693 -0.7205
  168SAPE   H4R18957   4.094   3.821   6.999  1.2425  0.6681  0.9477
  168SAPE   H4S18958   4.265   3.848   7.022  0.3224 -2.1337  0.4946
  168SAPE   C2518959   4.205   3.640   6.993 -1.0419 -1.0608  0.0120
  168SAPE   H5R18960   4.122   3.573   6.966 -0.7503 -0.7555 -1.7855
  168SAPE   C2618961   4.306   3.589   7.061 -0.3203 -0.5261  0.4493
  168SAPE   H6R18962   4.306   3.480   7.071  0.6409 -0.3783  2.3767
  168SAPE   C2718963   4.424   3.666   7.120 -0.2496 -0.1608  0.0748
  168SAPE   H7R18964   4.371   3.736   7.189 -2.2671 -0.3051 -1.2486
  168SAPE   H7S18965   4.477   3.735   7.051  2.3452 -1.2745  0.8140
  168SAPE   C2818966   4.528   3.574   7.173 -0.0370 -0.1514 -0.4057
  168SAPE   H8R18967   4.603   3.554   7.094 -0.3652 -0.1784 -0.7109
  168SAPE   C2918968   4.531   3.523   7.296  0.0479 -0.0581 -0.3018
  168SAPE   H9R18969   4.606   3.448   7.328 -0.5644 -0.2155  0.8160
  168SAPE  C21018970   4.450   3.554   7.421  0.1859 -0.3377 -0.0677
  168SAPE  H10R18971   4.386   3.466   7.444  0.5825 -0.5239  0.3376
  168SAPE  H10S18972   4.384   3.642   7.403 -2.2287 -1.1199  3.8072
  168SAPE  C21118973   4.546   3.581   7.537 -0.3257  0.0138 -0.3693
  168SAPE  H11R18974   4.652   3.592   7.510 -0.0139 -0.8359  0.4789
  168SAPE  C21218975   4.510   3.604   7.664 -0.3032  0.2105  0.5052
  168SAPE  H12R18976   4.599   3.615   7.729 -0.2761 -0.1302  0.5282
  168SAPE  C21318977   4.366   3.608   7.713  0.2107  0.9031  0.1952
  168SAPE  H13R18978   4.330   3.524   7.776  0.1984  1.6765  1.2577
  168SAPE  H13S18979   4.295   3.600   7.628  0.8200  1.1044 -0.3354
  168SAPE  C21418980   4.334   3.729   7.790 -0.3208  0.4802 -0.8608
  168SAPE  H14R18981   4.265   3.801   7.742 -0.7147 -0.9586 -2.5391
  168SAPE  C21518982   4.357   3.746   7.920  0.7154  0.7212 -0.5409
  168SAPE  H15R18983   4.334   3.846   7.960 -1.9465 -0.1275  0.3224
  168SAPE  C21618984   4.431   3.643   8.006 -0.0030 -0.3600 -0.4900
  168SAPE  H16R18985   4.539   3.651   7.981  0.3264 -2.6377 -0.0105
  168SAPE  H16S18986   4.413   3.535   7.988  2.0379 -0.5867 -1.4905
  168SAPE  C21718987   4.403   3.662   8.161 -0.1919 -0.7919  0.6750
  168SAPE  H17R18988   4.315   3.598   8.182 -1.6399  0.5680 -1.0286
  168SAPE  H17S18989   4.390   3.772   8.172  0.1827 -0.7269  0.5096
  168SAPE  C21818990   4.522   3.628   8.252 -0.0470 -0.1479 -0.6596
  168SAPE  H18R18991   4.600   3.705   8.233 -2.6682  3.1870  0.8919
  168SAPE  H18S18992   4.562   3.525   8.248  1.5035  0.3552  0.8864
  168SAPE  C21918993   4.478   3.647   8.398 -0.8350  0.1114 -0.0719
  168SAPE  H19R18994   4.394   3.576   8.415 -0.4321 -0.6649 -1.1941
  168SAPE  H19S18995   4.445   3.752   8.415 -3.2832 -0.9721  2.7511
  168SAPE  C22018996   4.592   3.629   8.503 -0.0818  1.0264 -0.0773
  168SAPE  H20R18997   4.628   3.527   8.477  0.2649  1.4362 -1.2588
  168SAPE  H20S18998   4.563   3.629   8.611  5.2551  0.4801  1.6279
  168SAPE  H20T18999   4.671   3.707   8.501  3.4910 -2.3323 -0.3159
  168SAPE   C3319000   5.010   3.504   7.102  0.3184 -0.0389  0.3995
  168SAPE   H3X19001   5.045   3.609   7.095  1.4404 -0.5044 -2.8765
  168SAPE   H3Y19002   5.092   3.447   7.052 -1.1302 -1.7649 -0.1106
  168SAPE   C3419003   5.015   3.437   7.240 -0.2972  0.5702  0.6080
  168SAPE   H4X19004   5.120   3.404   7.249 -0.4385 -0.1116 -0.1214
  168SAPE   H4Y19005   4.968   3.337   7.244  0.4291  0.0986 -1.4312
  168SAPE   C3519006   4.969   3.522   7.357 -0.1811  0.1206  0.1679
  168SAPE   H5X19007   4.862   3.539   7.333 -0.0649 -0.3414 -0.7093
  168SAPE   H5Y19008   5.030   3.615   7.362 -1.0879  0.7766 -0.6361
  168SAPE   C3619009   4.990   3.437   7.483  1.2726 -0.6632 -1.0237
  168SAPE   H6X19010   5.094   3.398   7.478  0.9796 -1.4289 -1.3325
  168SAPE   H6Y19011   4.921   3.350   7.480 -0.2802  0.3751  1.6731
  168SAPE   C3719012   4.972   3.501   7.615  0.2141 -0.0004  0.0991
  168SAPE   H7X19013   4.979   3.422   7.693  0.6289 -1.8306 -1.7109
  168SAPE   H7Y19014   4.868   3.536   7.634 -0.3252 -1.8844  0.8478
  168SAPE   C3819015   5.069   3.620   7.634  0.0826  0.0406 -0.0103
  168SAPE   H8X19016   5.036   3.715   7.587  1.4232 -1.0362 -3.4821
  168SAPE   H8Y19017   5.168   3.597   7.588 -0.0045 -0.7500  0.1772
  168SAPE   C3919018   5.103   3.645   7.786  0.5503 -0.2888  0.1664
  168SAPE   H9X19019   5.168   3.734   7.768  0.7987 -0.8389 -1.9966
  168SAPE   H9Y19020   5.166   3.568   7.835  2.3382 -0.5978 -2.4105
  168SAPE  C31019021   4.986   3.692   7.873  0.5313 -0.2050  0.7823
  168SAPE  H10X19022   4.922   3.605   7.899 -0.6081  0.4979  0.3898
  168SAPE  H10Y19023   4.925   3.756   7.806 -0.9531 -1.1252  1.1933
  168SAPE  C31119024   5.036   3.771   7.998  0.4576 -0.1337  0.5734
  168SAPE  H11X19025   4.959   3.846   8.023 -0.7452 -0.9994 -0.4337
  168SAPE  H11Y19026   5.131   3.822   7.973  1.0115 -1.3711  0.0306
  168SAPE  C31219027   5.063   3.682   8.123  0.5382 -0.9075 -0.0178
  168SAPE  H12X19028   5.137   3.604   8.096 -0.8572 -2.3873  0.3384
  168SAPE  H12Y19029   4.968   3.633   8.151 -0.3103  1.2698  1.1588
  168SAPE  C31319030   5.129   3.762   8.245 -0.4827 -0.1092  0.2459
  168SAPE  H13X19031   5.214   3.822   8.205  0.2837 -1.0241  0.4628
  168SAPE  H13Y19032   5.176   3.688   8.313 -0.9874 -0.6350  0.0278
  168SAPE  C31419033   5.030   3.846   8.320  0.1949  0.8242  0.5176
  168SAPE  H14X19034   4.964   3.904   8.253 -0.0425 -0.8478 -0.7494
  168SAPE  H14Y19035   5.086   3.920   8.381 -0.1927  0.0532  1.8509
  168SAPE  C31519036   4.948   3.757   8.418 -0.5889  0.0671 -0.6274
  168SAPE  H15X19037   4.870   3.692   8.374 -2.4728  2.6357 -1.2944
  168SAPE  H15Y19038   4.894   3.823   8.489 -3.4669 -0.8010 -1.8460
  168SAPE  C31619039   5.040   3.673   8.513  0.3442  0.8974 -0.9940
  168SAPE  H16X19040   5.125   3.734   8.551  2.5753 -2.1546 -0.7824
  168SAPE  H16Y19041   5.078   3.589   8.453 -0.5401 -0.0661 -0.2420
  168SAPE  C31719042   4.955   3.620   8.636  0.1745 -0.4038  0.6155
  168SAPE  H17X19043   4.867   3.560   8.608 -1.6753  1.1958  2.5869
  168SAPE  H17Y19044   4.918   3.715   8.681  0.4971  0.3511 -0.6575
  168SAPE  C31819045   5.033   3.544   8.743  0.1456 -0.2513 -0.0856
  168SAPE  H18X19046   4.972   3.517   8.832  1.6719 -0.2444  1.0128
  168SAPE  H18Y19047   5.107   3.618   8.781 -1.0094  0.7291  0.3119
  168SAPE  H18Z19048   5.080   3.455   8.695 -2.0494 -0.5859 -1.7521
  169SAPE     N19049   3.373   4.646   6.326  0.0940  0.0719 -0.3332
  169SAPE   HN119050   3.381   4.565   6.391  1.2930  0.7108  0.3505
  169SAPE   HN219051   3.417   4.610   6.239  0.5668  0.0301 -0.0785
  169SAPE   HN319052   3.440   4.718   6.360  0.0057 -0.5598  1.2438
  169SAPE   C1219053   3.238   4.697   6.293  0.0874  0.2219 -0.8234
  169SAPE  H12A19054   3.190   4.626   6.222 -0.7728 -2.0082  1.7990
  169SAPE  H12B19055   3.261   4.791   6.238 -0.1192  2.7549  3.0692
  169SAPE   C1119056   3.150   4.720   6.414 -0.0242 -0.1413 -0.4564
  169SAPE  H11A19057   3.133   4.630   6.477 -1.9767  0.0610 -0.6106
  169SAPE  H11B19058   3.048   4.750   6.380  0.1834  0.2125 -0.7695
  169SAPE     P19059   3.152   4.981   6.498  0.1017  0.1164  0.9350
  169SAPE   O1319060   3.217   5.048   6.383 -0.5435  0.0218  0.5532
  169SAPE   O1419061   3.002   4.974   6.502 -0.1743  0.0400  0.1767
  169SAPE   O1219062   3.199   4.823   6.511 -0.4219  0.1653  0.4444
  169SAPE   O1119063   3.207   5.054   6.632 -0.5329  0.5659  0.0483
  169SAPE    C119064   3.305   4.986   6.710  0.1556  0.6614  0.5556
  169SAPE    HA19065   3.261   4.889   6.742  3.5625 -1.4131 -0.5975
  169SAPE    HB19066   3.400   4.960   6.658 -0.4603  0.3649 -0.4486
  169SAPE    C219067   3.339   5.064   6.840 -0.5704  0.5846 -0.2353
  169SAPE    HS19068   3.408   5.005   6.904  0.0497  1.2722 -0.2542
  169SAPE   O2119069   3.222   5.110   6.907  0.1100  1.4372 -0.4533
  169SAPE   C2119070   3.150   5.016   6.968 -0.2871 -0.6923 -0.6815
  169SAPE   O2219071   3.162   4.894   6.964  0.4590 -0.5064 -0.5145
  169SAPE   C2219072   3.048   5.086   7.056  0.6984  0.3477  0.3814
  169SAPE   H2R19073   2.958   5.096   6.990  1.6948  0.6418 -0.9843
  169SAPE   H2S19074   3.012   5.010   7.128  0.2932  0.8612  0.7299
  169SAPE    C319075   3.437   5.186   6.809  0.2493 -0.2853  0.3826
  169SAPE    HX19076   3.388   5.254   6.736 -1.7959  0.6077  2.4804
  169SAPE    HY19077   3.526   5.145   6.757 -0.6279 -0.4649 -1.0270
  169SAPE   O3119078   3.476   5.258   6.928 -0.2928  0.1882  0.0245
  169SAPE   C3119079   3.408   5.369   6.945  0.3758  0.2406  0.3675
  169SAPE   O3219080   3.314   5.411   6.875 -0.1843 -0.0372  0.1495
  169SAPE   C3219081   3.469   5.436   7.069 -0.2852 -0.1352 -0.5492
  169SAPE   H2X19082   3.386   5.486   7.122  1.5805  1.8263  0.6648
  169SAPE   H2Y19083   3.535   5.514   7.025 -0.0531 -0.3253 -0.5415
  169SAPE   C2319084   3.079   5.217   7.114  0.4309  0.6405  0.4328
  169SAPE   H3R19085   2.986   5.253   7.164  0.0877  0.8407 -0.3334
  169SAPE   H3S19086   3.106   5.297   7.042  0.1181 -0.8572 -1.4350
  169SAPE   C2419087   3.200   5.205   7.214  0.3167 -0.9276  0.2001
  169SAPE   H4R19088   3.250   5.303   7.231 -0.6570 -0.4471  0.3690
  169SAPE   H4S19089   3.282   5.152   7.161  1.3427  0.5174  0.2991
  169SAPE   C2519090   3.159   5.132   7.341  0.1418 -0.3125 -0.2845
  169SAPE   H5R19091   3.118   5.032   7.322 -2.5199  0.4567  0.9274
  169SAPE   C2619092   3.141   5.191   7.462 -0.2234 -0.5047 -0.9253
  169SAPE   H6R19093   3.111   5.135   7.552  0.9916  1.0412  0.5162
  169SAPE   C2719094   3.177   5.341   7.492 -1.2166 -0.3669 -0.0037
  169SAPE   H7R19095   3.083   5.388   7.528 -0.7390 -1.2362  2.5985
  169SAPE   H7S19096   3.228   5.401   7.414  0.4699 -0.7725  0.7353
  169SAPE   C2819097   3.281   5.340   7.603 -0.2466 -0.0424 -0.4798
  169SAPE   H8R19098   3.383   5.305   7.580  0.6390 -0.1363  3.0068
  169SAPE   C2919099   3.246   5.367   7.732  0.3351 -0.3788  0.3752
  169SAPE   H9R19100   3.329   5.368   7.804  1.0785  0.1464 -0.4738
  169SAPE  C21019101   3.104   5.409   7.781  0.7692  0.0581 -0.4883
  169SAPE  H10R19102   3.026   5.372   7.711 -0.8189  0.2859  1.0985
  169SAPE  H10S19103   3.092   5.519   7.785  0.6761  0.0301  0.1328
  169SAPE  C21119104   3.070   5.341   7.913 -0.0205 -0.7203 -0.2997
  169SAPE  H11R19105   3.131   5.254   7.942 -1.1328 -1.0124  1.2612
  169SAPE  C21219106   2.980   5.390   8.002  0.2224  1.5163  0.3350
  169SAPE  H12R19107   2.977   5.337   8.098 -0.8162  2.3755  0.8037
  169SAPE  C21319108   2.889   5.508   7.986 -0.2102 -0.1833 -0.2374
  169SAPE  H13R19109   2.922   5.562   7.895  0.8210 -1.8137 -0.8705
  169SAPE  H13S19110   2.902   5.575   8.074 -0.3774  0.9320 -1.0320
  169SAPE  C21419111   2.747   5.477   7.982  0.4160  0.3752 -0.1123
  169SAPE  H14R19112   2.717   5.372   7.983  1.0035  0.2086  0.0556
  169SAPE  C21519113   2.659   5.568   7.953  0.1179 -0.1446  0.1686
  169SAPE  H15R19114   2.551   5.545   7.958  0.4392 -1.9039 -0.4586
  169SAPE  C21619115   2.677   5.718   7.943 -0.0523 -0.3386 -0.4892
  169SAPE  H16R19116   2.619   5.756   7.856 -1.6873 -3.3779 -0.8601
  169SAPE  H16S19117   2.780   5.757   7.958 -0.7967  0.9989  1.5008
  169SAPE  C21719118   2.610   5.777   8.074  0.3179 -0.5543  0.7092
  169SAPE  H17R19119   2.509   5.732   8.084 -0.0231 -0.3170 -1.3247
  169SAPE  H17S19120   2.592   5.885   8.056  1.3999 -0.8134 -2.4934
  169SAPE  C21819121   2.698   5.764   8.201 -0.4820 -0.8741 -0.4108
  169SAPE  H18R19122   2.799   5.790   8.161 -0.3707 -1.3858 -0.4688
  169SAPE  H18S19123   2.688   5.667   8.253 -0.6351 -0.1152  1.0196
  169SAPE  C21919124   2.651   5.869   8.312 -0.6544 -0.3819  0.0973
  169SAPE  H19R19125   2.544   5.849   8.337 -1.1144  1.0787 -0.6164
  169SAPE  H19S19126   2.660   5.972   8.273  0.6337  0.3549  2.1538
  169SAPE  C22019127   2.735   5.852   8.446  0.8267  0.2106 -0.1030
  169SAPE  H20R19128   2.842   5.875   8.425  0.5665 -0.5831 -2.6496
  169SAPE  H20S19129   2.736   5.744   8.469  1.2698  0.1229 -0.5273
  169SAPE  H20T19130   2.706   5.911   8.536 -1.3071 -0.4671 -0.3029
  169SAPE   C3319131   3.550   5.344   7.158 -0.5490  0.2441 -0.0433
  169SAPE   H3X19132   3.637   5.304   7.101 -1.2317 -0.0830 -0.8765
  169SAPE   H3Y19133   3.486   5.261   7.196  0.6996  0.0454  1.8020
  169SAPE   C3419134   3.599   5.415   7.289 -0.0683  0.4369 -0.7108
  169SAPE   H4X19135   3.504   5.439   7.340 -1.0556 -2.3517 -1.0423
  169SAPE   H4Y19136   3.664   5.503   7.269 -0.3788  0.9942  0.6199
  169SAPE   C3519137   3.664   5.310   7.393  0.0950 -0.0742  0.6044
  169SAPE   H5X19138   3.764   5.290   7.350 -0.1617 -0.2120  0.0520
  169SAPE   H5Y19139   3.605   5.216   7.402  0.0707 -0.0705  0.4836
  169SAPE   C3619140   3.672   5.376   7.524 -0.3744 -0.4667  0.2883
  169SAPE   H6X19141   3.576   5.364   7.579  0.6304 -0.4869  2.1118
  169SAPE   H6Y19142   3.715   5.478   7.522 -1.5016  0.0216 -1.7364
  169SAPE   C3719143   3.775   5.312   7.611 -0.2025 -0.9209  0.1066
  169SAPE   H7X19144   3.866   5.343   7.557  1.0889 -2.6364  1.1751
  169SAPE   H7Y19145   3.764   5.201   7.616 -0.5641 -0.9407 -0.8942
  169SAPE   C3819146   3.767   5.380   7.747 -0.6076 -0.6305 -0.6523
  169SAPE   H8X19147   3.674   5.338   7.789 -0.2661 -3.9188 -2.8620
  169SAPE   H8Y19148   3.752   5.490   7.745  1.1453 -0.0276  4.0282
  169SAPE   C3919149   3.898   5.328   7.811 -0.3163 -0.3516  0.1036
  169SAPE   H9X19150   3.978   5.362   7.742 -0.8026 -1.5144 -1.0583
  169SAPE   H9Y19151   3.902   5.218   7.798  1.1314 -0.2821 -0.2263
  169SAPE  C31019152   3.925   5.358   7.956 -0.0412  0.1213 -1.5229
  169SAPE  H10X19153   3.847   5.316   8.023 -1.1741 -0.4296 -3.1224
  169SAPE  H10Y19154   3.920   5.467   7.976 -0.2341 -0.1453  0.0182
  169SAPE  C31119155   4.070   5.319   8.004  0.0351 -0.0650 -0.1121
  169SAPE  H11X19156   4.115   5.390   8.077 -1.1684  1.0277 -0.3929
  169SAPE  H11Y19157   4.133   5.322   7.912  0.1567 -0.7203 -0.0564
  169SAPE  C31219158   4.080   5.170   8.058 -0.2960 -0.2481  0.0745
  169SAPE  H12X19159   4.186   5.157   8.092 -0.8642 -0.5128  1.8618
  169SAPE  H12Y19160   4.064   5.092   7.981  0.9703 -2.4392  1.8869
  169SAPE  C31319161   3.998   5.147   8.186  0.0696  0.2196  0.3760
  169SAPE  H13X19162   3.895   5.174   8.155  0.4529 -0.8077 -1.9958
  169SAPE  H13Y19163   4.026   5.211   8.273  1.4366 -0.7670  0.7018
  169SAPE  C31419164   3.995   5.001   8.239 -0.0147 -0.1135  0.0701
  169SAPE  H14X19165   3.929   4.999   8.329 -1.7408 -0.2840 -1.1488
  169SAPE  H14Y19166   4.093   4.956   8.265 -0.7152 -0.9365  1.4523
  169SAPE  C31519167   3.947   4.900   8.131  0.5037  0.1580 -0.7971
  169SAPE  H15X19168   4.034   4.880   8.065  0.8667  1.8973 -0.8909
  169SAPE  H15Y19169   3.866   4.941   8.068 -0.5338 -1.0808 -0.3031
  169SAPE  C31619170   3.903   4.754   8.187  0.0980 -0.4525  0.9098
  169SAPE  H16X19171   3.808   4.752   8.244 -1.0101 -0.7341 -0.8519
  169SAPE  H16Y19172   3.977   4.733   8.266  0.0885 -1.0499  0.7678
  169SAPE  C31719173   3.900   4.646   8.077  0.6800 -0.3064 -0.4712
  169SAPE  H17X19174   3.863   4.547   8.109  1.0509 -0.2460  0.1624
  169SAPE  H17Y19175   4.006   4.642   8.044  0.7315  1.2133 -0.5673
  169SAPE  C31819176   3.809   4.689   7.951  0.0470  0.9179 -0.3044
  169SAPE  H18X19177   3.714   4.733   7.987  0.3536  1.8435 -0.6054
  169SAPE  H18Y19178   3.790   4.611   7.874 -1.2428  1.0386 -0.1333
  169SAPE  H18Z19179   3.878   4.760   7.900  0.7112  0.0253 -0.6861
  170SAPE     N19180   4.656   0.734   6.044  0.0355  0.0928 -0.2517
  170SAPE   HN119181   4.753   0.761   6.016 -0.4892  1.0866 -1.1652
  170SAPE   HN219182   4.639   0.631   6.046 -2.2716  0.3856  2.8434
  170SAPE   HN319183   4.599   0.778   5.970 -0.7613  2.6901  1.7478
  170SAPE   C1219184   4.625   0.801   6.183  0.2781 -0.2684 -0.3024
  170SAPE  H12A19185   4.672   0.900   6.164  1.3263 -0.7697 -0.4108
  170SAPE  H12B19186   4.682   0.745   6.259  0.3317 -0.6555 -0.6288
  170SAPE   C1119187   4.475   0.797   6.213 -1.4120  0.4750 -0.7371
  170SAPE  H11A19188   4.463   0.851   6.309  1.8211 -0.3905  0.2739
  170SAPE  H11B19189   4.436   0.695   6.233 -1.4940  0.6336 -0.0787
  170SAPE     P19190   4.248   0.869   6.104  0.2151 -0.0966  0.0999
  170SAPE   O1319191   4.228   0.953   5.985 -0.8090  0.0668 -0.2702
  170SAPE   O1419192   4.199   0.731   6.089 -0.6875  0.5142  0.3831
  170SAPE   O1219193   4.403   0.864   6.118 -0.2505 -0.7418  0.4258
  170SAPE   O1119194   4.204   0.948   6.229  0.6115  0.2032  0.3459
  170SAPE    C119195   4.248   1.087   6.255 -0.0329  0.4153  0.4260
  170SAPE    HA19196   4.336   1.114   6.193 -0.3068 -2.4884 -1.4436
  170SAPE    HB19197   4.162   1.152   6.227  1.1141  2.1518  0.7555
  170SAPE    C219198   4.269   1.124   6.402 -0.5425  0.0540 -0.1904
  170SAPE    HS19199   4.319   1.222   6.390 -1.2640  0.4261 -0.2654
  170SAPE   O2119200   4.353   1.032   6.470 -0.0747 -0.2627  0.0759
  170SAPE   C2119201   4.426   1.088   6.566 -0.2417 -0.2228 -0.4009
  170SAPE   O2219202   4.430   1.206   6.597  0.0252 -0.3876  0.2572
  170SAPE   C2219203   4.512   0.984   6.623  0.5012 -0.0311 -0.4106
  170SAPE   H2R19204   4.465   0.912   6.693  1.2602 -1.0210 -0.8831
  170SAPE   H2S19205   4.552   0.919   6.542 -2.7955 -0.9213 -1.4469
  170SAPE    C319206   4.138   1.127   6.471  0.0052  0.2721 -0.2514
  170SAPE    HX19207   4.112   1.022   6.496  0.3560  0.1422 -0.4211
  170SAPE    HY19208   4.050   1.166   6.416 -0.5325  2.2399  1.8764
  170SAPE   O3119209   4.147   1.188   6.600  0.0962  0.1391 -0.2101
  170SAPE   C3119210   4.104   1.311   6.600  0.8054  0.0374 -0.9923
  170SAPE   O3219211   4.054   1.369   6.505 -0.4919 -0.6207  0.1201
  170SAPE   C3219212   4.127   1.372   6.736  0.2950 -0.0736 -0.3575
  170SAPE   H2X19213   4.093   1.478   6.735 -1.7494 -0.6774 -0.8520
  170SAPE   H2Y19214   4.236   1.389   6.747  0.3053  0.5775 -1.3745
  170SAPE   C2319215   4.641   1.024   6.695 -0.6519 -0.5239 -0.4579
  170SAPE   H3R19216   4.693   1.107   6.642  1.0536  0.3993  2.4169
  170SAPE   H3S19217   4.711   0.938   6.697 -0.9038 -0.8113 -2.2052
  170SAPE   C2419218   4.623   1.072   6.846 -0.0380  0.1408  0.1213
  170SAPE   H4R19219   4.531   1.133   6.842 -0.0770  0.0531 -2.2294
  170SAPE   H4S19220   4.700   1.150   6.865 -0.1257  0.6905 -1.5452
  170SAPE   C2519221   4.604   0.968   6.952 -0.4539  0.4083 -0.9917
  170SAPE   H5R19222   4.659   0.874   6.944 -3.8606 -1.9778  0.7718
  170SAPE   C2619223   4.523   0.985   7.056  0.2108 -0.1058  0.0734
  170SAPE   H6R19224   4.540   0.912   7.136  2.7975  0.2598 -0.0698
  170SAPE   C2719225   4.434   1.106   7.079  0.7759  1.0997 -0.0795
  170SAPE   H7R19226   4.375   1.091   7.172 -0.0976  1.2623 -0.5936
  170SAPE   H7S19227   4.355   1.110   7.001 -0.2226  2.3635  0.9376
  170SAPE   C2819228   4.506   1.240   7.079 -0.0941  0.0536  0.9045
  170SAPE   H8R19229   4.529   1.280   6.979 -0.8668 -0.3976  0.5399
  170SAPE   C2919230   4.521   1.327   7.182 -0.5238 -0.6507  0.1078
  170SAPE   H9R19231   4.582   1.416   7.165 -0.8190 -0.6348 -0.8905
  170SAPE  C21019232   4.492   1.302   7.330  0.5554  0.4645 -0.0511
  170SAPE  H10R19233   4.554   1.216   7.363 -0.4234  0.2488  1.3237
  170SAPE  H10S19234   4.389   1.261   7.332  0.3861  0.7380 -1.6803
  170SAPE  C21119235   4.524   1.415   7.421  0.1851 -0.0976  0.2616
  170SAPE  H11R19236   4.625   1.458   7.409 -0.1313  0.6875  0.3796
  170SAPE  C21219237   4.444   1.470   7.512  0.5110  0.1525  0.2114
  170SAPE  H12R19238   4.475   1.562   7.564 -0.7381  0.1062  1.0909
  170SAPE  C21319239   4.308   1.422   7.556 -0.6128 -0.3415 -0.9562
  170SAPE  H13R19240   4.320   1.320   7.599 -1.2480  0.4984  1.3720
  170SAPE  H13S19241   4.241   1.425   7.467 -1.3116  1.7503 -0.4179
  170SAPE  C21419242   4.253   1.517   7.664  0.4136 -0.1074  1.4314
  170SAPE  H14R19243   4.232   1.616   7.621 -0.7494 -0.6398  0.7596
  170SAPE  C21519244   4.194   1.484   7.782  0.1378 -0.2909 -0.2984
  170SAPE  H15R19245   4.166   1.572   7.842 -1.1885  0.2840 -1.6751
  170SAPE  C21619246   4.193   1.350   7.837 -0.1475  0.4790 -0.1589
  170SAPE  H16R19247   4.297   1.314   7.852 -0.8514 -1.0066  1.5166
  170SAPE  H16S19248   4.142   1.284   7.764  0.0156  0.4487 -0.2464
  170SAPE  C21719249   4.129   1.334   7.974  0.5680 -0.7044  0.8506
  170SAPE  H17R19250   4.113   1.225   7.991 -1.3697 -0.8071 -1.1534
  170SAPE  H17S19251   4.026   1.376   7.976  0.9046  0.5674 -2.8069
  170SAPE  C21819252   4.206   1.406   8.095  0.6942  0.7135 -0.2343
  170SAPE  H18R19253   4.221   1.514   8.069  3.2216  0.7165  0.9716
  170SAPE  H18S19254   4.300   1.348   8.106  1.3798  1.0653 -3.1862
  170SAPE  C21919255   4.120   1.390   8.221  0.0099  0.1300  0.1318
  170SAPE  H19R19256   4.124   1.281   8.244  0.3912  0.4144  1.5119
  170SAPE  H19S19257   4.015   1.414   8.192  0.2541  1.9312  0.6336
  170SAPE  C22019258   4.151   1.479   8.344 -0.5232 -0.6002  0.9787
  170SAPE  H20R19259   4.257   1.458   8.371  0.7730  4.1224  0.5067
  170SAPE  H20S19260   4.071   1.459   8.418  0.6339 -1.7242  1.9823
  170SAPE  H20T19261   4.152   1.587   8.317 -0.5781 -0.9800 -0.6205
  170SAPE   C3319262   4.073   1.299   6.863  0.1526 -0.2260  0.1692
  170SAPE   H3X19263   4.119   1.198   6.854  1.3453  0.2195  1.0238
  170SAPE   H3Y19264   3.964   1.281   6.874 -0.2211  2.1050  0.8610
  170SAPE   C3419265   4.141   1.363   6.991  0.1430  0.1714 -0.8954
  170SAPE   H4X19266   4.096   1.462   7.014  1.0309  0.3673  0.1073
  170SAPE   H4Y19267   4.249   1.383   6.969  0.2421 -0.6030 -1.1443
  170SAPE   C3519268   4.128   1.282   7.122  0.4911 -0.0858  0.4306
  170SAPE   H5X19269   4.197   1.335   7.191 -0.0982  2.2904 -0.6903
  170SAPE   H5Y19270   4.158   1.177   7.106 -1.0668 -0.5443  0.3207
  170SAPE   C3619271   3.986   1.284   7.182  0.3647  0.7135 -0.3135
  170SAPE   H6X19272   3.909   1.242   7.113 -1.1538 -0.1308  1.8071
  170SAPE   H6Y19273   3.968   1.392   7.201  1.4768  1.0167 -0.8850
  170SAPE   C3719274   3.990   1.215   7.325 -0.1605 -0.1735  0.4744
  170SAPE   H7X19275   4.087   1.227   7.378 -0.6375  2.5481  0.8828
  170SAPE   H7Y19276   3.971   1.108   7.306  0.0187 -0.3761  1.3960
  170SAPE   C3819277   3.879   1.272   7.419  0.0747  0.8536 -0.3098
  170SAPE   H8X19278   3.861   1.190   7.491  0.6327  0.8222 -0.2013
  170SAPE   H8Y19279   3.782   1.274   7.364 -0.7827 -1.1265  0.9928
  170SAPE   C3919280   3.902   1.394   7.505 -0.1018  0.6101  0.4362
  170SAPE   H9X19281   3.933   1.484   7.449 -0.3269  0.6856  0.4290
  170SAPE   H9Y19282   3.992   1.379   7.569 -1.3266  0.5691  2.2367
  170SAPE  C31019283   3.780   1.412   7.589 -0.9993 -0.2237 -0.1478
  170SAPE  H10X19284   3.749   1.309   7.617  0.3262 -0.1379  1.8524
  170SAPE  H10Y19285   3.702   1.464   7.529  1.0242  3.9079  0.3962
  170SAPE  C31119286   3.806   1.500   7.707  0.0365  0.3933 -0.0231
  170SAPE  H11X19287   3.819   1.608   7.682 -0.4204  0.6148  0.6756
  170SAPE  H11Y19288   3.901   1.470   7.756 -0.7720 -0.8901  0.8102
  170SAPE  C31219289   3.692   1.497   7.805  0.2025  0.4873 -0.2262
  170SAPE  H12X19290   3.720   1.436   7.894 -0.4446 -1.3306 -1.2102
  170SAPE  H12Y19291   3.600   1.453   7.759  0.5044 -2.1445  1.4838
  170SAPE  C31319292   3.648   1.632   7.862 -0.4201 -0.0000 -0.2853
  170SAPE  H13X19293   3.557   1.613   7.922  0.5644  0.3006  1.3628
  170SAPE  H13Y19294   3.630   1.706   7.780  1.3843  0.7595 -0.0560
  170SAPE  C31419295   3.754   1.693   7.958  0.4689  0.0842 -0.2125
  170SAPE  H14X19296   3.759   1.798   7.924 -1.0560 -0.2237 -1.4527
  170SAPE  H14Y19297   3.854   1.646   7.947  0.0362 -1.4841  1.7935
  170SAPE  C31519298   3.713   1.674   8.110  0.6173  0.1558 -0.6152
  170SAPE  H15X19299   3.621   1.733   8.133  0.0910 -0.4264 -1.1812
  170SAPE  H15Y19300   3.795   1.714   8.172 -0.0083  0.2536  0.1693
  170SAPE  C31619301   3.687   1.523   8.144 -0.5076 -0.8625 -0.5048
  170SAPE  H16X19302   3.775   1.467   8.107  1.4184  0.8902  1.1726
  170SAPE  H16Y19303   3.603   1.484   8.082  0.1644 -1.0791 -1.2957
  170SAPE  C31719304   3.639   1.496   8.290 -0.3905 -0.7202 -0.4512
  170SAPE  H17X19305   3.718   1.509   8.366 -1.5258 -2.2903  1.0782
  170SAPE  H17Y19306   3.604   1.391   8.284  1.0934 -1.6397  4.0140
  170SAPE  C31819307   3.522   1.576   8.332  0.2792  0.9048 -1.1604
  170SAPE  H18X19308   3.542   1.684   8.342 -2.0252  1.3371 -0.7980
  170SAPE  H18Y19309   3.488   1.536   8.430 -0.9812  2.3145 -0.9874
  170SAPE  H18Z19310   3.432   1.558   8.269 -0.3926 -0.6341  0.1514
  171SAPE     N19311   5.268   3.048   5.874 -0.2935  0.0927  0.1753
  171SAPE   HN119312   5.296   2.949   5.860 -0.9647  0.0983 -1.4878
  171SAPE   HN219313   5.194   3.058   5.947  1.5739 -0.5890  2.2625
  171SAPE   HN319314   5.234   3.083   5.781 -0.7677 -1.3467 -0.2177
  171SAPE   C1219315   5.387   3.129   5.920 -0.4980  0.4653  0.8824
  171SAPE  H12A19316   5.380   3.149   6.029  0.2351  1.4983  0.7486
  171SAPE  H12B19317   5.392   3.219   5.856  3.5455  0.6531  1.2134
  171SAPE   C1119318   5.515   3.046   5.890  0.1715  0.3389  0.1532
  171SAPE  H11A19319   5.526   3.012   5.785  1.6266 -1.8067  0.9375
  171SAPE  H11B19320   5.507   2.954   5.952  1.8384 -0.4848 -0.8148
  171SAPE     P19321   5.693   3.149   6.065  0.0915 -0.0857  0.7435
  171SAPE   O1319322   5.762   3.022   6.104  0.6100  0.3378  0.0081
  171SAPE   O1419323   5.767   3.277   6.075 -0.1380 -0.6485 -0.0128
  171SAPE   O1219324   5.623   3.131   5.921 -0.1562 -0.3172  0.1319
  171SAPE   O1119325   5.565   3.153   6.165 -0.1561 -0.2371 -0.2024
  171SAPE    C119326   5.558   3.278   6.248 -0.9315 -0.0666 -0.5599
  171SAPE    HA19327   5.580   3.374   6.197  2.5687 -0.2654  0.3213
  171SAPE    HB19328   5.455   3.282   6.290  0.0681 -2.1514  2.3975
  171SAPE    C219329   5.649   3.271   6.376  0.4289  0.1187  0.2657
  171SAPE    HS19330   5.747   3.234   6.340 -0.7616 -2.1405 -0.9085
  171SAPE   O2119331   5.588   3.181   6.470 -0.2585  0.1919  0.2090
  171SAPE   C2119332   5.674   3.104   6.528 -0.0897  0.7337 -0.1810
  171SAPE   O2219333   5.792   3.105   6.509 -0.0693  0.0950  0.3326
  171SAPE   C2219334   5.593   3.013   6.619 -0.0983 -0.7497  0.5059
  171SAPE   H2R19335   5.505   3.063   6.665 -0.8311 -1.5855  0.0420
  171SAPE   H2S19336   5.557   2.924   6.563  1.7312 -0.6656 -0.8819
  171SAPE    C319337   5.671   3.410   6.443  0.0848 -0.1000  0.3707
  171SAPE    HX19338   5.575   3.465   6.456 -0.2372  0.2535 -2.6987
  171SAPE    HY19339   5.723   3.480   6.374  1.3457 -1.2191  0.1498
  171SAPE   O3119340   5.742   3.402   6.569  0.3334  0.6147  0.2014
  171SAPE   C3119341   5.874   3.407   6.551  0.0167 -0.4310 -0.5253
  171SAPE   O3219342   5.937   3.419   6.450 -0.4884 -0.0821  0.3165
  171SAPE   C3219343   5.950   3.402   6.683  0.2789 -0.0941 -1.1577
  171SAPE   H2X19344   5.967   3.507   6.715  0.4771 -0.7425  1.0303
  171SAPE   H2Y19345   6.049   3.353   6.677  0.6813  0.7640 -1.5465
  171SAPE   C2319346   5.689   2.968   6.731 -0.1828 -0.3823  0.2225
  171SAPE   H3R19347   5.738   3.050   6.788  0.1567 -0.1143 -0.4426
  171SAPE   H3S19348   5.754   2.896   6.677 -1.1327 -0.6530 -0.5720
  171SAPE   C2419349   5.625   2.897   6.847 -0.2281  0.2186 -0.1145
  171SAPE   H4R19350   5.548   2.825   6.810 -0.4664  0.5777 -0.3184
  171SAPE   H4S19351   5.549   2.955   6.903 -0.0242 -1.5479  2.1350
  171SAPE   C2519352   5.703   2.814   6.948  0.6780 -0.2862 -1.1462
  171SAPE   H5R19353   5.777   2.747   6.902  0.2158 -1.4044 -0.3130
  171SAPE   C2619354   5.677   2.784   7.079 -0.5052 -0.7979 -0.5031
  171SAPE   H6R19355   5.738   2.710   7.132  0.2241  0.4918  0.5389
  171SAPE   C2719356   5.579   2.852   7.169 -0.1389 -0.0499 -0.0116
  171SAPE   H7R19357   5.491   2.788   7.192 -1.0077  1.6575  1.7314
  171SAPE   H7S19358   5.536   2.940   7.115  1.1616  0.4713 -0.2343
  171SAPE   C2819359   5.652   2.893   7.291  0.2334 -0.6663 -0.2201
  171SAPE   H8R19360   5.684   2.998   7.296  2.5315 -1.2892 -0.7700
  171SAPE   C2919361   5.676   2.827   7.404 -1.3288  0.1244 -0.4320
  171SAPE   H9R19362   5.747   2.867   7.477  1.2887 -2.2037 -1.5366
  171SAPE  C21019363   5.630   2.689   7.436 -0.7751  0.1982 -0.4429
  171SAPE  H10R19364   5.713   2.618   7.450 -0.4100  0.3372 -1.7812
  171SAPE  H10S19365   5.565   2.659   7.351 -1.2406  0.4194 -0.1717
  171SAPE  C21119366   5.549   2.711   7.559 -0.2910  0.2701 -0.1572
  171SAPE  H11R19367   5.442   2.730   7.546 -0.0453  0.5037 -2.0707
  171SAPE  C21219368   5.581   2.671   7.686 -0.2009  0.0650 -0.2156
  171SAPE  H12R19369   5.526   2.708   7.774  0.9856  0.3297  0.4336
  171SAPE  C21319370   5.716   2.615   7.720 -0.2905  0.5381 -0.0559
  171SAPE  H13R19371   5.776   2.575   7.635  0.5404  1.1191  0.2394
  171SAPE  H13S19372   5.692   2.526   7.781  1.1800 -1.7554 -2.5976
  171SAPE  C21419373   5.800   2.717   7.798 -0.4292  0.4600  0.0049
  171SAPE  H14R19374   5.833   2.800   7.734  0.8776  0.5627  0.7689
  171SAPE  C21519375   5.827   2.721   7.932 -0.8095  0.2426 -0.2284
  171SAPE  H15R19376   5.892   2.803   7.967  1.6667 -2.3153  1.6675
  171SAPE  C21619377   5.778   2.625   8.035  0.3533 -0.3810  1.4106
  171SAPE  H16R19378   5.864   2.580   8.089  0.8433 -1.5941 -0.2915
  171SAPE  H16S19379   5.728   2.535   7.995  2.4170 -0.7023 -0.6900
  171SAPE  C21719380   5.677   2.686   8.137 -0.0394 -0.2819 -0.1814
  171SAPE  H17R19381   5.717   2.764   8.205 -4.4514  0.6451  1.6340
  171SAPE  H17S19382   5.664   2.604   8.211  1.4291 -1.2948 -0.9925
  171SAPE  C21819383   5.545   2.723   8.078  0.0192  1.0071 -0.3075
  171SAPE  H18R19384   5.476   2.682   8.155  0.4458  0.6334 -0.1185
  171SAPE  H18S19385   5.519   2.659   7.991  0.5633  0.2068  0.1090
  171SAPE  C21919386   5.518   2.864   8.036 -0.3265  0.0002  0.3528
  171SAPE  H19R19387   5.604   2.918   7.990 -0.2411 -1.0793 -0.8057
  171SAPE  H19S19388   5.501   2.923   8.128  2.6845 -0.7752  1.5156
  171SAPE  C22019389   5.387   2.880   7.957  0.7779 -0.6590  0.0196
  171SAPE  H20R19390   5.301   2.869   8.026  1.2173  0.9384  0.8694
  171SAPE  H20S19391   5.371   2.820   7.865  0.0711  1.4231 -1.2928
  171SAPE  H20T19392   5.380   2.986   7.925 -1.9759 -0.6767  0.3352
  171SAPE   C3319393   5.864   3.317   6.786 -0.3375 -0.3183 -0.3193
  171SAPE   H3X19394   5.856   3.212   6.750 -3.1651 -0.1211 -0.4403
  171SAPE   H3Y19395   5.762   3.352   6.810 -1.3441 -1.3759 -2.7687
  171SAPE   C3419396   5.945   3.313   6.927 -0.8275  0.1842  0.6197
  171SAPE   H4X19397   6.031   3.243   6.921 -1.6038 -1.0188  2.4566
  171SAPE   H4Y19398   5.882   3.256   6.999  0.3344 -1.4137  0.4291
  171SAPE   C3519399   5.991   3.440   6.988 -0.4839 -0.0070  0.3501
  171SAPE   H5X19400   5.913   3.519   6.988  0.3545  0.8441  1.1566
  171SAPE   H5Y19401   6.072   3.472   6.918 -0.4481 -3.0316 -1.1499
  171SAPE   C3619402   6.056   3.419   7.125  0.5220 -1.0512 -0.7446
  171SAPE   H6X19403   6.137   3.344   7.112  1.2829 -0.3646 -0.0390
  171SAPE   H6Y19404   5.977   3.389   7.198 -2.0306  1.4603 -2.2533
  171SAPE   C3719405   6.127   3.544   7.180  0.0668 -0.1188  0.2789
  171SAPE   H7X19406   6.070   3.638   7.195  2.6910  1.7107 -0.3724
  171SAPE   H7Y19407   6.214   3.550   7.111  0.8466  0.3483  1.2832
  171SAPE   C3819408   6.197   3.512   7.316  0.2593  0.3253  0.1413
  171SAPE   H8X19409   6.288   3.576   7.322  0.8165 -0.4787  0.4178
  171SAPE   H8Y19410   6.227   3.405   7.314 -0.0623  0.2396 -0.9716
  171SAPE   C3919411   6.099   3.538   7.433 -0.2850 -0.6555 -0.1661
  171SAPE   H9X19412   6.004   3.479   7.433 -0.5926 -0.1627 -0.0135
  171SAPE   H9Y19413   6.076   3.644   7.409  2.4349  0.2249  0.7062
  171SAPE  C31019414   6.166   3.533   7.571 -0.4117  0.1852  0.4030
  171SAPE  H10X19415   6.100   3.590   7.639  2.3779  2.0599  1.7041
  171SAPE  H10Y19416   6.257   3.595   7.554 -0.5771  1.3281  3.1922
  171SAPE  C31119417   6.197   3.396   7.619 -0.5166 -0.1258  0.7961
  171SAPE  H11X19418   6.297   3.369   7.581 -0.9334 -1.8469  0.8467
  171SAPE  H11Y19419   6.125   3.323   7.576  0.3031 -0.6523  0.2913
  171SAPE  C31219420   6.193   3.387   7.772 -0.1114  0.4408  0.1957
  171SAPE  H12X19421   6.091   3.364   7.810  0.0156  1.1217  0.9599
  171SAPE  H12Y19422   6.219   3.482   7.823 -0.5074 -0.1666  1.5680
  171SAPE  C31319423   6.284   3.279   7.830 -0.6159 -0.2518  0.1940
  171SAPE  H13X19424   6.392   3.305   7.830 -0.5917 -0.2855 -1.4580
  171SAPE  H13Y19425   6.276   3.185   7.771 -1.4101 -0.0724  0.0059
  171SAPE  C31419426   6.244   3.239   7.970 -0.0868  0.3033 -0.4974
  171SAPE  H14X19427   6.271   3.132   7.981 -2.0240 -0.2381 -0.5597
  171SAPE  H14Y19428   6.134   3.241   7.985 -0.1480  2.5200 -0.8504
  171SAPE  C31519429   6.343   3.298   8.078 -0.4687  0.2897  0.4338
  171SAPE  H15X19430   6.297   3.392   8.115 -1.7209 -0.1217 -0.0139
  171SAPE  H15Y19431   6.443   3.316   8.033 -1.4873  0.1182 -2.0640
  171SAPE  C31619432   6.362   3.225   8.204  0.1356  0.1122  0.0018
  171SAPE  H16X19433   6.417   3.130   8.185  2.3294  0.7642  2.5339
  171SAPE  H16Y19434   6.261   3.196   8.241  0.1257  0.2461  0.0800
  171SAPE  C31719435   6.447   3.313   8.304  0.8863  0.8598 -0.3013
  171SAPE  H17X19436   6.400   3.408   8.336 -0.0407  0.1268  0.5526
  171SAPE  H17Y19437   6.546   3.338   8.260  0.1348  0.9347 -2.0471
  171SAPE  C31819438   6.467   3.238   8.435 -0.3822 -0.8158  0.4886
  171SAPE  H18X19439   6.523   3.145   8.413  2.0193  0.5764  0.4681
  171SAPE  H18Y19440   6.365   3.217   8.476 -1.8121  2.3251 -1.1073
  171SAPE  H18Z19441   6.531   3.296   8.503  1.1633 -2.5923  0.6195
  172SAPE     N19442   4.260   2.208   6.617 -0.0727 -0.3252  0.1550
  172SAPE   HN119443   4.161   2.222   6.587  0.4673  0.0362 -1.5627
  172SAPE   HN219444   4.276   2.274   6.695 -1.0142  0.9042 -0.6686
  172SAPE   HN319445   4.325   2.215   6.537  0.8530 -0.5502  0.8690
  172SAPE   C1219446   4.271   2.063   6.661  0.4583  0.0630  0.2647
  172SAPE  H12A19447   4.232   1.998   6.579 -0.0933 -1.0875  1.4152
  172SAPE  H12B19448   4.218   2.064   6.758 -0.5871 -0.7041 -0.2843
  172SAPE   C1119449   4.419   2.025   6.672 -0.6113  0.0778  0.2295
  172SAPE  H11A19450   4.461   2.040   6.570  1.9931 -0.8590  1.0710
  172SAPE  H11B19451   4.428   1.915   6.680 -0.4665  0.0732  0.0410
  172SAPE     P19452   4.653   2.096   6.750  0.0796  0.1820  0.2482
  172SAPE   O1319453   4.690   2.028   6.628 -0.4488  0.2528  0.1225
  172SAPE   O1419454   4.694   2.242   6.754 -0.8589  0.2750 -0.0636
  172SAPE   O1219455   4.496   2.094   6.776 -0.1076 -0.3723 -0.1074
  172SAPE   O1119456   4.714   2.021   6.868 -0.4620  0.4740 -0.5157
  172SAPE    C119457   4.719   1.881   6.892  0.2968  0.8718 -0.3030
  172SAPE    HA19458   4.708   1.820   6.799 -1.1856  0.6996 -0.0447
  172SAPE    HB19459   4.817   1.844   6.928  0.2438  1.0492  0.0205
  172SAPE    C219460   4.594   1.844   6.979  0.8116  0.5482 -0.5109
  172SAPE    HS19461   4.502   1.899   6.948 -0.0208  0.5898  1.8211
  172SAPE   O2119462   4.633   1.871   7.118  0.1787  0.3647  0.6498
  172SAPE   C2119463   4.581   1.967   7.179  0.1501 -0.4610  0.2433
  172SAPE   O2219464   4.486   2.039   7.139 -0.1395  0.3705 -0.7527
  172SAPE   C2219465   4.645   1.982   7.315  0.1813 -0.6849  0.1729
  172SAPE   H2R19466   4.732   1.916   7.333  2.2739  1.8962  0.1559
  172SAPE   H2S19467   4.681   2.087   7.324 -1.8712 -0.0450  1.8553
  172SAPE    C319468   4.557   1.698   6.965  0.1451  0.1195  0.3567
  172SAPE    HX19469   4.650   1.640   6.982 -0.9281 -0.8885  3.3871
  172SAPE    HY19470   4.513   1.669   6.866 -1.5424 -1.0533  1.3919
  172SAPE   O3119471   4.473   1.655   7.074 -0.3240  0.4255  0.2316
  172SAPE   C3119472   4.346   1.702   7.076  0.5991  0.0099 -0.0276
  172SAPE   O3219473   4.297   1.762   6.981  0.1194 -0.0660 -0.5995
  172SAPE   C3219474   4.264   1.657   7.202 -0.6206  0.3359  0.7058
  172SAPE   H2X19475   4.336   1.663   7.286  0.2448 -1.8055  0.1916
  172SAPE   H2Y19476   4.245   1.549   7.186 -0.3860  0.1214  1.8491
  172SAPE   C2319477   4.542   1.947   7.422 -0.4860  0.6388  0.2604
  172SAPE   H3R19478   4.501   1.845   7.402  1.4178 -0.3804  1.2054
  172SAPE   H3S19479   4.457   2.017   7.408 -2.2147 -1.7113 -1.8841
  172SAPE   C2419480   4.603   1.961   7.563 -0.2514  0.4731 -0.2321
  172SAPE   H4R19481   4.648   2.063   7.563 -1.3415  0.9679  0.0283
  172SAPE   H4S19482   4.678   1.882   7.582 -1.6460 -0.9642 -0.5027
  172SAPE   C2519483   4.487   1.958   7.658 -0.4294  0.3173  0.3448
  172SAPE   H5R19484   4.401   2.016   7.621  0.1539  0.8882 -0.1559
  172SAPE   C2619485   4.496   1.927   7.787  0.4096 -0.0801  0.0387
  172SAPE   H6R19486   4.403   1.942   7.845  1.2063  2.5594  0.7655
  172SAPE   C2719487   4.612   1.864   7.862 -0.0019 -0.1461 -0.7096
  172SAPE   H7R19488   4.687   1.828   7.789 -2.0038 -4.8444 -0.8453
  172SAPE   H7S19489   4.571   1.775   7.915 -0.7100 -0.3937 -1.6445
  172SAPE   C2819490   4.679   1.966   7.947 -0.4543 -0.1780  0.5607
  172SAPE   H8R19491   4.715   2.058   7.898  0.3621 -0.3593  0.8225
  172SAPE   C2919492   4.674   1.974   8.079 -0.3563  0.3977  0.6712
  172SAPE   H9R19493   4.713   2.061   8.134  2.8722 -0.4915 -0.0048
  172SAPE  C21019494   4.633   1.859   8.172 -0.2186  0.2810  0.3168
  172SAPE  H10R19495   4.720   1.802   8.209 -0.4226 -0.2556 -0.0099
  172SAPE  H10S19496   4.564   1.785   8.125 -1.8102  2.5044 -1.0825
  172SAPE  C21119497   4.557   1.916   8.285 -0.3143 -0.3627 -0.8316
  172SAPE  H11R19498   4.448   1.930   8.274 -0.1493  2.3817  0.2324
  172SAPE  C21219499   4.615   1.977   8.393 -0.2667 -0.4103  0.0720
  172SAPE  H12R19500   4.554   2.015   8.476  1.8203  2.2734  0.4850
  172SAPE  C21319501   4.765   2.004   8.400 -1.0652 -0.1180  0.4844
  172SAPE  H13R19502   4.812   1.954   8.312  1.0776  1.1307  0.8518
  172SAPE  H13S19503   4.796   1.965   8.499 -0.7442  2.0514  1.3027
  172SAPE  C21419504   4.809   2.149   8.393 -0.6435  0.0298  0.2212
  172SAPE  H14R19505   4.737   2.218   8.348 -0.6223  0.5242  0.9146
  172SAPE  C21519506   4.927   2.197   8.445  0.0418 -0.5153 -0.2883
  172SAPE  H15R19507   4.952   2.303   8.426 -0.0582 -0.4785 -0.2117
  172SAPE  C21619508   5.041   2.113   8.499 -0.4127 -0.0849  0.7024
  172SAPE  H16R19509   5.115   2.084   8.421 -0.5744  0.4191  0.3597
  172SAPE  H16S19510   5.011   2.023   8.557  1.0578 -2.1716 -1.5795
  172SAPE  C21719511   5.133   2.181   8.605  0.3866  0.1253  0.6065
  172SAPE  H17R19512   5.081   2.206   8.701 -1.8048  0.4276 -0.5997
  172SAPE  H17S19513   5.174   2.277   8.565  0.5341 -0.3060 -0.2972
  172SAPE  C21819514   5.248   2.078   8.646  0.3569 -0.5212  0.3255
  172SAPE  H18R19515   5.206   1.982   8.683  2.2116 -1.2078  0.7604
  172SAPE  H18S19516   5.308   2.121   8.729  0.6895 -0.1181 -0.1174
  172SAPE  C21919517   5.331   2.037   8.527 -0.7069 -0.5395  0.1250
  172SAPE  H19R19518   5.381   2.126   8.483 -1.5665 -0.5299 -0.8726
  172SAPE  H19S19519   5.274   1.979   8.451 -0.2474 -0.2674 -0.4318
  172SAPE  C22019520   5.449   1.946   8.567 -0.0599  0.2904  0.4969
  172SAPE  H20R19521   5.506   1.992   8.650 -1.3784  0.4853  1.3398
  172SAPE  H20S19522   5.519   1.924   8.483 -2.2399 -3.2459 -0.6467
  172SAPE  H20T19523   5.408   1.849   8.605 -0.1963 -0.2426 -0.9245
  172SAPE   C3319524   4.125   1.712   7.218  0.3720 -0.1397 -0.5191
  172SAPE   H3X19525   4.069   1.667   7.303 -0.4917 -2.0946 -2.0377
  172SAPE   H3Y19526   4.074   1.684   7.123 -0.9269  1.1514 -0.2276
  172SAPE   C3419527   4.120   1.867   7.237  0.2420 -0.7408 -0.4803
  172SAPE   H4X19528   4.018   1.908   7.216  0.2674 -0.2249  0.3507
  172SAPE   H4Y19529   4.184   1.905   7.155  1.4309  0.9225  1.1344
  172SAPE   C3519530   4.159   1.922   7.378 -0.5086 -0.1193  0.5717
  172SAPE   H5X19531   4.172   2.031   7.363 -2.1663  0.2437  1.4926
  172SAPE   H5Y19532   4.254   1.866   7.393  0.8758  0.9593 -3.0029
  172SAPE   C3619533   4.065   1.886   7.488 -0.2305  0.3474  0.0283
  172SAPE   H6X19534   4.078   1.776   7.499  2.4158  0.3199 -2.1881
  172SAPE   H6Y19535   3.960   1.916   7.469 -0.1338  0.7783  0.1658
  172SAPE   C3719536   4.090   1.956   7.619  0.4642  0.2092  0.4301
  172SAPE   H7X19537   4.074   2.064   7.601  0.8274 -0.0694 -1.9282
  172SAPE   H7Y19538   4.192   1.929   7.654  0.7792  1.8785  0.8956
  172SAPE   C3819539   3.995   1.912   7.730 -0.2315 -0.1454  0.0331
  172SAPE   H8X19540   3.941   1.818   7.706  0.5487 -0.2180 -1.5194
  172SAPE   H8Y19541   3.929   2.000   7.745  0.3339  0.1264  1.0197
  172SAPE   C3919542   4.070   1.890   7.863  0.3793 -0.1935  0.5504
  172SAPE   H9X19543   4.148   1.812   7.847 -1.4776 -1.9337 -0.4322
  172SAPE   H9Y19544   4.009   1.850   7.947 -0.8982 -1.6832 -1.0185
  172SAPE  C31019545   4.122   2.029   7.918  0.8244  0.2161 -0.4905
  172SAPE  H10X19546   4.033   2.088   7.946 -1.2235 -1.7766 -2.4224
  172SAPE  H10Y19547   4.183   2.081   7.841  0.0703  0.8379 -0.6778
  172SAPE  C31119548   4.207   2.016   8.045 -0.8360 -0.4776  0.8696
  172SAPE  H11X19549   4.279   2.101   8.050 -2.7623  1.3285 -0.5370
  172SAPE  H11Y19550   4.273   1.927   8.037 -0.3892 -0.0215 -0.8986
  172SAPE  C31219551   4.120   2.010   8.171 -0.6497 -0.0814 -0.2668
  172SAPE  H12X19552   4.047   1.926   8.170 -2.0092  1.0084  1.4395
  172SAPE  H12Y19553   4.053   2.099   8.172  0.1575  0.5564 -0.7521
  172SAPE  C31319554   4.194   1.995   8.306 -0.0970  0.3440 -0.4221
  172SAPE  H13X19555   4.274   2.072   8.312  0.2652  0.0693 -1.4281
  172SAPE  H13Y19556   4.251   1.899   8.307 -0.7047 -0.0105  0.1676
  172SAPE  C31419557   4.100   1.981   8.428  0.3541 -0.5192 -0.2967
  172SAPE  H14X19558   4.014   1.915   8.403  1.3048 -2.1148  0.5027
  172SAPE  H14Y19559   4.070   2.088   8.436 -2.5302 -1.3137  0.8281
  172SAPE  C31519560   4.178   1.921   8.546  0.1250 -0.0942  0.4578
  172SAPE  H15X19561   4.119   1.951   8.636  0.1257  1.2442  0.0356
  172SAPE  H15Y19562   4.274   1.978   8.547  1.1318 -1.5708 -2.0611
  172SAPE  C31619563   4.216   1.774   8.544  0.1114  0.0899 -0.2850
  172SAPE  H16X19564   4.279   1.751   8.456  2.1999 -1.3524  1.4587
  172SAPE  H16Y19565   4.118   1.722   8.542 -1.3847  2.6402  1.2923
  172SAPE  C31719566   4.294   1.735   8.671  0.2126  0.3539  0.0354
  172SAPE  H17X19567   4.371   1.810   8.698 -1.2148  1.8480  0.0835
  172SAPE  H17Y19568   4.345   1.643   8.634 -1.0006 -1.0780  1.7125
  172SAPE  C31819569   4.208   1.691   8.792 -0.4050  0.4885  0.3163
  172SAPE  H18X19570   4.273   1.660   8.877 -0.7894 -0.2949  0.3349
  172SAPE  H18Y19571   4.125   1.621   8.766  1.0565 -1.7252  1.2774
  172SAPE  H18Z19572   4.160   1.782   8.834  0.4585 -0.1241  2.8142
  173SOPE     N19573   1.856   5.597  10.680 -0.2193  0.3712  0.7165
  173SOPE   HN119574   1.915   5.587  10.595 -1.1800  0.5161  0.0206
  173SOPE   HN219575   1.824   5.696  10.688 -3.9796 -0.7724  1.3594
  173SOPE   HN319576   1.923   5.585  10.759 -1.3300 -1.3410  1.4446
  173SOPE   C1219577   1.741   5.500  10.684 -0.1823  0.2392 -0.0458
  173SOPE  H12A19578   1.663   5.535  10.613  1.6643  3.0569 -0.8479
  173SOPE  H12B19579   1.689   5.509  10.782  1.1977  2.7080  0.5344
  173SOPE   C1119580   1.792   5.356  10.673  0.2040  0.9561 -0.4809
  173SOPE  H11A19581   1.712   5.284  10.703 -0.2792  1.6385 -0.1032
  173SOPE  H11B19582   1.877   5.348  10.744  1.0984  0.3511 -1.5788
  173SOPE     P19583   1.761   5.318  10.416 -0.0950  0.2903  0.3730
  173SOPE   O1319584   1.829   5.218  10.333  0.3469  0.4191 -0.3449
  173SOPE   O1419585   1.741   5.455  10.368 -0.1097  0.3596 -0.1358
  173SOPE   O1219586   1.842   5.329  10.546 -0.3600 -0.4041  0.7921
  173SOPE   O1119587   1.618   5.267  10.456 -0.7522  0.3032 -0.0531
  173SOPE    C119588   1.572   5.130  10.430  0.2295 -0.9195 -0.4659
  173SOPE    HA19589   1.490   5.104  10.501 -1.4474  0.7393 -1.6902
  173SOPE    HB19590   1.651   5.056  10.455  1.6321  1.1964  1.7917
  173SOPE    C219591   1.527   5.115  10.284  0.2165 -0.1445  0.4611
  173SOPE    HS19592   1.617   5.133  10.223  1.7038 -2.2048  1.9045
  173SOPE   O2119593   1.429   5.214  10.243  0.1596 -0.0037  0.0920
  173SOPE   C2119594   1.321   5.233  10.322 -0.5396 -0.2352  0.0772
  173SOPE   O2219595   1.288   5.168  10.417 -0.1630 -0.5324  0.2453
  173SOPE   C2219596   1.249   5.354  10.273  0.5331  0.2068  0.0175
  173SOPE   H2R19597   1.257   5.348  10.163 -2.9281  1.5894 -0.4478
  173SOPE   H2S19598   1.300   5.447  10.307 -1.6765  1.2183  0.7573
  173SOPE    C319599   1.496   4.971  10.244  0.0285 -0.4629  0.0331
  173SOPE    HX19600   1.420   4.921  10.309  0.2576 -1.4706 -0.4570
  173SOPE    HY19601   1.585   4.913  10.277  0.8184  0.0507 -1.1332
  173SOPE   O3119602   1.481   4.957  10.102  0.0594  0.0577  0.2552
  173SOPE   C3119603   1.358   4.970  10.059  0.2144  0.5802  0.4504
  173SOPE   O3219604   1.255   4.958  10.123  0.0473 -0.0914 -0.3431
  173SOPE   C3219605   1.360   4.996   9.911  0.3754 -0.3963 -0.2548
  173SOPE   H2X19606   1.372   4.893   9.870 -1.0110 -0.9691  0.6889
  173SOPE   H2Y19607   1.452   5.053   9.888  0.3238  0.2496  1.0468
  173SOPE   C2319608   1.094   5.358  10.310 -0.7087  0.8144 -0.3783
  173SOPE   H3R19609   1.097   5.384  10.418  4.7853 -0.9331  0.2326
  173SOPE   H3S19610   1.063   5.252  10.301  3.5098 -0.7170  0.4519
  173SOPE   C2419611   1.004   5.444  10.226 -0.2727 -0.2751  0.0339
  173SOPE   H4R19612   0.912   5.469  10.283 -0.7111 -1.2705 -0.2218
  173SOPE   H4S19613   1.045   5.545  10.203  0.9844 -0.6367  0.5553
  173SOPE   C2519614   0.973   5.362  10.098 -0.4924  0.7985  0.6875
  173SOPE   H5R19615   1.051   5.295  10.056  0.5969  0.9484  2.3489
  173SOPE   H5S19616   0.890   5.292  10.119 -0.5573  0.9357  0.8907
  173SOPE   C2619617   0.941   5.443   9.972  0.1995  0.2933  0.3192
  173SOPE   H6R19618   0.923   5.376   9.886  1.6016 -1.4149  1.2830
  173SOPE   H6S19619   0.851   5.501  10.000  1.0440  3.0275 -2.1415
  173SOPE   C2719620   1.049   5.548   9.929 -0.2100 -0.1668 -0.2442
  173SOPE   H7R19621   1.086   5.612  10.012 -2.5717 -3.9642  4.2252
  173SOPE   H7S19622   1.145   5.502   9.899  1.1372  2.3840 -0.1816
  173SOPE   C2819623   0.998   5.651   9.817  0.0484 -0.4202  0.4321
  173SOPE   H8R19624   0.963   5.576   9.742 -0.2228 -1.5010  1.6024
  173SOPE   H8S19625   0.906   5.701   9.853 -0.1791 -0.4610 -0.0746
  173SOPE   C2919626   1.098   5.744   9.760  0.1898  0.5251  0.1695
  173SOPE   H9119627   1.133   5.811   9.840  1.7326  0.2280 -0.2259
  173SOPE  C21019628   1.146   5.767   9.638 -0.0579 -0.1866  0.5866
  173SOPE  H10119629   1.215   5.852   9.628 -0.2769 -0.0793 -0.0919
  173SOPE  C21119630   1.120   5.677   9.517 -0.6986  0.7042  0.0580
  173SOPE  H11R19631   1.067   5.582   9.539  0.5485  0.1947  0.9756
  173SOPE  H11S19632   1.217   5.647   9.472 -0.5335 -0.1494  0.9433
  173SOPE  C21219633   1.041   5.755   9.416  0.2788 -0.0165  0.3253
  173SOPE  H12R19634   1.107   5.836   9.379 -2.2112  2.0683  0.1455
  173SOPE  H12S19635   0.953   5.799   9.469 -0.4425 -0.5133 -0.4307
  173SOPE  C21319636   0.995   5.675   9.297 -0.4017  0.1486  0.0837
  173SOPE  H13R19637   0.931   5.587   9.318  0.1488 -0.5951 -1.2030
  173SOPE  H13S19638   1.086   5.626   9.256 -2.2479 -2.7429 -0.8338
  173SOPE  C21419639   0.923   5.761   9.194  0.1593 -0.2511 -0.0978
  173SOPE  H14R19640   0.995   5.833   9.150 -1.3224  1.0377 -0.5058
  173SOPE  H14S19641   0.836   5.815   9.238 -1.4662 -1.7768 -1.2937
  173SOPE  C21519642   0.861   5.681   9.082 -0.6560 -0.0981 -0.0041
  173SOPE  H15R19643   0.774   5.717   9.023 -1.2345  0.1452  0.9772
  173SOPE  H15S19644   0.815   5.591   9.127  2.0550 -0.5951  2.0296
  173SOPE  C21619645   0.970   5.648   8.976 -1.3058  0.2826 -0.1143
  173SOPE  H16R19646   1.046   5.588   9.031 -2.4436  1.1373  2.5986
  173SOPE  H16S19647   1.020   5.739   8.936  0.9638 -0.2691  1.2942
  173SOPE  C21719648   0.915   5.549   8.871 -0.1699  0.1171 -0.0584
  173SOPE  H17R19649   0.820   5.598   8.839 -0.9444 -0.6904  0.9458
  173SOPE  H17S19650   0.884   5.454   8.919 -3.7411  1.8901  1.5236
  173SOPE  C21819651   1.013   5.523   8.751  0.3689 -0.1634  0.0165
  173SOPE  H18R19652   1.019   5.612   8.684 -1.4574 -1.0996 -1.4824
  173SOPE  H18S19653   0.980   5.430   8.699  0.9201 -0.7193  0.6454
  173SOPE  H18T19654   1.105   5.478   8.794  0.5234  0.9461  0.8836
  173SOPE   C3319655   1.236   5.062   9.867  0.3546 -1.2227  0.8509
  173SOPE   H3X19656   1.228   5.160   9.920 -1.3504 -0.8113 -0.1193
  173SOPE   H3Y19657   1.143   5.003   9.879 -0.2501 -0.4564  0.0336
  173SOPE   C3419658   1.236   5.110   9.723 -1.0150  0.9656  0.0513
  173SOPE   H4X19659   1.134   5.083   9.688 -0.2850 -3.2290  0.7202
  173SOPE   H4Y19660   1.308   5.044   9.671  0.5999  0.6757  2.5133
  173SOPE   C3519661   1.272   5.254   9.693  0.2738 -0.5873  0.3100
  173SOPE   H5X19662   1.378   5.268   9.723 -0.3593  0.9252  1.9545
  173SOPE   H5Y19663   1.208   5.318   9.757  2.1728 -0.3108  2.0181
  173SOPE   C3619664   1.252   5.311   9.548  0.2675 -0.6416 -0.0158
  173SOPE   H6X19665   1.289   5.416   9.550  0.4731 -0.7195  1.0698
  173SOPE   H6Y19666   1.145   5.307   9.519  0.1270 -0.2737  0.4395
  173SOPE   C3719667   1.322   5.234   9.435  0.0817 -0.4912 -0.1571
  173SOPE   H7X19668   1.284   5.130   9.445  2.0652 -1.4260 -1.6396
  173SOPE   H7Y19669   1.432   5.216   9.440  0.2351 -0.3544 -2.1669
  173SOPE   C3819670   1.306   5.290   9.295  0.4014 -0.0200 -0.5919
  173SOPE   H8X19671   1.353   5.390   9.287 -0.0306  0.3584  1.1229
  173SOPE   H8Y19672   1.197   5.310   9.284  0.4225  0.9790  0.7465
  173SOPE   C3919673   1.347   5.207   9.176 -0.5701 -0.5812 -0.4136
  173SOPE   H9X19674   1.448   5.166   9.199 -0.0966  1.2600  1.0283
  173SOPE   H9Y19675   1.362   5.275   9.089  1.4006  0.1790  0.4548
  173SOPE  C31019676   1.242   5.094   9.141 -0.5976  0.4149  0.3413
  173SOPE  H10X19677   1.217   5.045   9.237 -0.3072  2.7381  1.6836
  173SOPE  H10Y19678   1.293   5.013   9.084  1.4288  0.5250  1.8599
  173SOPE  C31119679   1.118   5.138   9.083 -0.0934 -0.0106  0.1800
  173SOPE  H11X19680   1.056   5.202   9.150 -0.6240 -1.6382  1.3104
  173SOPE  H11Y19681   1.055   5.046   9.078 -1.9866  1.3077 -2.0652
  173SOPE  C31219682   1.127   5.197   8.940 -0.0796  0.2847 -0.4311
  173SOPE  H12X19683   1.212   5.267   8.921 -1.2028  1.5997 -0.8350
  173SOPE  H12Y19684   1.041   5.267   8.933 -0.6091 -0.3997 -0.8449
  173SOPE  C31319685   1.115   5.085   8.834 -0.4834  0.0244 -0.1333
  173SOPE  H13X19686   1.032   5.018   8.864 -0.8553 -0.4401 -2.0608
  173SOPE  H13Y19687   1.208   5.024   8.840 -1.8801 -2.0479  3.3651
  173SOPE  C31419688   1.090   5.132   8.698 -0.1854 -0.6510 -1.0091
  173SOPE  H14X19689   1.172   5.198   8.661 -0.7037  0.0876 -0.8592
  173SOPE  H14Y19690   1.005   5.203   8.698 -0.1149 -0.4595  1.7245
  173SOPE  C31519691   1.066   5.026   8.585 -0.9502  1.0748  0.1669
  173SOPE  H15X19692   0.971   4.968   8.594 -0.1732 -0.4796 -1.0927
  173SOPE  H15Y19693   1.147   4.951   8.599 -1.8316  0.0412 -0.1069
  173SOPE  C31619694   1.064   5.078   8.439  0.6742  0.4204 -0.4563
  173SOPE  H16X19695   0.967   5.132   8.427  0.5105 -0.0155 -1.2106
  173SOPE  H16Y19696   1.058   4.988   8.374  1.2854 -0.2659  0.4330
  173SOPE  C31719697   1.180   5.152   8.394  0.3521 -0.0813 -0.0563
  173SOPE  H17X19698   1.186   5.247   8.451  0.3402 -1.0700  1.6526
  173SOPE  H17Y19699   1.158   5.181   8.288 -3.4988 -0.3380  0.5125
  173SOPE  C31819700   1.314   5.071   8.384 -0.0019  0.4121 -0.7542
  173SOPE  H18X19701   1.376   5.092   8.295  0.0164 -1.3225 -1.1946
  173SOPE  H18Y19702   1.284   4.965   8.366 -0.4337  0.4338 -0.2078
  173SOPE  H18Z19703   1.362   5.070   8.485  3.2570 -0.3650 -2.1824
  174SOPE     N19704   6.727   5.020  10.599  0.1293  0.2394  0.1047
  174SOPE   HN119705   6.711   4.928  10.646 -1.7963  0.9754  1.0476
  174SOPE   HN219706   6.782   5.082  10.662 -1.2003  0.7645  0.7964
  174SOPE   HN319707   6.635   5.069  10.592 -0.1987 -0.5319 -1.2218
  174SOPE   C1219708   6.791   5.015  10.462 -0.7664 -0.2386  0.9352
  174SOPE  H12A19709   6.795   5.122  10.431  0.1333 -0.4554  0.2567
  174SOPE  H12B19710   6.728   4.963  10.386  1.2283  1.0462 -1.7954
  174SOPE   C1119711   6.933   4.945  10.472  0.3894  0.1005  0.6544
  174SOPE  H11A19712   6.977   4.931  10.370 -0.1272 -0.9487  0.5637
  174SOPE  H11B19713   6.904   4.845  10.510 -2.5836  0.0155 -1.5464
  174SOPE     P19714   7.101   5.134  10.527  0.0291  0.3749 -0.3729
  174SOPE   O1319715   7.243   5.111  10.546  0.0175  0.0382  0.1739
  174SOPE   O1419716   7.046   5.249  10.602  0.3017 -0.3941 -0.3569
  174SOPE   O1219717   7.019   5.006  10.570  0.2852  0.0209 -0.4133
  174SOPE   O1119718   7.064   5.158  10.378 -0.1267  0.5448  0.1613
  174SOPE    C119719   7.156   5.144  10.261  0.5762  0.0027  0.1044
  174SOPE    HA19720   7.093   5.110  10.176 -0.3373  0.6928  0.4906
  174SOPE    HB19721   7.222   5.057  10.282  3.2212  2.1410  1.4542
  174SOPE    C219722   7.236   5.266  10.237 -0.2288 -0.6054  0.0656
  174SOPE    HS19723   7.281   5.301  10.333  1.4466  0.6168 -1.0915
  174SOPE   O2119724   7.157   5.375  10.186 -0.0460 -0.2909 -0.4925
  174SOPE   C2119725   7.222   5.493  10.197  0.7457  0.0563 -1.4349
  174SOPE   O2219726   7.329   5.512  10.251  0.1003  0.2937 -0.0526
  174SOPE   C2219727   7.143   5.603  10.130 -0.5496 -0.5391 -0.3950
  174SOPE   H2R19728   7.198   5.700  10.127 -0.2981 -0.6014  1.3402
  174SOPE   H2S19729   7.049   5.622  10.185 -2.0479 -1.8570 -2.3649
  174SOPE    C319730   7.368   5.228  10.161  0.4875  0.2064 -0.7928
  174SOPE    HX19731   7.398   5.124  10.186 -2.4317 -0.5716 -0.2510
  174SOPE    HY19732   7.453   5.292  10.195 -1.5636  2.0438  1.2739
  174SOPE   O3119733   7.360   5.254  10.015  0.3841  0.2649  0.1582
  174SOPE   C3119734   7.319   5.148   9.949 -0.0830 -0.6047  0.4170
  174SOPE   O3219735   7.263   5.052   9.996 -0.2157 -0.6550 -0.1551
  174SOPE   C3219736   7.366   5.166   9.800 -0.6430  0.1670  0.3146
  174SOPE   H2X19737   7.435   5.251   9.786 -0.8326  0.1518 -0.7777
  174SOPE   H2Y19738   7.281   5.190   9.733 -0.9448  0.3227  0.7475
  174SOPE   C2319739   7.110   5.564   9.983  0.3603  0.2605  0.1726
  174SOPE   H3R19740   7.029   5.625   9.938 -0.7865 -2.2719 -1.3927
  174SOPE   H3S19741   7.079   5.457   9.984 -0.3574  0.4627  1.2832
  174SOPE   C2419742   7.232   5.580   9.895  0.5435  0.9093  0.1405
  174SOPE   H4R19743   7.266   5.686   9.885 -0.0976  1.0544 -0.5617
  174SOPE   H4S19744   7.316   5.534   9.952 -0.9226 -1.4791  0.4968
  174SOPE   C2519745   7.222   5.539   9.746 -0.1218  0.3371  1.0314
  174SOPE   H5R19746   7.178   5.438   9.737  0.3318  0.2734 -0.8512
  174SOPE   H5S19747   7.171   5.603   9.672  1.5487 -3.2067 -3.6696
  174SOPE   C2619748   7.363   5.519   9.678  0.0695 -0.4081 -0.0879
  174SOPE   H6R19749   7.405   5.622   9.667 -2.2666  0.8070  1.3771
  174SOPE   H6S19750   7.424   5.461   9.749 -0.3164  1.0856  1.5583
  174SOPE   C2719751   7.369   5.452   9.541  0.5572 -0.6814 -0.4310
  174SOPE   H7R19752   7.335   5.347   9.547 -2.2729  0.1961 -0.0152
  174SOPE   H7S19753   7.305   5.504   9.466  1.3664  0.5328 -0.3264
  174SOPE   C2819754   7.512   5.451   9.486 -0.0390  0.1437  0.3154
  174SOPE   H8R19755   7.513   5.435   9.376  0.2991  0.4936  0.2663
  174SOPE   H8S19756   7.557   5.552   9.502 -3.4630  1.8232  0.3830
  174SOPE   C2919757   7.592   5.347   9.563 -0.3026 -0.6606 -0.0409
  174SOPE   H9119758   7.595   5.369   9.671  1.7191  0.5017 -0.2796
  174SOPE  C21019759   7.645   5.232   9.524  0.2436  0.1705 -0.6114
  174SOPE  H10119760   7.693   5.179   9.608 -2.1062  1.8296  1.9538
  174SOPE  C21119761   7.661   5.187   9.385  0.5727  0.7647  0.2462
  174SOPE  H11R19762   7.766   5.149   9.384  0.4869  0.5391 -0.8473
  174SOPE  H11S19763   7.659   5.269   9.311 -2.4330  1.4476  0.9845
  174SOPE  C21219764   7.564   5.082   9.335  0.3050  0.4035 -0.0299
  174SOPE  H12R19765   7.549   4.999   9.407  0.6031  0.7923  0.4849
  174SOPE  H12S19766   7.610   5.035   9.245  1.4922 -1.3289  1.4209
  174SOPE  C21319767   7.437   5.138   9.274  0.4272 -0.2812 -0.2452
  174SOPE  H13R19768   7.397   5.205   9.353 -0.0576  1.6100 -1.9894
  174SOPE  H13S19769   7.358   5.062   9.256 -0.4031  0.4716  0.1065
  174SOPE  C21419770   7.442   5.219   9.140 -0.5800  0.3488 -0.3370
  174SOPE  H14R19771   7.549   5.251   9.134 -0.1109 -0.3043  2.5869
  174SOPE  H14S19772   7.388   5.315   9.151  1.0538  1.3722 -0.8063
  174SOPE  C21519773   7.418   5.134   9.019 -0.1824  0.5266 -0.2767
  174SOPE  H15R19774   7.313   5.125   8.985 -0.5173 -1.1341  1.0577
  174SOPE  H15S19775   7.460   5.032   9.031 -4.0449 -1.4503 -1.8283
  174SOPE  C21619776   7.499   5.172   8.899  0.2712  0.4479  0.2915
  174SOPE  H16R19777   7.604   5.139   8.912  0.9384  1.0180 -2.7652
  174SOPE  H16S19778   7.499   5.282   8.885 -0.3869  0.4297  0.1231
  174SOPE  C21719779   7.423   5.109   8.777  0.0057 -0.1311 -0.2712
  174SOPE  H17R19780   7.333   5.174   8.772  1.4087  2.5063  3.6479
  174SOPE  H17S19781   7.406   5.000   8.789  2.1323 -0.3489  1.3515
  174SOPE  C21819782   7.484   5.134   8.638 -0.1132 -0.2613  0.2012
  174SOPE  H18R19783   7.404   5.156   8.564 -0.7775 -1.0651  0.6636
  174SOPE  H18S19784   7.547   5.047   8.611 -0.2125  0.0958 -1.3003
  174SOPE  H18T19785   7.549   5.223   8.652  0.6906 -0.8097  0.0208
  174SOPE   C3319786   7.431   5.038   9.745 -0.5343  0.2667  0.0466
  174SOPE   H3X19787   7.448   5.031   9.636  0.0877 -0.3688  0.1708
  174SOPE   H3Y19788   7.383   4.941   9.769  2.3921 -1.7598 -1.6183
  174SOPE   C3419789   7.564   5.018   9.821  0.0351 -0.6030 -0.9506
  174SOPE   H4X19790   7.539   5.010   9.929  1.4255 -0.4723 -0.5938
  174SOPE   H4Y19791   7.638   5.100   9.821 -0.0649 -0.4003  2.2686
  174SOPE   C3519792   7.637   4.880   9.794 -0.2370 -0.5570 -0.5784
  174SOPE   H5X19793   7.564   4.802   9.825 -0.0763 -0.7373 -0.6558
  174SOPE   H5Y19794   7.730   4.877   9.854 -1.6702  1.0092  1.9078
  174SOPE   C3619795   7.671   4.870   9.648 -0.6503  0.6060 -0.3122
  174SOPE   H6X19796   7.693   4.969   9.603 -1.4626  0.4451 -1.0879
  174SOPE   H6Y19797   7.581   4.825   9.600 -0.9967  0.9844 -0.0170
  174SOPE   C3719798   7.791   4.773   9.617  0.2166 -0.6050 -0.2935
  174SOPE   H7X19799   7.759   4.668   9.638 -1.6313  0.4589  2.8748
  174SOPE   H7Y19800   7.874   4.800   9.687 -0.9684 -0.8897  1.2837
  174SOPE   C3819801   7.839   4.777   9.474 -0.2871  0.0022  1.4360
  174SOPE   H8X19802   7.933   4.718   9.461  0.5576  1.8337 -1.4774
  174SOPE   H8Y19803   7.879   4.880   9.460  3.3296 -1.4335 -0.2571
  174SOPE   C3919804   7.735   4.727   9.375  0.1341  0.2769  0.1884
  174SOPE   H9X19805   7.649   4.796   9.391 -0.9900 -0.8768 -0.7127
  174SOPE   H9Y19806   7.710   4.621   9.394 -2.1994  0.2243 -2.4826
  174SOPE  C31019807   7.771   4.734   9.224  0.0029 -0.1317 -0.9676
  174SOPE  H10X19808   7.860   4.669   9.212  1.0751  1.0685  0.2643
  174SOPE  H10Y19809   7.790   4.840   9.197 -2.4646  0.8932  0.9655
  174SOPE  C31119810   7.666   4.674   9.132  0.0840  0.0515 -0.1534
  174SOPE  H11X19811   7.566   4.711   9.163  0.5531  1.3916 -0.1533
  174SOPE  H11Y19812   7.668   4.564   9.148  0.1520 -0.1783 -1.5937
  174SOPE  C31219813   7.682   4.719   8.986 -0.0953 -0.0078 -0.2801
  174SOPE  H12X19814   7.788   4.708   8.953  0.3780  0.0736  1.1270
  174SOPE  H12Y19815   7.670   4.828   8.975 -0.3412 -0.1546 -1.6084
  174SOPE  C31319816   7.575   4.648   8.903 -0.0781  0.2893  0.3561
  174SOPE  H13X19817   7.477   4.684   8.943 -0.1717  1.8912 -1.1698
  174SOPE  H13Y19818   7.588   4.539   8.917  0.7376  0.1423 -1.2479
  174SOPE  C31419819   7.587   4.697   8.759  0.1926 -0.3596 -0.1060
  174SOPE  H14X19820   7.689   4.722   8.721  0.8929 -0.2568  1.7371
  174SOPE  H14Y19821   7.544   4.799   8.760  1.4155  0.1740 -0.0826
  174SOPE  C31519822   7.504   4.605   8.666  0.0089  0.0708 -0.5090
  174SOPE  H15X19823   7.407   4.583   8.716  1.8756 -2.4294  2.3847
  174SOPE  H15Y19824   7.562   4.511   8.656 -0.7281 -0.3521 -0.8638
  174SOPE  C31619825   7.468   4.666   8.530 -0.4169  0.3048  0.8229
  174SOPE  H16X19826   7.435   4.579   8.469  0.4574  0.0004  0.7717
  174SOPE  H16Y19827   7.565   4.710   8.499  0.2105 -0.6961  1.2898
  174SOPE  C31719828   7.358   4.765   8.519  0.9929 -0.7100 -0.5145
  174SOPE  H17X19829   7.394   4.862   8.559 -0.6755  0.7163 -2.2544
  174SOPE  H17Y19830   7.279   4.734   8.591  0.2912 -1.1145 -1.4385
  174SOPE  C31819831   7.284   4.791   8.384 -0.3432 -0.5877  0.1102
  174SOPE  H18X19832   7.354   4.828   8.306 -1.8146  2.4309  0.0742
  174SOPE  H18Y19833   7.208   4.870   8.405  2.3932  2.4011 -0.3806
  174SOPE  H18Z19834   7.241   4.696   8.347  0.3482 -0.8538 -0.0122
  175SOPE     N19835   2.966   5.970  10.542  0.3181  0.0317 -0.1520
  175SOPE   HN119836   2.940   5.958  10.442 -2.1154  1.9031  0.1509
  175SOPE   HN219837   3.054   5.914  10.547 -0.8330 -1.8422  0.2343
  175SOPE   HN319838   2.899   5.931  10.611 -0.0369 -1.6481 -1.3794
  175SOPE   C1219839   3.010   6.115  10.554 -0.3141 -0.9758 -0.4209
  175SOPE  H12A19840   3.062   6.132  10.651  0.6044 -0.6280 -0.9626
  175SOPE  H12B19841   2.921   6.181  10.563 -0.0028 -0.6374  0.1785
  175SOPE   C1119842   3.114   6.155  10.441 -0.5920  0.0308  1.2109
  175SOPE  H11A19843   3.106   6.264  10.425 -0.9181 -0.0366  0.8832
  175SOPE  H11B19844   3.069   6.111  10.349 -0.1634  1.8804  0.0756
  175SOPE     P19845   3.369   6.147  10.370  0.0240  0.1807  0.3598
  175SOPE   O1319846   3.495   6.145  10.449  0.2071  0.2056  0.3290
  175SOPE   O1419847   3.328   6.279  10.312  0.2199 -0.0898  0.5907
  175SOPE   O1219848   3.249   6.101  10.464  0.4809 -0.7961 -0.4255
  175SOPE   O1119849   3.391   6.030  10.267  0.7799  0.0608 -0.2817
  175SOPE    C119850   3.299   5.916  10.256 -0.2157  0.3878  0.2213
  175SOPE    HA19851   3.234   5.906  10.346 -0.1632  0.4156  0.2626
  175SOPE    HB19852   3.358   5.823  10.257 -0.7515  0.0418  0.9185
  175SOPE    C219853   3.219   5.910  10.121  0.2123 -0.0594  0.4300
  175SOPE    HS19854   3.152   5.999  10.117  0.2934 -0.0407 -1.9358
  175SOPE   O2119855   3.141   5.787  10.107  0.5017 -0.0206 -0.3420
  175SOPE   C2119856   3.039   5.770  10.192  0.2941  0.5088  0.4321
  175SOPE   O2219857   3.004   5.852  10.275  0.1994  0.7167 -0.4007
  175SOPE   C2219858   2.992   5.626  10.180 -0.1358  0.0404  0.1430
  175SOPE   H2R19859   3.046   5.563  10.253 -0.5246 -0.1510  0.2675
  175SOPE   H2S19860   3.006   5.586  10.077 -0.1664  0.8638 -0.1923
  175SOPE    C319861   3.306   5.913   9.999 -0.0082 -0.6262 -0.0565
  175SOPE    HX19862   3.360   5.816   9.989  1.2138  0.1515 -1.4998
  175SOPE    HY19863   3.393   5.981  10.007  0.7734 -1.6080  0.0611
  175SOPE   O3119864   3.228   5.950   9.881  0.0281  0.4315  0.5548
  175SOPE   C3119865   3.199   6.071   9.872 -0.6179 -0.6477  1.3468
  175SOPE   O3219866   3.236   6.159   9.945 -0.5066 -0.4298 -0.0262
  175SOPE   C3219867   3.103   6.097   9.754  0.4844  0.4499 -0.2682
  175SOPE   H2X19868   3.017   6.162   9.781  0.2701  0.0592  0.0010
  175SOPE   H2Y19869   3.057   6.001   9.723  3.2673 -0.6935 -1.1762
  175SOPE   C2319870   2.840   5.626  10.214 -0.4613 -0.2404  0.9971
  175SOPE   H3R19871   2.792   5.688  10.136  0.4758 -0.7280  0.0116
  175SOPE   H3S19872   2.826   5.680  10.310  0.7187  2.6214 -0.3427
  175SOPE   C2419873   2.772   5.487  10.227 -0.1259  0.0669 -0.1001
  175SOPE   H4R19874   2.822   5.423  10.302 -0.0099  2.2703  1.8261
  175SOPE   H4S19875   2.667   5.493  10.262 -0.1886 -2.1827  0.1931
  175SOPE   C2519876   2.786   5.404  10.094 -0.2630  0.1116  0.4286
  175SOPE   H5R19877   2.893   5.379  10.080 -0.2417 -0.4799  1.5026
  175SOPE   H5S19878   2.720   5.315  10.108  0.2235 -0.4776 -0.8145
  175SOPE   C2619879   2.738   5.477   9.965 -0.2646 -0.1954 -0.4095
  175SOPE   H6R19880   2.646   5.531   9.993 -0.2034 -0.9344  1.3629
  175SOPE   H6S19881   2.819   5.548   9.939 -0.8868 -0.2824 -2.7697
  175SOPE   C2719882   2.720   5.380   9.849  0.6503 -0.4282  0.4640
  175SOPE   H7R19883   2.798   5.302   9.834 -0.3174 -2.0541  3.2628
  175SOPE   H7S19884   2.640   5.314   9.889 -0.1326  0.7070  0.8106
  175SOPE   C2819885   2.685   5.452   9.716 -0.3961 -0.1211 -0.3315
  175SOPE   H8R19886   2.605   5.526   9.738  0.9372  1.1897  0.2728
  175SOPE   H8S19887   2.777   5.509   9.694  1.7469 -1.6402  3.5450
  175SOPE   C2919888   2.632   5.361   9.603 -0.1425 -0.1695 -0.1656
  175SOPE   H9119889   2.528   5.326   9.603  0.5623 -2.4934  1.5350
  175SOPE  C21019890   2.701   5.334   9.493 -0.2955  0.4823  0.7520
  175SOPE  H10119891   2.657   5.254   9.432  0.0097  0.5277  0.4682
  175SOPE  C21119892   2.850   5.351   9.458  0.4568 -0.3724 -1.2700
  175SOPE  H11R19893   2.901   5.397   9.545 -0.3496 -0.7205 -0.6009
  175SOPE  H11S19894   2.865   5.404   9.361 -0.4191 -2.8069 -2.8418
  175SOPE  C21219895   2.920   5.211   9.426 -0.0213 -0.6567 -0.0012
  175SOPE  H12R19896   2.879   5.173   9.330  0.9332 -1.3923 -0.1354
  175SOPE  H12S19897   2.908   5.147   9.517 -2.6184  1.1533  1.0552
  175SOPE  C21319898   3.072   5.240   9.412 -0.7675 -0.2986 -0.6783
  175SOPE  H13R19899   3.109   5.289   9.504  2.9795 -2.4709 -0.7897
  175SOPE  H13S19900   3.084   5.308   9.324 -0.9418  0.2667 -0.2696
  175SOPE  C21419901   3.167   5.127   9.389 -0.0758  0.2459  0.1470
  175SOPE  H14R19902   3.177   5.080   9.489 -1.7394 -0.7446 -0.1204
  175SOPE  H14S19903   3.263   5.175   9.360 -0.5034  0.0487 -1.7059
  175SOPE  C21519904   3.116   5.024   9.279 -0.7180  0.0255  0.3670
  175SOPE  H15R19905   3.021   4.981   9.318 -2.5156  2.1390 -1.3897
  175SOPE  H15S19906   3.188   4.941   9.265 -0.7360 -0.2107  1.5325
  175SOPE  C21619907   3.079   5.095   9.143 -0.1437 -0.8565 -0.0253
  175SOPE  H16R19908   3.167   5.149   9.101 -0.7785 -1.1339 -1.8032
  175SOPE  H16S19909   3.000   5.170   9.162 -0.5428 -1.4394  0.6574
  175SOPE  C21719910   3.030   4.993   9.044  0.2001 -0.7583  0.3228
  175SOPE  H17R19911   2.930   4.972   9.086  1.2926  0.1747  3.6957
  175SOPE  H17S19912   3.077   4.893   9.052 -1.7603 -1.7749 -0.2546
  175SOPE  C21819913   3.038   5.037   8.895  0.2457  0.2211  0.3670
  175SOPE  H18R19914   2.990   5.137   8.895  1.4785  0.8283  0.1689
  175SOPE  H18S19915   2.993   4.966   8.822  3.0483 -0.3941 -0.8954
  175SOPE  H18T19916   3.146   5.041   8.867 -0.0534 -0.3877 -0.9672
  175SOPE   C3319917   3.185   6.131   9.629  0.1939 -0.8546 -0.1385
  175SOPE   H3X19918   3.261   6.059   9.593 -0.6548 -1.0331 -1.6341
  175SOPE   H3Y19919   3.236   6.228   9.651  1.4632 -1.3955 -0.6524
  175SOPE   C3419920   3.093   6.147   9.502  0.2766 -0.2433  1.0027
  175SOPE   H4X19921   3.011   6.216   9.533  0.7303 -0.2149  2.1652
  175SOPE   H4Y19922   3.049   6.051   9.469  0.2125  0.6396 -1.7977
  175SOPE   C3519923   3.161   6.225   9.384 -0.3085  0.5818  0.4853
  175SOPE   H5X19924   3.263   6.184   9.365 -0.5763 -0.4074  1.1102
  175SOPE   H5Y19925   3.173   6.330   9.419 -1.7110  0.8875  0.0960
  175SOPE   C3619926   3.077   6.218   9.255 -0.0994 -0.0164  0.9335
  175SOPE   H6X19927   2.973   6.246   9.281 -0.4656 -1.1414  0.7140
  175SOPE   H6Y19928   3.064   6.111   9.228  1.3709 -0.7816  3.0135
  175SOPE   C3719929   3.132   6.283   9.130 -1.6158  0.3028  0.0499
  175SOPE   H7X19930   3.242   6.269   9.126 -1.2224  1.9837  2.5846
  175SOPE   H7Y19931   3.132   6.394   9.145 -0.6825  0.2115  0.7677
  175SOPE   C3819932   3.061   6.244   9.002 -0.3201 -0.0091 -0.0561
  175SOPE   H8X19933   2.950   6.250   9.008 -0.2309  0.6724  1.4397
  175SOPE   H8Y19934   3.075   6.135   8.985 -0.1224 -0.0808  0.5521
  175SOPE   C3919935   3.109   6.339   8.889 -0.4113 -0.1957 -0.0089
  175SOPE   H9X19936   3.218   6.355   8.895 -0.3711  0.1977 -1.4583
  175SOPE   H9Y19937   3.041   6.427   8.898  0.0087 -0.0630  2.8716
  175SOPE  C31019938   3.078   6.281   8.754 -0.1696  0.5169  0.4522
  175SOPE  H10X19939   3.124   6.182   8.730 -3.0654 -0.8938  0.2859
  175SOPE  H10Y19940   3.124   6.345   8.676 -2.5677 -1.1027 -2.5172
  175SOPE  C31119941   2.930   6.273   8.717  0.3988 -0.2007  0.1996
  175SOPE  H11X19942   2.895   6.376   8.695 -2.3408 -0.6134  2.1495
  175SOPE  H11Y19943   2.869   6.218   8.792 -0.1107  0.9846  0.6748
  175SOPE  C31219944   2.919   6.178   8.599  0.0401  0.1593  1.0455
  175SOPE  H12X19945   2.812   6.153   8.581  0.3394 -0.6137  0.3267
  175SOPE  H12Y19946   2.981   6.087   8.612  3.8597  2.6745  2.2814
  175SOPE  C31319947   2.953   6.262   8.471  0.2448  0.3392 -0.0281
  175SOPE  H13X19948   3.051   6.313   8.477  0.1765  0.7749 -1.8676
  175SOPE  H13Y19949   2.883   6.348   8.468  0.6961  0.7285  0.3978
  175SOPE  C31419950   2.936   6.184   8.339  0.4543  0.6971  0.0282
  175SOPE  H14X19951   2.918   6.248   8.249 -1.4770  0.1381 -0.0323
  175SOPE  H14Y19952   2.847   6.119   8.355 -0.6322  2.3844  1.2475
  175SOPE  C31519953   3.044   6.081   8.327 -0.5501 -0.6205 -0.7754
  175SOPE  H15X19954   3.035   6.006   8.409 -1.1261 -0.3470 -0.5820
  175SOPE  H15Y19955   3.145   6.122   8.348 -0.6455 -0.6680 -0.1908
  175SOPE  C31619956   3.046   6.003   8.189  0.4026  0.3993 -0.4146
  175SOPE  H16X19957   3.069   6.086   8.118 -0.2240  0.1684 -0.8946
  175SOPE  H16Y19958   2.948   5.959   8.161 -0.3570  1.4171  0.5598
  175SOPE  C31719959   3.149   5.885   8.180 -0.0756 -0.5342 -0.5895
  175SOPE  H17X19960   3.122   5.802   8.248  0.8910  0.9605  1.7255
  175SOPE  H17Y19961   3.247   5.927   8.212 -0.3871 -0.7599  0.6974
  175SOPE  C31819962   3.168   5.809   8.048  0.3005  0.0151 -0.1100
  175SOPE  H18X19963   3.162   5.889   7.971 -0.7383  1.3323  1.2604
  175SOPE  H18Y19964   3.084   5.738   8.035  0.4958 -0.1064 -0.7257
  175SOPE  H18Z19965   3.265   5.757   8.050 -0.3981 -1.3214 -0.1001
  176SOPE     N19966   2.051   5.098  10.422 -0.1784  0.5457  0.0720
  176SOPE   HN119967   1.967   5.148  10.387 -1.1859 -1.6306 -0.7992
  176SOPE   HN219968   2.129   5.110  10.354  0.2481  1.5444  0.7156
  176SOPE   HN319969   2.039   4.996  10.411  3.1665  0.2303 -1.8784
  176SOPE   C1219970   2.115   5.133  10.553 -0.3309 -0.6010  0.0736
  176SOPE  H12A19971   2.045   5.099  10.633  1.3848  0.2530  2.0469
  176SOPE  H12B19972   2.104   5.243  10.567 -0.9804 -0.5413 -0.8329
  176SOPE   C1119973   2.256   5.080  10.570 -0.3616  0.5304  0.9197
  176SOPE  H11A19974   2.307   5.115  10.663  2.7617 -0.2812 -0.3509
  176SOPE  H11B19975   2.320   5.117  10.487 -0.1862  1.9053  1.6338
  176SOPE     P19976   2.336   4.859  10.663  0.1495  0.2267 -0.4241
  176SOPE   O1319977   2.292   4.724  10.687  0.3471  0.3049 -0.6268
  176SOPE   O1419978   2.371   4.937  10.786 -0.1498  0.2891 -0.3658
  176SOPE   O1219979   2.242   4.938  10.571  0.1744 -0.5796 -0.8158
  176SOPE   O1119980   2.461   4.864  10.573  0.0475 -0.2578  0.0309
  176SOPE    C119981   2.484   4.758  10.477 -0.0196 -0.3628  0.4930
  176SOPE    HA19982   2.459   4.655  10.512  1.8642 -1.3145 -0.7863
  176SOPE    HB19983   2.594   4.742  10.471  0.3288  2.0153 -0.3897
  176SOPE    C219984   2.418   4.783  10.337 -0.5201 -0.2646  0.5106
  176SOPE    HS19985   2.307   4.778  10.342 -0.5870  1.4197  1.0632
  176SOPE   O2119986   2.466   4.683  10.248 -0.2098 -0.8574 -0.2292
  176SOPE   C2119987   2.396   4.569  10.245  0.9147  0.1147 -0.4377
  176SOPE   O2219988   2.308   4.535  10.320  0.4908 -0.2704 -0.6508
  176SOPE   C2219989   2.460   4.475  10.138 -0.0480  0.1618 -0.3802
  176SOPE   H2R19990   2.455   4.372  10.180  1.2913 -1.2492 -3.4315
  176SOPE   H2S19991   2.563   4.511  10.120 -0.2133 -0.6313 -3.3143
  176SOPE    C319992   2.473   4.917  10.281  0.0349 -0.8151  0.0680
  176SOPE    HX19993   2.583   4.903  10.273  0.2621  0.4101  0.8876
  176SOPE    HY19994   2.461   5.007  10.345  1.7046  1.3175 -2.4126
  176SOPE   O3119995   2.421   4.950  10.147 -0.2385 -0.4685 -0.1079
  176SOPE   C3119996   2.305   5.017  10.140  0.1299  0.0340 -0.2385
  176SOPE   O3219997   2.237   5.047  10.235  0.1407 -0.1396  0.4091
  176SOPE   C3219998   2.273   5.024   9.992  0.1456  0.7797  0.2019
  176SOPE   H2X19999   2.179   4.969   9.973  0.6892 -0.6414  1.4245
  176SOPE   H2Y20000   2.350   4.968   9.934 -0.4624 -0.0279  0.1638
  176SOPE   C2320001   2.384   4.468  10.002  0.4019 -0.5305  0.5245
  176SOPE   H3R20002   2.277   4.444  10.018 -1.0425  2.6869 -3.0879
  176SOPE   H3S20003   2.436   4.394   9.937  0.6380  0.3955 -0.3584
  176SOPE   C2420004   2.388   4.601   9.932  0.0462 -0.5410 -0.2132
  176SOPE   H4R20005   2.351   4.680  10.001  1.5686  1.3992 -1.5087
  176SOPE   H4S20006   2.494   4.626   9.909 -0.5705  2.2566 -0.3123
  176SOPE   C2520007   2.317   4.610   9.795  1.1818  0.1190 -0.0114
  176SOPE   H5R20008   2.208   4.600   9.813  1.4032  1.7592  2.9499
  176SOPE   H5S20009   2.338   4.706   9.742  2.3767  0.2022  0.5754
  176SOPE   C2620010   2.373   4.507   9.696  0.6571  0.7079 -0.2024
  176SOPE   H6R20011   2.483   4.494   9.703  0.7022 -0.5581 -2.3774
  176SOPE   H6S20012   2.322   4.410   9.715  0.8257  0.7394  0.4372
  176SOPE   C2720013   2.361   4.538   9.544 -0.2575  0.2196 -0.5087
  176SOPE   H7R20014   2.429   4.620   9.512 -1.3961  1.1103 -0.7253
  176SOPE   H7S20015   2.405   4.448   9.497  0.2080  1.1751 -1.9723
  176SOPE   C2820016   2.219   4.561   9.488 -0.2178  0.4729  0.8710
  176SOPE   H8R20017   2.217   4.529   9.382 -0.4894  2.0596  0.3783
  176SOPE   H8S20018   2.154   4.498   9.552 -0.4910  1.3126  1.4294
  176SOPE   C2920019   2.165   4.696   9.506 -0.0682  0.0901 -0.1750
  176SOPE   H9120020   2.217   4.752   9.585 -1.2164  1.4409 -0.3242
  176SOPE  C21020021   2.063   4.755   9.444  0.5327 -0.0646 -0.6473
  176SOPE  H10120022   2.039   4.862   9.460  0.3324 -0.2301  0.2328
  176SOPE  C21120023   1.993   4.693   9.328  0.0591  0.1474  0.4140
  176SOPE  H11R20024   1.882   4.699   9.341  0.1011  2.9013  0.0943
  176SOPE  H11S20025   2.019   4.588   9.304 -2.2297 -0.1911 -0.8568
  176SOPE  C21220026   2.012   4.771   9.191 -0.1189 -0.0575 -0.3682
  176SOPE  H12R20027   1.949   4.862   9.179  0.2948  0.2461 -0.2308
  176SOPE  H12S20028   1.972   4.702   9.113  1.5036 -0.7319 -0.6326
  176SOPE  C21320029   2.161   4.807   9.169 -0.3406  0.1738  0.1819
  176SOPE  H13R20030   2.222   4.723   9.210 -0.5824 -1.1068 -1.9236
  176SOPE  H13S20031   2.166   4.899   9.231 -2.3180  0.9708 -0.7666
  176SOPE  C21420032   2.191   4.817   9.023 -0.1535 -0.4621  0.0385
  176SOPE  H14R20033   2.154   4.732   8.962 -0.5470 -0.0020 -0.3690
  176SOPE  H14S20034   2.300   4.803   9.007 -0.4775 -0.3308 -2.9220
  176SOPE  C21520035   2.154   4.952   8.964 -0.3743 -0.2627 -0.2923
  176SOPE  H15R20036   2.178   5.030   9.041  0.2267  0.6408 -1.3691
  176SOPE  H15S20037   2.046   4.963   8.940 -0.6039  0.7185  1.0504
  176SOPE  C21620038   2.238   4.972   8.832  0.5428 -0.3172 -0.3882
  176SOPE  H16R20039   2.210   4.897   8.755 -0.1307  0.0992 -0.5654
  176SOPE  H16S20040   2.347   4.974   8.851  0.5461 -0.0915 -0.4255
  176SOPE  C21720041   2.215   5.117   8.774  0.6899 -0.0398  0.1555
  176SOPE  H17R20042   2.253   5.198   8.839  2.9875  1.3588 -2.6606
  176SOPE  H17S20043   2.105   5.132   8.768  0.7980  0.7611 -0.0037
  176SOPE  C21820044   2.280   5.149   8.630 -0.2537  0.0627  0.0906
  176SOPE  H18R20045   2.259   5.064   8.561  1.3705  0.5133 -1.0026
  176SOPE  H18S20046   2.390   5.148   8.641 -0.4431  1.1098  2.6566
  176SOPE  H18T20047   2.241   5.244   8.588  2.7309  0.8639 -1.1192
  176SOPE   C3320048   2.269   5.173   9.939  0.0974 -0.4768 -0.5273
  176SOPE   H3X20049   2.357   5.238   9.957 -2.4297  2.8896  0.5276
  176SOPE   H3Y20050   2.186   5.224   9.990  0.4574 -1.4173  1.0504
  176SOPE   C3420051   2.229   5.180   9.785  0.0093  0.2862 -0.4090
  176SOPE   H4X20052   2.256   5.284   9.756  1.4143 -0.0427 -0.3451
  176SOPE   H4Y20053   2.120   5.166   9.766 -0.4494  1.6722  0.9738
  176SOPE   C3520054   2.316   5.100   9.695  0.2779 -0.8804  0.8500
  176SOPE   H5X20055   2.289   4.993   9.708  0.3504 -0.8230  1.4786
  176SOPE   H5Y20056   2.421   5.115   9.727 -0.3151  1.2262  2.0453
  176SOPE   C3620057   2.295   5.141   9.545 -0.6719  0.1488  0.3983
  176SOPE   H6X20058   2.318   5.249   9.528 -0.9268 -0.2414 -3.1991
  176SOPE   H6Y20059   2.190   5.131   9.513 -0.5523 -1.3974  0.4348
  176SOPE   C3720060   2.381   5.081   9.431 -0.4074 -0.0108  0.1455
  176SOPE   H7X20061   2.334   4.982   9.411 -0.9074 -0.2349  2.2219
  176SOPE   H7Y20062   2.483   5.074   9.476 -0.5831 -0.3086  0.5022
  176SOPE   C3820063   2.386   5.174   9.306  0.0375  0.1824 -0.2641
  176SOPE   H8X20064   2.442   5.269   9.324 -0.1114  0.2684 -0.2535
  176SOPE   H8Y20065   2.283   5.207   9.281 -0.2941  0.1552  1.0043
  176SOPE   C3920066   2.446   5.114   9.180 -0.0977 -0.1346 -0.0038
  176SOPE   H9X20067   2.374   5.032   9.158 -0.0462 -0.2725  0.3359
  176SOPE   H9Y20068   2.550   5.077   9.188  0.1583  0.6391  0.3510
  176SOPE  C31020069   2.449   5.204   9.057  0.5626  0.5590 -0.4727
  176SOPE  H10X20070   2.350   5.254   9.049  1.2976  2.3068  0.6840
  176SOPE  H10Y20071   2.470   5.139   8.969  0.7799  1.0912 -0.8140
  176SOPE  C31120072   2.558   5.308   9.053 -0.0566  0.2538  1.1921
  176SOPE  H11X20073   2.660   5.265   9.046 -1.1663 -2.8045  2.0315
  176SOPE  H11Y20074   2.554   5.379   9.139  2.5455  0.4446  1.2267
  176SOPE  C31220075   2.531   5.393   8.925  0.6656  0.1081  0.0406
  176SOPE  H12X20076   2.565   5.498   8.941 -1.0170  1.1061 -2.2856
  176SOPE  H12Y20077   2.421   5.401   8.916  0.6895  0.2267 -0.1778
  176SOPE  C31320078   2.600   5.349   8.795 -0.3710 -0.7061  0.5300
  176SOPE  H13X20079   2.556   5.260   8.746 -2.2388  1.1684 -1.4199
  176SOPE  H13Y20080   2.705   5.323   8.820 -0.1704 -0.7758 -0.3259
  176SOPE  C31420081   2.604   5.465   8.692 -0.6525 -0.0840 -0.4172
  176SOPE  H14X20082   2.659   5.430   8.602  0.3846  1.3367 -0.3590
  176SOPE  H14Y20083   2.657   5.550   8.739  0.7481 -0.4462 -1.2786
  176SOPE  C31520084   2.475   5.497   8.625  0.7551  0.4835 -0.1918
  176SOPE  H15X20085   2.412   5.544   8.704  0.9060  0.0768  0.1748
  176SOPE  H15Y20086   2.441   5.395   8.599  0.1597  0.4172  0.7748
  176SOPE  C31620087   2.471   5.584   8.494 -0.6295  0.5073 -0.8437
  176SOPE  H16X20088   2.544   5.547   8.420 -0.0250 -2.2167  0.9458
  176SOPE  H16Y20089   2.482   5.689   8.529  0.0537 -0.0687  0.7832
  176SOPE  C31720090   2.339   5.563   8.421 -0.5230  0.1393  0.4612
  176SOPE  H17X20091   2.258   5.582   8.495 -1.4656  0.2506 -0.5709
  176SOPE  H17Y20092   2.343   5.463   8.373  3.6560  0.3915 -0.0815
  176SOPE  C31820093   2.319   5.658   8.302  0.0436  0.4330 -0.5551
  176SOPE  H18X20094   2.343   5.764   8.326  0.7631  0.0377  0.5528
  176SOPE  H18Y20095   2.215   5.647   8.264 -0.3231  3.1421 -0.5266
  176SOPE  H18Z20096   2.387   5.631   8.218 -0.5087 -0.0204 -0.8679
  177SOPE     N20097   2.165   2.363  11.245 -0.7269  0.1396 -0.3030
  177SOPE   HN120098   2.137   2.451  11.292 -1.2270 -0.2347  0.1183
  177SOPE   HN220099   2.165   2.296  11.324  1.9873  1.1296  0.6328
  177SOPE   HN320100   2.258   2.363  11.198 -0.8825 -1.4397 -0.6685
  177SOPE   C1220101   2.071   2.327  11.139 -0.2304  1.4035 -0.4579
  177SOPE  H12A20102   1.969   2.324  11.183 -0.2112  1.2374 -0.4226
  177SOPE  H12B20103   2.102   2.224  11.109  0.1549  1.7648 -1.3465
  177SOPE   C1120104   2.074   2.421  11.017  0.4336 -0.1547 -0.0850
  177SOPE  H11A20105   2.084   2.522  11.064 -1.9043  0.4839 -0.8411
  177SOPE  H11B20106   1.980   2.415  10.959  1.5630 -0.3446 -1.9803
  177SOPE     P20107   2.179   2.299  10.808 -0.3654  0.1771 -0.4370
  177SOPE   O1320108   2.116   2.166  10.849 -0.1347 -1.0193 -0.2578
  177SOPE   O1420109   2.313   2.298  10.746 -0.4856  0.5357  0.0793
  177SOPE   O1220110   2.190   2.403  10.929 -0.3685 -0.9810 -0.0174
  177SOPE   O1120111   2.081   2.373  10.705 -0.5632 -0.0714 -0.3481
  177SOPE    C120112   2.112   2.497  10.650  0.0188  0.1288  0.1433
  177SOPE    HA20113   2.196   2.552  10.699  2.8392 -1.3349 -2.6402
  177SOPE    HB20114   2.029   2.570  10.655  0.0198  0.1909 -0.6006
  177SOPE    C220115   2.172   2.471  10.506 -0.5476  0.7050 -0.5946
  177SOPE    HS20116   2.219   2.371  10.507 -0.2958  0.8279  0.5826
  177SOPE   O2120117   2.266   2.579  10.469  0.2576  0.3369  0.0800
  177SOPE   C2120118   2.335   2.551  10.365 -0.0078  0.2399  0.1673
  177SOPE   O2220119   2.332   2.443  10.309  0.0942 -0.0626  0.2369
  177SOPE   C2220120   2.421   2.681  10.330  0.0567 -0.6868  0.0596
  177SOPE   H2R20121   2.490   2.702  10.416 -0.0045  1.5608 -0.3686
  177SOPE   H2S20122   2.354   2.769  10.320  0.6972 -0.3800 -1.9296
  177SOPE    C320123   2.054   2.457  10.403 -0.2120  0.1552 -0.1939
  177SOPE    HX20124   2.009   2.359  10.429  0.5460 -0.6235 -1.7375
  177SOPE    HY20125   2.089   2.446  10.298 -1.2769 -0.8899 -0.4593
  177SOPE   O3120126   1.961   2.573  10.412  0.1132 -0.4505 -0.4001
  177SOPE   C3120127   1.840   2.553  10.359 -0.1809  0.1091 -0.0767
  177SOPE   O3220128   1.813   2.466  10.277 -0.1977  0.9062 -0.0330
  177SOPE   C3220129   1.734   2.647  10.410  0.0150 -0.4046 -0.6397
  177SOPE   H2X20130   1.735   2.643  10.521 -1.9752  0.9084 -0.5155
  177SOPE   H2Y20131   1.632   2.625  10.371 -0.2735  0.4751 -0.4086
  177SOPE   C2320132   2.509   2.676  10.208  0.2710  0.6596  0.5046
  177SOPE   H3R20133   2.439   2.623  10.140 -2.8001  1.2247  3.0541
  177SOPE   H3S20134   2.595   2.608  10.227 -0.2123 -0.8582 -2.1894
  177SOPE   C2420135   2.569   2.808  10.156 -0.4771 -1.0373 -0.0511
  177SOPE   H4R20136   2.483   2.875  10.135 -0.7634 -0.7491  1.8242
  177SOPE   H4S20137   2.622   2.864  10.236 -2.2082  1.1199 -0.2959
  177SOPE   C2520138   2.655   2.789  10.029 -0.7338  0.5535  0.9824
  177SOPE   H5R20139   2.709   2.884  10.010 -1.6937  0.5691 -2.4452
  177SOPE   H5S20140   2.734   2.713  10.045 -1.0679  0.7483  3.9871
  177SOPE   C2620141   2.574   2.764   9.897 -0.5072  0.5153 -0.7344
  177SOPE   H6R20142   2.513   2.673   9.914  0.5191 -0.1822 -0.6302
  177SOPE   H6S20143   2.515   2.856   9.878 -1.3615 -0.2130 -1.7367
  177SOPE   C2720144   2.659   2.720   9.779  0.7815 -0.5277 -0.5148
  177SOPE   H7R20145   2.710   2.808   9.734 -3.4455  2.3135 -0.3126
  177SOPE   H7S20146   2.745   2.659   9.815 -0.1277 -1.9778 -0.7026
  177SOPE   C2820147   2.573   2.643   9.679  0.1266  0.1115  0.6728
  177SOPE   H8R20148   2.637   2.595   9.602 -1.0411 -0.9807  0.3447
  177SOPE   H8S20149   2.512   2.558   9.716 -0.2412  0.4480  0.8491
  177SOPE   C2920150   2.479   2.744   9.612 -0.3621 -0.8450 -0.7679
  177SOPE   H9120151   2.396   2.773   9.679  0.7307  1.2848 -0.2567
  177SOPE  C21020152   2.506   2.819   9.500 -0.2583  0.5513 -1.1569
  177SOPE  H10120153   2.430   2.892   9.468 -1.5020 -0.7304 -1.2683
  177SOPE  C21120154   2.632   2.822   9.417 -0.0737  0.6367 -0.6797
  177SOPE  H11R20155   2.691   2.728   9.426 -1.9997 -0.4534  2.1655
  177SOPE  H11S20156   2.688   2.913   9.447 -0.8904  0.4118  1.7229
  177SOPE  C21220157   2.584   2.847   9.273  0.1406 -0.4865 -0.8143
  177SOPE  H12R20158   2.557   2.955   9.270  0.6973 -0.2386  1.3618
  177SOPE  H12S20159   2.494   2.793   9.239 -0.7357  1.8518 -2.5091
  177SOPE  C21320160   2.690   2.821   9.169 -0.7785  0.1629 -0.1853
  177SOPE  H13R20161   2.696   2.712   9.152 -1.1494 -0.1959  1.7580
  177SOPE  H13S20162   2.789   2.864   9.196 -1.2764  1.8871 -0.9466
  177SOPE  C21420163   2.650   2.879   9.029 -0.1214  0.3681  0.0088
  177SOPE  H14R20164   2.651   2.991   9.028  1.9966  0.4336  1.6767
  177SOPE  H14S20165   2.546   2.844   9.014  0.4238 -1.2438 -0.1804
  177SOPE  C21520166   2.740   2.823   8.916  1.1931  0.0175 -0.3308
  177SOPE  H15R20167   2.762   2.718   8.944  1.2975 -0.5782 -2.4702
  177SOPE  H15S20168   2.833   2.884   8.914  1.0704  0.2053 -0.3637
  177SOPE  C21620169   2.667   2.828   8.783 -0.5583 -1.3781 -0.1247
  177SOPE  H16R20170   2.570   2.777   8.801 -2.0933  1.1487 -0.7744
  177SOPE  H16S20171   2.726   2.769   8.709 -1.1406 -0.1415 -1.6301
  177SOPE  C21720172   2.641   2.975   8.733  0.2885  0.5991 -0.2228
  177SOPE  H17R20173   2.576   3.015   8.814 -0.9370 -1.4901 -0.0978
  177SOPE  H17S20174   2.579   2.960   8.642  0.3809 -2.0391  0.0761
  177SOPE  C21820175   2.775   3.058   8.711  0.4127  0.5637  0.0277
  177SOPE  H18R20176   2.762   3.136   8.633  0.6836 -0.2613 -0.8679
  177SOPE  H18S20177   2.862   2.997   8.678 -1.4263 -2.1797 -0.1089
  177SOPE  H18T20178   2.809   3.111   8.802  0.1854  0.3135  0.2624
  177SOPE   C3320179   1.759   2.793  10.359  0.2648  0.6519 -0.4102
  177SOPE   H3X20180   1.867   2.817  10.343  0.8169 -2.8704 -3.2821
  177SOPE   H3Y20181   1.723   2.858  10.442 -0.5074 -0.3338  0.0393
  177SOPE   C3420182   1.685   2.828  10.226  0.3551 -0.2828 -0.0277
  177SOPE   H4X20183   1.696   2.937  10.215  0.0306 -0.3715 -1.4473
  177SOPE   H4Y20184   1.576   2.806  10.236  0.5827 -0.6185  2.1782
  177SOPE   C3520185   1.744   2.754  10.102 -0.6189 -0.0746  0.8524
  177SOPE   H5X20186   1.729   2.645  10.122 -0.9872 -0.1791  0.0656
  177SOPE   H5Y20187   1.848   2.789  10.092 -0.6661  0.1367  1.1037
  177SOPE   C3620188   1.675   2.808   9.979  0.6991  0.0784  0.1229
  177SOPE   H6X20189   1.689   2.919   9.974  1.4211 -0.0323 -0.4243
  177SOPE   H6Y20190   1.565   2.791   9.978  0.9899 -1.9116 -0.3815
  177SOPE   C3720191   1.733   2.747   9.855  0.7989  0.4543  0.0309
  177SOPE   H7X20192   1.691   2.644   9.864 -0.4039  0.7883 -1.3375
  177SOPE   H7Y20193   1.843   2.734   9.852  0.7360 -0.0154 -0.3925
  177SOPE   C3820194   1.684   2.819   9.728 -0.3711  0.2780 -0.3559
  177SOPE   H8X20195   1.705   2.928   9.742  0.5720 -0.1482  2.0656
  177SOPE   H8Y20196   1.573   2.817   9.722 -0.5478  3.2992  0.0428
  177SOPE   C3920197   1.736   2.752   9.607  0.2780  0.5053  0.0193
  177SOPE   H9X20198   1.702   2.647   9.603  0.8777  0.3202 -0.2211
  177SOPE   H9Y20199   1.846   2.750   9.621  0.0561  0.7476  2.2642
  177SOPE  C31020200   1.688   2.831   9.479  0.3810 -0.0776 -0.2057
  177SOPE  H10X20201   1.716   2.937   9.498 -0.0426 -0.4437  3.0133
  177SOPE  H10Y20202   1.578   2.816   9.478  0.5352 -1.2435 -0.9489
  177SOPE  C31120203   1.749   2.767   9.350  0.2898  0.2725 -1.2271
  177SOPE  H11X20204   1.710   2.665   9.335  0.8789  0.2609 -2.8457
  177SOPE  H11Y20205   1.857   2.747   9.364 -0.2091 -1.6645  0.3231
  177SOPE  C31220206   1.736   2.844   9.221 -0.1557 -0.5388  0.2071
  177SOPE  H12X20207   1.751   2.763   9.147 -0.7819 -0.1894 -0.3243
  177SOPE  H12Y20208   1.819   2.918   9.212  1.0998 -2.0523 -1.1797
  177SOPE  C31320209   1.605   2.908   9.195  0.0549  0.2085  0.6482
  177SOPE  H13X20210   1.578   2.986   9.270  1.3584  1.4227 -0.0962
  177SOPE  H13Y20211   1.529   2.827   9.192  0.2456 -0.0024 -2.9843
  177SOPE  C31420212   1.611   2.982   9.062  0.0708 -0.4561  0.0536
  177SOPE  H14X20213   1.677   2.921   8.996  0.7440  0.0774  0.2327
  177SOPE  H14Y20214   1.658   3.082   9.066 -2.4036  0.7465  2.2918
  177SOPE  C31520215   1.472   2.983   8.993 -0.8178  1.0784 -0.0870
  177SOPE  H15X20216   1.396   3.025   9.063 -0.0262  0.5381  1.1332
  177SOPE  H15Y20217   1.440   2.882   8.962 -1.0419  0.6244  1.5032
  177SOPE  C31620218   1.488   3.074   8.877  0.4050  0.1178  0.2713
  177SOPE  H16X20219   1.571   3.038   8.814  0.4229 -0.8063  0.8135
  177SOPE  H16Y20220   1.507   3.176   8.919 -1.5273 -0.7048  3.5060
  177SOPE  C31720221   1.362   3.081   8.796 -0.0504  0.4800 -0.4056
  177SOPE  H17X20222   1.279   3.112   8.863  0.1221  0.0116  0.0409
  177SOPE  H17Y20223   1.335   2.983   8.750 -1.2994  0.1453  0.9700
  177SOPE  C31820224   1.373   3.181   8.684  0.3346 -0.3715  0.7237
  177SOPE  H18X20225   1.455   3.161   8.612 -1.5108  0.2041 -1.6767
  177SOPE  H18Y20226   1.393   3.275   8.740  1.0908  1.1918 -1.9958
  177SOPE  H18Z20227   1.271   3.192   8.640 -0.1215  1.3706  2.0894
  178SOPE     N20228   5.185   0.823  10.923  0.2711 -0.4399  0.3789
  178SOPE   HN120229   5.082   0.839  10.915  0.5956  0.8448 -2.7426
  178SOPE   HN220230   5.212   0.733  10.968  0.2289  0.1048  1.5414
  178SOPE   HN320231   5.225   0.899  10.983  2.7372 -1.1263 -0.2779
  178SOPE   C1220232   5.244   0.837  10.783  0.0924 -0.4028  0.2661
  178SOPE  H12A20233   5.246   0.732  10.748  0.9074 -0.5520  0.7375
  178SOPE  H12B20234   5.351   0.859  10.802  0.0251 -1.1634  1.7113
  178SOPE   C1120235   5.189   0.961  10.707 -1.4178 -0.5104  0.3919
  178SOPE  H11A20236   5.082   0.957  10.676 -0.7584  1.5021 -2.5703
  178SOPE  H11B20237   5.250   0.954  10.614 -0.0634 -1.7783  1.3304
  178SOPE     P20238   5.114   1.204  10.736 -0.0069 -0.0729  0.0321
  178SOPE   O1320239   5.159   1.328  10.813  0.4335  0.2709 -0.2718
  178SOPE   O1420240   4.981   1.160  10.785 -0.8139 -0.1541 -0.4108
  178SOPE   O1220241   5.218   1.084  10.770 -0.2047 -0.1150  0.3761
  178SOPE   O1120242   5.113   1.233  10.584 -0.2586 -0.1518 -0.0830
  178SOPE    C120243   5.062   1.148  10.485 -0.4068  0.5130  0.5101
  178SOPE    HA20244   4.977   1.084  10.515  1.1736 -0.8479  2.4125
  178SOPE    HB20245   5.141   1.074  10.458 -0.0712  0.8108  0.6597
  178SOPE    C220246   5.033   1.227  10.350 -0.7745 -0.5878  0.3537
  178SOPE    HS20247   4.952   1.298  10.377 -2.2722 -1.5569 -1.3932
  178SOPE   O2120248   5.001   1.130  10.251 -0.6905  0.0835  0.1480
  178SOPE   C2120249   4.876   1.125  10.209  0.5218  0.2518  0.1894
  178SOPE   O2220250   4.785   1.196  10.251  0.1486  0.2516  0.0221
  178SOPE   C2220251   4.875   1.030  10.085  0.3712 -0.6736 -0.2810
  178SOPE   H2R20252   4.854   0.926  10.120  2.3805 -1.0180 -0.0234
  178SOPE   H2S20253   4.971   1.034  10.030 -0.1179  0.1994 -1.0942
  178SOPE    C320254   5.161   1.295  10.304  0.3850 -0.8300 -0.3747
  178SOPE    HX20255   5.236   1.213  10.301 -0.0318 -1.1804 -2.1318
  178SOPE    HY20256   5.203   1.363  10.382  2.0517 -2.6085  0.3514
  178SOPE   O3120257   5.147   1.347  10.172  0.3595 -0.4126  0.2011
  178SOPE   C3120258   5.084   1.460  10.158 -0.4674 -0.3708  0.7998
  178SOPE   O3220259   5.044   1.528  10.252  0.0228 -0.4505 -0.1716
  178SOPE   C3220260   5.049   1.495  10.014 -0.3480  0.9028 -0.3635
  178SOPE   H2X20261   5.045   1.606  10.008 -0.3861  1.1070  2.3886
  178SOPE   H2Y20262   4.951   1.449   9.990 -0.9194  1.6161  0.5730
  178SOPE   C2320263   4.772   1.082   9.981  0.2196 -0.3513  0.0610
  178SOPE   H3R20264   4.777   1.192   9.970 -0.2251 -0.4203 -0.9197
  178SOPE   H3S20265   4.665   1.059   9.998  0.4622 -0.6840  1.2477
  178SOPE   C2420266   4.782   1.027   9.838  0.2171  0.3150  0.1502
  178SOPE   H4R20267   4.882   1.039   9.791 -0.4993 -0.8664 -1.8390
  178SOPE   H4S20268   4.765   0.917   9.834  3.0651 -0.1756 -1.9344
  178SOPE   C2520269   4.677   1.096   9.741  0.6089 -0.1344 -0.3015
  178SOPE   H5R20270   4.570   1.076   9.762  0.4314  0.8546 -0.1700
  178SOPE   H5S20271   4.702   1.202   9.763  0.5453 -0.1335 -0.2325
  178SOPE   C2620272   4.707   1.071   9.593  0.3562  0.7150 -0.1202
  178SOPE   H6R20273   4.813   1.090   9.566 -0.2944  1.0372 -2.7391
  178SOPE   H6S20274   4.678   0.967   9.568 -1.1521  1.4646 -1.7406
  178SOPE   C2720275   4.630   1.168   9.503 -0.2002  0.8173  0.1056
  178SOPE   H7R20276   4.525   1.139   9.525  0.2202 -0.1929  0.8275
  178SOPE   H7S20277   4.651   1.275   9.528  0.1377  0.4840  1.2948
  178SOPE   C2820278   4.667   1.131   9.358  0.8289 -0.6764 -0.4018
  178SOPE   H8R20279   4.667   1.020   9.350  0.3669 -0.8530  1.4922
  178SOPE   H8S20280   4.588   1.166   9.289  0.2629 -2.6439 -0.8224
  178SOPE   C2920281   4.802   1.193   9.326  0.2455  0.5826 -0.2307
  178SOPE   H9120282   4.867   1.231   9.406  2.3955  1.7010 -2.3913
  178SOPE  C21020283   4.840   1.212   9.206 -0.0370 -0.5001  0.2110
  178SOPE  H10120284   4.937   1.263   9.199  0.4676 -1.4964 -0.3639
  178SOPE  C21120285   4.767   1.169   9.078 -0.6509 -0.8688 -0.4111
  178SOPE  H11R20286   4.734   1.256   9.016 -0.7751  1.8772  3.1924
  178SOPE  H11S20287   4.675   1.110   9.098 -1.7944  0.8071 -0.5184
  178SOPE  C21220288   4.854   1.084   8.981 -0.2675 -0.1746 -0.1700
  178SOPE  H12R20289   4.877   0.991   9.038 -0.3576  2.4663  4.6680
  178SOPE  H12S20290   4.953   1.128   8.955 -0.3460  1.3019  1.7823
  178SOPE  C21320291   4.785   1.041   8.851  0.6026 -0.1213  0.2206
  178SOPE  H13R20292   4.700   0.970   8.852  0.4355  0.0775  0.8605
  178SOPE  H13S20293   4.862   0.978   8.802  1.9313 -0.6370  2.7827
  178SOPE  C21420294   4.743   1.164   8.758  0.2635 -0.3429 -0.3904
  178SOPE  H14R20295   4.834   1.227   8.744 -0.0633  0.2834  0.2021
  178SOPE  H14S20296   4.671   1.228   8.814  1.7204  3.6682 -2.6245
  178SOPE  C21520297   4.702   1.123   8.620  0.0091 -0.3359  0.4560
  178SOPE  H15R20298   4.651   1.024   8.610  1.2665 -0.8587 -1.2721
  178SOPE  H15S20299   4.797   1.098   8.569  0.2788 -1.2501  1.3650
  178SOPE  C21620300   4.625   1.238   8.555  0.0856  0.2645  0.1780
  178SOPE  H16R20301   4.664   1.340   8.578  0.9960 -0.1110  0.3414
  178SOPE  H16S20302   4.522   1.257   8.593 -0.6553  0.1204 -1.6809
  178SOPE  C21720303   4.606   1.210   8.409  0.0198 -0.0337  0.0866
  178SOPE  H17R20304   4.556   1.111   8.403 -0.1964  0.1428 -2.7701
  178SOPE  H17S20305   4.711   1.203   8.373 -0.5939 -1.2379 -1.5834
  178SOPE  C21820306   4.526   1.320   8.339  0.1825 -0.0609  0.2858
  178SOPE  H18R20307   4.523   1.299   8.230  0.9858  1.0108  0.0357
  178SOPE  H18S20308   4.563   1.422   8.365  0.2208  0.0443 -0.1788
  178SOPE  H18T20309   4.419   1.320   8.371 -0.5452  2.8774 -1.6948
  178SOPE   C3320310   5.149   1.440   9.897  0.5844  0.3966 -0.4406
  178SOPE   H3X20311   5.160   1.330   9.904  0.8698  0.4826  0.8696
  178SOPE   H3Y20312   5.249   1.485   9.913  1.0842 -0.8295 -0.0307
  178SOPE   C3420313   5.099   1.463   9.761  0.0993  0.2140  0.0183
  178SOPE   H4X20314   5.065   1.568   9.747  1.7986  0.8526  0.4030
  178SOPE   H4Y20315   5.012   1.397   9.740  1.3983 -1.4019 -0.5119
  178SOPE   C3520316   5.203   1.442   9.652 -0.3315 -0.1299  0.0642
  178SOPE   H5X20317   5.243   1.339   9.662  3.5380  1.0290 -1.3536
  178SOPE   H5Y20318   5.288   1.514   9.664 -1.1444  0.4718  2.9424
  178SOPE   C3620319   5.150   1.450   9.510 -0.5047  0.5430 -0.5728
  178SOPE   H6X20320   5.060   1.387   9.500  0.3486 -1.6273  3.2572
  178SOPE   H6Y20321   5.237   1.408   9.455 -0.0684  0.5162  0.1158
  178SOPE   C3720322   5.130   1.593   9.461  0.3764 -0.4924 -0.2741
  178SOPE   H7X20323   5.222   1.653   9.477 -1.0287  0.8385  3.8475
  178SOPE   H7Y20324   5.048   1.638   9.520  1.0453  0.2429  0.1158
  178SOPE   C3820325   5.088   1.591   9.307  0.8552 -0.4440 -0.0749
  178SOPE   H8X20326   5.072   1.698   9.284 -2.7193 -0.3623  2.0883
  178SOPE   H8Y20327   4.998   1.527   9.294  0.2708  0.1003  1.1857
  178SOPE   C3920328   5.205   1.531   9.225 -0.3244  0.0823  0.3539
  178SOPE   H9X20329   5.202   1.420   9.228 -0.5593  0.0503 -0.5910
  178SOPE   H9Y20330   5.299   1.557   9.278 -1.1610 -1.0503  2.4936
  178SOPE  C31020331   5.195   1.577   9.080  0.3314 -0.0764  0.7860
  178SOPE  H10X20332   5.166   1.684   9.072  0.8628  0.1762  2.1202
  178SOPE  H10Y20333   5.115   1.511   9.039  0.2819  0.4047  0.0774
  178SOPE  C31120334   5.320   1.544   8.989  0.3368 -0.3353  0.6509
  178SOPE  H11X20335   5.362   1.443   9.008 -0.6625 -0.7083  0.9755
  178SOPE  H11Y20336   5.399   1.610   9.030 -0.5510  0.8984  0.4173
  178SOPE  C31220337   5.295   1.573   8.843 -0.9740  0.0156  0.2606
  178SOPE  H12X20338   5.250   1.674   8.838 -1.7504 -0.2912  0.7580
  178SOPE  H12Y20339   5.210   1.509   8.809  0.2790 -1.7210  0.2716
  178SOPE  C31320340   5.417   1.564   8.747 -0.1962 -0.1478 -0.1157
  178SOPE  H13X20341   5.394   1.585   8.641  1.3985  0.2302 -0.4097
  178SOPE  H13Y20342   5.461   1.462   8.749 -1.1675 -0.6105  2.3584
  178SOPE  C31420343   5.529   1.659   8.787 -0.2323 -0.3179  0.3762
  178SOPE  H14X20344   5.573   1.628   8.884 -0.5803 -2.4300 -0.0804
  178SOPE  H14Y20345   5.493   1.761   8.809  0.7747  0.5754 -1.8143
  178SOPE  C31520346   5.637   1.661   8.680  0.7580 -0.7609  0.9895
  178SOPE  H15X20347   5.621   1.707   8.580  2.4045 -1.5843  0.3119
  178SOPE  H15Y20348   5.662   1.555   8.659  1.7862 -0.4733  0.7089
  178SOPE  C31620349   5.767   1.726   8.743 -0.4184  0.0778  0.1317
  178SOPE  H16X20350   5.809   1.648   8.811  2.5570  1.9849  0.6491
  178SOPE  H16Y20351   5.747   1.814   8.808  1.7576 -0.7414  2.0697
  178SOPE  C31720352   5.869   1.760   8.629 -0.5978 -0.2862 -0.6224
  178SOPE  H17X20353   5.881   1.669   8.566  0.7112 -0.2351 -0.4907
  178SOPE  H17Y20354   5.966   1.768   8.683 -1.2375 -4.1979  1.4039
  178SOPE  C31820355   5.856   1.889   8.550  0.1134  0.1304  0.0017
  178SOPE  H18X20356   5.763   1.877   8.489  1.5472 -0.5767 -2.1696
  178SOPE  H18Y20357   5.935   1.891   8.472 -0.5380 -0.7882 -0.7208
  178SOPE  H18Z20358   5.849   1.985   8.604 -3.3627 -0.9305  1.7490
  179SOPE     N20359   1.244   4.112   5.755 -0.1930  0.1943  0.2844
  179SOPE   HN120360   1.315   4.083   5.825  0.7751  0.0437 -0.7351
  179SOPE   HN220361   1.184   4.032   5.725  0.0824  0.7965 -2.1030
  179SOPE   HN320362   1.293   4.144   5.669 -1.4826 -4.2413 -2.4397
  179SOPE   C1220363   1.165   4.212   5.839 -0.2962  0.0846  0.4461
  179SOPE  H12A20364   1.065   4.166   5.851 -0.7703  0.5154 -1.4782
  179SOPE  H12B20365   1.150   4.304   5.778  0.2390  1.2866  2.0641
  179SOPE   C1120366   1.233   4.236   5.970 -1.1243 -0.4530  0.6232
  179SOPE  H11A20367   1.240   4.145   6.033 -0.8537  0.0430  1.3184
  179SOPE  H11B20368   1.173   4.309   6.027 -0.6713 -0.8165  1.6012
  179SOPE     P20369   1.389   4.441   5.927  0.5782 -0.2136  0.5060
  179SOPE   O1320370   1.298   4.504   5.828  0.4889 -0.1105  0.7265
  179SOPE   O1420371   1.535   4.459   5.906 -0.1266 -0.1153  0.1752
  179SOPE   O1220372   1.363   4.284   5.937 -0.1944  0.0940 -0.0627
  179SOPE   O1120373   1.346   4.483   6.076 -0.6815 -0.1563 -0.4566
  179SOPE    C120374   1.408   4.595   6.143  0.5530 -0.5840  0.1824
  179SOPE    HA20375   1.342   4.665   6.198 -0.3948 -0.7073 -0.7570
  179SOPE    HB20376   1.470   4.648   6.068 -1.1271 -2.2289 -2.5174
  179SOPE    C220377   1.508   4.558   6.253 -0.4386  0.7240 -0.4213
  179SOPE    HS20378   1.588   4.491   6.214  0.7704  1.3086  0.9786
  179SOPE   O2120379   1.437   4.491   6.354  0.8375 -0.3340 -0.2857
  179SOPE   C2120380   1.495   4.410   6.433  0.7900 -0.2755 -0.2177
  179SOPE   O2220381   1.609   4.366   6.428  0.3855  0.3605 -0.6957
  179SOPE   C2220382   1.406   4.378   6.557  0.1099 -0.3962  0.5164
  179SOPE   H2R20383   1.370   4.274   6.541 -0.1403 -0.5346  1.8689
  179SOPE   H2S20384   1.322   4.450   6.558 -0.6161 -1.2005 -0.0282
  179SOPE    C320385   1.573   4.693   6.306 -1.0921 -0.2502 -0.6325
  179SOPE    HX20386   1.494   4.762   6.343 -0.5719 -0.7047  1.4710
  179SOPE    HY20387   1.619   4.736   6.215  0.6976 -0.5031  0.1187
  179SOPE   O3120388   1.661   4.677   6.424  0.7156  0.0205  0.0218
  179SOPE   C3120389   1.776   4.622   6.403  0.1668  0.9435 -0.1886
  179SOPE   O3220390   1.821   4.576   6.292 -0.0763 -0.2372 -0.2135
  179SOPE   C3220391   1.848   4.606   6.538 -0.0967 -0.7165 -0.1286
  179SOPE   H2X20392   1.941   4.665   6.529 -0.9739  1.1617  2.1238
  179SOPE   H2Y20393   1.870   4.499   6.556 -0.8583 -0.8338  0.1535
  179SOPE   C2320394   1.485   4.377   6.686 -0.0833 -0.0298  0.1596
  179SOPE   H3R20395   1.501   4.483   6.712 -1.4886  0.4564 -0.8364
  179SOPE   H3S20396   1.583   4.325   6.685  0.0030  0.1039 -1.5350
  179SOPE   C2420397   1.399   4.332   6.810 -0.0115 -0.2253  0.0390
  179SOPE   H4R20398   1.303   4.388   6.805 -1.1412 -1.6010  3.4161
  179SOPE   H4S20399   1.374   4.225   6.797  1.3042 -0.3857 -1.3226
  179SOPE   C2520400   1.468   4.354   6.944  0.6781 -0.7616  1.1671
  179SOPE   H5R20401   1.560   4.292   6.946 -0.4730 -2.5047  1.5487
  179SOPE   H5S20402   1.479   4.465   6.951  0.9419 -0.3268 -3.2777
  179SOPE   C2620403   1.384   4.323   7.064  0.1360  0.2385  0.9386
  179SOPE   H6R20404   1.304   4.400   7.072  0.5784  0.7823  0.2781
  179SOPE   H6S20405   1.333   4.225   7.053  0.3099 -0.0553  2.4834
  179SOPE   C2720406   1.455   4.317   7.201 -0.3581 -0.4438  0.2828
  179SOPE   H7R20407   1.389   4.274   7.279  1.2248  0.1571  2.0464
  179SOPE   H7S20408   1.540   4.245   7.194 -2.2484 -3.0280  1.8659
  179SOPE   C2820409   1.511   4.453   7.246  0.1374 -0.0433  0.0208
  179SOPE   H8R20410   1.566   4.436   7.341 -0.5187 -1.4391  0.1864
  179SOPE   H8S20411   1.580   4.494   7.169 -0.2713 -0.7679 -0.7504
  179SOPE   C2920412   1.403   4.555   7.264  0.0143 -0.0085  0.6021
  179SOPE   H9120413   1.354   4.596   7.175  0.2721 -0.2071  0.3653
  179SOPE  C21020414   1.338   4.576   7.381 -0.0563 -0.2943  0.6411
  179SOPE  H10120415   1.258   4.652   7.371 -1.1224 -1.6665 -2.9686
  179SOPE  C21120416   1.382   4.525   7.511 -0.7626 -0.8477  0.1747
  179SOPE  H11R20417   1.466   4.452   7.515  1.0310  1.1074 -0.1807
  179SOPE  H11S20418   1.297   4.469   7.555 -3.8307  1.6575 -2.0312
  179SOPE  C21220419   1.421   4.645   7.601  0.1448  0.3581  0.4083
  179SOPE  H12R20420   1.359   4.737   7.595 -1.2740 -0.5857  0.1319
  179SOPE  H12S20421   1.526   4.673   7.576  0.2700 -1.9152 -2.1427
  179SOPE  C21320422   1.447   4.592   7.752 -0.3040 -0.2151  0.3969
  179SOPE  H13R20423   1.350   4.579   7.805 -0.7302  0.3806 -0.2318
  179SOPE  H13S20424   1.499   4.676   7.802  0.1739 -0.9434  1.1554
  179SOPE  C21420425   1.525   4.468   7.758  0.4821  0.0627 -0.1918
  179SOPE  H14R20426   1.615   4.474   7.692  0.6797  2.4542  0.2267
  179SOPE  H14S20427   1.459   4.384   7.726  0.1493  0.5568 -0.8202
  179SOPE  C21520428   1.569   4.433   7.905 -0.4091 -0.3209 -0.3282
  179SOPE  H15R20429   1.632   4.511   7.954  0.3773 -3.1229  3.5294
  179SOPE  H15S20430   1.618   4.334   7.907 -1.3529 -0.7988 -0.0877
  179SOPE  C21620431   1.459   4.417   8.012  0.0834 -0.1306 -0.4018
  179SOPE  H16R20432   1.392   4.505   8.003 -0.5459  0.2717  4.8072
  179SOPE  H16S20433   1.501   4.423   8.115  2.2942 -2.0018 -1.1098
  179SOPE  C21720434   1.366   4.295   7.996  0.1229  0.4219  0.2350
  179SOPE  H17R20435   1.435   4.209   7.992  0.6526  0.8822 -3.2613
  179SOPE  H17S20436   1.311   4.299   7.900 -1.7895  0.6383  1.2878
  179SOPE  C21820437   1.252   4.282   8.109  0.5714 -0.7072  0.4408
  179SOPE  H18R20438   1.172   4.212   8.075 -2.3011  1.0102  3.0845
  179SOPE  H18S20439   1.207   4.378   8.144  0.7427 -1.0736  1.7077
  179SOPE  H18T20440   1.308   4.239   8.194 -1.7357 -3.2936  0.8054
  179SOPE   C3320441   1.771   4.659   6.659 -0.4917 -0.4567 -0.0480
  179SOPE   H3X20442   1.680   4.605   6.693 -0.6747  0.5916  1.1832
  179SOPE   H3Y20443   1.746   4.763   6.629 -0.3550 -0.3979  0.0424
  179SOPE   C3420444   1.856   4.682   6.784 -0.2882 -0.2597 -0.0683
  179SOPE   H4X20445   1.798   4.737   6.861 -1.0388  0.2251 -0.9548
  179SOPE   H4Y20446   1.944   4.749   6.773  1.2148 -2.2526 -0.7027
  179SOPE   C3520447   1.922   4.555   6.834 -0.1522  0.4561 -0.5183
  179SOPE   H5X20448   2.001   4.520   6.764 -1.1567  0.0941 -1.4957
  179SOPE   H5Y20449   1.848   4.473   6.850 -0.8336  1.3075  0.8267
  179SOPE   C3620450   2.003   4.572   6.965  0.4459  0.6719  0.5600
  179SOPE   H6X20451   2.085   4.644   6.945  0.3510  0.1914 -1.7963
  179SOPE   H6Y20452   2.049   4.472   6.984 -0.8514 -0.5706 -2.2703
  179SOPE   C3720453   1.921   4.605   7.089 -0.4234 -0.3899 -0.2668
  179SOPE   H7X20454   1.851   4.521   7.104  1.3570 -2.2449 -1.8068
  179SOPE   H7Y20455   1.865   4.698   7.062  0.2126 -0.1281 -0.6992
  179SOPE   C3820456   2.002   4.604   7.221  0.9766  0.5068 -0.1405
  179SOPE   H8X20457   2.077   4.685   7.210  0.9214  0.4600 -0.9226
  179SOPE   H8Y20458   2.051   4.504   7.225 -1.1655 -0.5640  1.0666
  179SOPE   C3920459   1.928   4.624   7.353  1.1907 -0.6201  0.2081
  179SOPE   H9X20460   1.864   4.534   7.366  0.5946 -0.2683 -0.2296
  179SOPE   H9Y20461   1.862   4.713   7.362  0.2084 -1.2418 -0.6232
  179SOPE  C31020462   2.027   4.631   7.471  0.3782  0.0104  0.2997
  179SOPE  H10X20463   2.105   4.704   7.442  2.9722 -3.1825 -1.4691
  179SOPE  H10Y20464   2.080   4.534   7.460 -0.4291 -0.5121  0.8607
  179SOPE  C31120465   1.950   4.637   7.599 -0.1244 -0.2646 -0.7623
  179SOPE  H11X20466   1.872   4.560   7.583 -1.3399  0.9563 -0.8956
  179SOPE  H11Y20467   1.901   4.736   7.607  0.7358  0.1689 -0.7307
  179SOPE  C31220468   2.031   4.612   7.726  0.5264 -0.0995  0.0187
  179SOPE  H12X20469   2.134   4.653   7.715  0.0177  2.2549  2.5997
  179SOPE  H12Y20470   2.043   4.502   7.734 -3.6611 -0.6711  0.6947
  179SOPE  C31320471   1.971   4.665   7.859 -0.4916 -0.3362 -0.5356
  179SOPE  H13X20472   1.864   4.636   7.863 -0.0726 -1.8594  0.6199
  179SOPE  H13Y20473   1.962   4.775   7.847  0.0097 -0.4235 -1.9659
  179SOPE  C31420474   2.042   4.603   7.980  0.3317 -0.2183  0.3403
  179SOPE  H14X20475   2.151   4.603   7.962  0.4524  0.0444  1.0482
  179SOPE  H14Y20476   1.999   4.501   7.995 -0.2679  0.1286  1.0225
  179SOPE  C31520477   2.029   4.688   8.106  0.0485 -0.1174 -0.5395
  179SOPE  H15X20478   1.922   4.696   8.137  0.1562 -1.1730  0.1428
  179SOPE  H15Y20479   2.073   4.785   8.077 -1.6336  1.5082  1.9534
  179SOPE  C31620480   2.105   4.634   8.223  0.4217  0.4681 -0.0234
  179SOPE  H16X20481   2.179   4.563   8.180 -2.0002 -1.9665 -0.3880
  179SOPE  H16Y20482   2.039   4.569   8.284  1.1094 -1.5702 -1.3623
  179SOPE  C31720483   2.169   4.744   8.312 -0.8535  0.6893  0.3810
  179SOPE  H17X20484   2.086   4.800   8.359 -0.4836  1.4576  0.1310
  179SOPE  H17Y20485   2.226   4.808   8.241  0.3541 -2.0146 -1.2951
  179SOPE  C31820486   2.261   4.686   8.423 -0.4093  0.1648 -0.9066
  179SOPE  H18X20487   2.212   4.594   8.462  0.3965 -0.6235 -1.7087
  179SOPE  H18Y20488   2.273   4.769   8.496 -4.5726 -1.0314  1.4809
  179SOPE  H18Z20489   2.355   4.659   8.370 -1.7248 -0.1939 -3.1961
  180SOPE     N20490   2.058   3.337   6.248 -0.1511  0.2926  0.2036
  180SOPE   HN120491   2.158   3.307   6.240 -0.1902 -0.1036  1.1681
  180SOPE   HN220492   2.035   3.356   6.347 -0.5966 -2.6740  0.7388
  180SOPE   HN320493   2.011   3.250   6.216  1.3714 -1.2783  2.0245
  180SOPE   C1220494   2.027   3.463   6.169  0.7562 -0.1904 -0.1794
  180SOPE  H12A20495   2.074   3.454   6.069  1.2059  1.2335 -0.1081
  180SOPE  H12B20496   2.078   3.546   6.221  2.0458 -0.0095 -1.6436
  180SOPE   C1120497   1.879   3.490   6.164 -0.2250  0.2939 -0.3522
  180SOPE  H11A20498   1.826   3.407   6.112 -1.4457  0.3666  0.7494
  180SOPE  H11B20499   1.851   3.578   6.102 -2.6222  1.1053  1.7341
  180SOPE     P20500   1.703   3.418   6.344  0.5542 -0.0394  0.0070
  180SOPE   O1320501   1.732   3.276   6.307 -0.1054 -0.2932  0.1933
  180SOPE   O1420502   1.573   3.477   6.312 -0.7553  0.3843  0.5817
  180SOPE   O1220503   1.827   3.509   6.291  0.7095  0.1154 -0.5552
  180SOPE   O1120504   1.718   3.435   6.500 -0.1754 -0.2222  0.3125
  180SOPE    C120505   1.741   3.561   6.570  0.6303 -0.0033  1.2424
  180SOPE    HA20506   1.660   3.576   6.644 -0.8562  1.3122 -0.5640
  180SOPE    HB20507   1.744   3.647   6.500 -1.0305 -1.9585 -1.4582
  180SOPE    C220508   1.887   3.564   6.624  0.0406 -0.2821  0.0624
  180SOPE    HS20509   1.959   3.584   6.541 -0.1770  2.0506  0.3762
  180SOPE   O2120510   1.926   3.443   6.694 -0.2039  0.6663  0.3692
  180SOPE   C2120511   1.982   3.352   6.612  0.2028  0.0417 -0.1066
  180SOPE   O2220512   2.034   3.367   6.506 -0.3025  0.3892 -0.1428
  180SOPE   C2220513   1.968   3.218   6.688  0.2643 -0.2228 -0.1440
  180SOPE   H2R20514   2.033   3.140   6.643 -2.2244 -1.7146 -1.3782
  180SOPE   H2S20515   1.864   3.184   6.670  0.2975  0.3395 -1.5484
  180SOPE    C320516   1.888   3.680   6.727 -0.2020 -0.1501 -0.2487
  180SOPE    HX20517   1.839   3.765   6.674 -2.3100 -2.2680 -1.9104
  180SOPE    HY20518   1.992   3.700   6.760 -0.6913  0.5483  0.9343
  180SOPE   O3120519   1.807   3.651   6.836 -0.4031 -0.1229  0.2121
  180SOPE   C3120520   1.861   3.626   6.956  0.3427  0.3179 -0.8872
  180SOPE   O3220521   1.983   3.629   6.981  0.0201 -0.1080 -0.2215
  180SOPE   C3220522   1.754   3.583   7.057 -0.2511 -0.0374  0.1979
  180SOPE   H2X20523   1.664   3.541   7.008  1.2836 -3.8096  0.2642
  180SOPE   H2Y20524   1.732   3.679   7.109  0.5909  1.0221 -1.3047
  180SOPE   C2320525   1.983   3.225   6.836  0.1528  1.1008  0.1274
  180SOPE   H3R20526   1.901   3.291   6.871 -1.3334  0.1385 -1.4347
  180SOPE   H3S20527   2.080   3.270   6.868  0.5224  0.2667  0.2203
  180SOPE   C2420528   1.959   3.086   6.904  0.0297  0.6228 -0.4126
  180SOPE   H4R20529   1.914   3.022   6.825 -0.0869 -0.9182  0.8632
  180SOPE   H4S20530   2.060   3.043   6.924 -0.3499 -0.8474 -1.4801
  180SOPE   C2520531   1.873   3.091   7.030 -0.1449 -0.4383 -0.5789
  180SOPE   H5R20532   1.919   3.158   7.105  1.7143  0.7472 -2.6667
  180SOPE   H5S20533   1.783   3.149   6.998  0.1794  0.9736  0.9709
  180SOPE   C2620534   1.840   2.947   7.079 -0.1176 -0.6851  0.5016
  180SOPE   H6R20535   1.781   2.898   6.999  0.3655  2.3622 -1.9071
  180SOPE   H6S20536   1.944   2.908   7.086  0.7005  1.5235  1.3312
  180SOPE   C2720537   1.773   2.949   7.213 -0.1164  0.4105  0.3512
  180SOPE   H7R20538   1.804   3.031   7.281  2.3688  1.7935 -2.2571
  180SOPE   H7S20539   1.667   2.958   7.180  0.8559 -0.6745 -3.4935
  180SOPE   C2820540   1.793   2.812   7.289  0.2395 -0.7809  0.1327
  180SOPE   H8R20541   1.779   2.738   7.208  1.2714 -0.9795  0.1249
  180SOPE   H8S20542   1.901   2.794   7.310  1.3591 -0.6064 -4.4470
  180SOPE   C2920543   1.702   2.795   7.411 -0.5193 -0.2232 -0.4645
  180SOPE   H9120544   1.599   2.836   7.408 -1.1770 -1.8240 -0.5272
  180SOPE  C21020545   1.745   2.717   7.519 -1.0757  0.2146 -0.7189
  180SOPE  H10120546   1.688   2.708   7.613  3.8213  1.7668  2.8575
  180SOPE  C21120547   1.881   2.659   7.543  0.5694 -0.3373 -1.0736
  180SOPE  H11R20548   1.944   2.651   7.451 -1.7459  2.6089 -3.1010
  180SOPE  H11S20549   1.879   2.551   7.571  1.0968 -0.3995 -1.2585
  180SOPE  C21220550   1.962   2.734   7.658 -0.6427 -0.4912 -0.0258
  180SOPE  H12R20551   1.985   2.834   7.616 -0.6582 -0.7603 -0.6804
  180SOPE  H12S20552   2.054   2.674   7.669  0.9858  2.1978  2.6475
  180SOPE  C21320553   1.882   2.748   7.788  0.1811 -0.8460  0.2169
  180SOPE  H13R20554   1.821   2.655   7.793  1.1799 -1.5889 -0.8674
  180SOPE  H13S20555   1.816   2.837   7.788  0.3263 -0.7045  1.7967
  180SOPE  C21420556   1.969   2.772   7.912 -0.2018  0.7138  0.1314
  180SOPE  H14R20557   2.029   2.865   7.899  0.5769  0.3574  1.0396
  180SOPE  H14S20558   2.046   2.693   7.925 -1.7669 -0.9429 -0.1541
  180SOPE  C21520559   1.895   2.779   8.045  0.3406  0.0199 -0.2419
  180SOPE  H15R20560   1.862   2.677   8.076  2.2250 -0.9646 -1.2738
  180SOPE  H15S20561   1.809   2.847   8.028  0.7983  0.0079 -3.2555
  180SOPE  C21620562   1.974   2.864   8.144  0.0301  0.0669  0.1682
  180SOPE  H16R20563   1.994   2.968   8.113 -0.9310  1.1860  2.9149
  180SOPE  H16S20564   2.068   2.807   8.161 -0.6552 -0.9248  0.7827
  180SOPE  C21720565   1.902   2.866   8.283  0.1529  0.3963 -1.0479
  180SOPE  H17R20566   1.964   2.907   8.365  1.3893 -2.2165 -0.5569
  180SOPE  H17S20567   1.883   2.758   8.303 -2.9685  0.7397 -1.6593
  180SOPE  C21820568   1.772   2.949   8.261  0.2631  0.4563 -0.4895
  180SOPE  H18R20569   1.803   3.044   8.214  1.9334  0.6991  0.9946
  180SOPE  H18S20570   1.736   2.967   8.365  0.7383 -3.2553  0.4597
  180SOPE  H18T20571   1.699   2.882   8.210  0.6828 -0.0032 -0.4931
  180SOPE   C3320572   1.808   3.481   7.160 -0.6157 -0.3022  0.4218
  180SOPE   H3X20573   1.910   3.507   7.194 -1.2553  2.1479  0.7054
  180SOPE   H3Y20574   1.812   3.377   7.121 -1.8353 -1.0178  2.0732
  180SOPE   C3420575   1.730   3.479   7.298 -0.0709 -0.3637  0.5001
  180SOPE   H4X20576   1.769   3.395   7.359 -1.1000  0.8105  2.9036
  180SOPE   H4Y20577   1.627   3.456   7.266 -0.5754  1.1937  0.9348
  180SOPE   C3520578   1.735   3.601   7.393  0.4045  0.8093 -0.4332
  180SOPE   H5X20579   1.669   3.682   7.356  1.6635  2.8651  1.5808
  180SOPE   H5Y20580   1.839   3.639   7.390  0.7356 -0.1131 -1.3848
  180SOPE   C3620581   1.676   3.568   7.536 -0.8534 -0.9085 -0.0851
  180SOPE   H6X20582   1.693   3.462   7.564 -1.0599 -0.8891  0.1228
  180SOPE   H6Y20583   1.566   3.585   7.538 -0.6191  0.6985  0.4689
  180SOPE   C3720584   1.743   3.652   7.649  0.2212 -0.0688 -0.2954
  180SOPE   H7X20585   1.693   3.750   7.633 -1.3465 -0.7873  0.0129
  180SOPE   H7Y20586   1.850   3.669   7.627  0.3816  1.9354  1.6854
  180SOPE   C3820587   1.709   3.600   7.785 -0.0543  0.3302 -0.5008
  180SOPE   H8X20588   1.737   3.493   7.789  0.9003  0.5854  0.0233
  180SOPE   H8Y20589   1.602   3.611   7.814 -0.2143  0.3875 -1.0996
  180SOPE   C3920590   1.777   3.684   7.887  0.0367 -0.8737 -0.1996
  180SOPE   H9X20591   1.736   3.788   7.890  2.2445  0.0961 -1.2283
  180SOPE   H9Y20592   1.885   3.702   7.864  0.0695 -2.6942 -1.6421
  180SOPE  C31020593   1.774   3.614   8.026  0.3664 -0.6979  0.4685
  180SOPE  H10X20594   1.670   3.587   8.053 -0.3307  1.0817 -0.2249
  180SOPE  H10Y20595   1.807   3.691   8.099  0.3279 -0.0953 -0.1335
  180SOPE  C31120596   1.851   3.485   8.039 -0.2308  0.2670  0.2025
  180SOPE  H11X20597   1.948   3.516   7.994 -0.2663  0.7772  0.4682
  180SOPE  H11Y20598   1.814   3.406   7.970  0.5280  0.6064 -0.6166
  180SOPE  C31220599   1.882   3.441   8.184 -0.5994 -0.4634  0.4111
  180SOPE  H12X20600   1.783   3.399   8.213 -1.0470 -1.4558 -2.2386
  180SOPE  H12Y20601   1.895   3.529   8.251 -1.0013  0.4772 -0.6980
  180SOPE  C31320602   2.000   3.346   8.180 -0.3452 -0.3229  0.2799
  180SOPE  H13X20603   2.095   3.385   8.137 -1.0047  0.0371 -0.8789
  180SOPE  H13Y20604   1.979   3.256   8.117 -0.5474  0.6327 -1.0584
  180SOPE  C31420605   2.042   3.295   8.316 -0.0230 -0.5702  0.1072
  180SOPE  H14X20606   1.951   3.255   8.366 -1.5204 -0.2276 -2.2177
  180SOPE  H14Y20607   2.090   3.372   8.381  1.2525 -1.0320 -0.2395
  180SOPE  C31520608   2.165   3.189   8.321 -0.1660 -0.2279  0.0186
  180SOPE  H15X20609   2.262   3.240   8.301 -0.0739 -0.5281 -0.3027
  180SOPE  H15Y20610   2.139   3.117   8.240 -2.5298 -0.5082  0.9462
  180SOPE  C31620611   2.167   3.118   8.462  0.6727 -0.2790  0.9847
  180SOPE  H16X20612   2.066   3.081   8.488  0.5573 -0.5420  0.2019
  180SOPE  H16Y20613   2.190   3.203   8.530 -0.4935  0.2962  0.6922
  180SOPE  C31720614   2.269   3.003   8.473 -0.4332  0.3242  0.3094
  180SOPE  H17X20615   2.230   2.927   8.402 -1.0263  1.0770 -0.1880
  180SOPE  H17Y20616   2.253   2.956   8.572 -2.5729  2.1782  0.9193
  180SOPE  C31820617   2.412   3.040   8.429  0.4274  0.6304 -0.1933
  180SOPE  H18X20618   2.480   2.952   8.424 -1.7137 -1.0648 -1.1671
  180SOPE  H18Y20619   2.447   3.105   8.513  0.5334 -1.3522  1.3889
  180SOPE  H18Z20620   2.408   3.085   8.328 -1.5104  0.0051 -0.4413
  181SOPE     N20621   1.696   2.342   5.900 -0.4861  0.5856  0.3511
  181SOPE   HN120622   1.768   2.351   5.826 -1.6907  2.6678 -0.6651
  181SOPE   HN220623   1.716   2.262   5.963  0.9520  2.0307  1.8159
  181SOPE   HN320624   1.606   2.315   5.853 -0.8718  0.0172  1.3810
  181SOPE   C1220625   1.696   2.466   5.977 -0.0448  0.2508  0.0745
  181SOPE  H12A20626   1.595   2.486   6.020  0.7665  0.2082  2.1033
  181SOPE  H12B20627   1.711   2.547   5.902  1.2641  0.5510  0.6319
  181SOPE   C1120628   1.809   2.465   6.075  0.2976 -0.5137 -0.6495
  181SOPE  H11A20629   1.797   2.373   6.136  0.1252  0.3623  0.6826
  181SOPE  H11B20630   1.803   2.559   6.134 -1.2532 -2.2955  2.2806
  181SOPE     P20631   2.037   2.572   5.976  0.0866  0.2279 -0.0239
  181SOPE   O1320632   1.955   2.686   5.942  0.0899 -0.3158 -0.0558
  181SOPE   O1420633   2.139   2.523   5.883  0.0083  0.4290 -0.0524
  181SOPE   O1220634   1.936   2.456   6.008 -0.0261 -0.0863 -0.2987
  181SOPE   O1120635   2.105   2.598   6.116  0.1973 -0.5061  0.0965
  181SOPE    C120636   2.160   2.499   6.211  0.7013 -0.5389 -0.3482
  181SOPE    HA20637   2.250   2.539   6.264 -0.7939 -0.1556  2.0645
  181SOPE    HB20638   2.184   2.402   6.162  1.7826 -0.9175  0.8621
  181SOPE    C220639   2.060   2.461   6.324 -0.4995 -0.1884 -0.2215
  181SOPE    HS20640   1.974   2.411   6.274  0.7856 -0.6487 -2.0969
  181SOPE   O2120641   2.036   2.581   6.392 -0.4213 -1.1314  0.0018
  181SOPE   C2120642   1.913   2.589   6.443 -0.1435 -0.3874  0.0485
  181SOPE   O2220643   1.824   2.512   6.417  0.0754  0.0575 -0.5487
  181SOPE   C2220644   1.901   2.707   6.544 -0.2329  0.5978 -0.0722
  181SOPE   H2R20645   1.892   2.802   6.488 -2.6948  1.2178  1.2088
  181SOPE   H2S20646   1.991   2.701   6.608  0.9544 -0.8428 -1.7710
  181SOPE    C320647   2.122   2.355   6.425  0.4190  0.0450 -0.2501
  181SOPE    HX20648   2.204   2.406   6.479  0.3096 -1.0212  0.9496
  181SOPE    HY20649   2.161   2.268   6.369 -1.5086 -1.1308  0.1565
  181SOPE   O3120650   2.033   2.315   6.529 -0.1558  0.2581 -0.3943
  181SOPE   C3120651   1.943   2.214   6.492 -0.4142  0.0622  0.1255
  181SOPE   O3220652   1.938   2.174   6.380  0.4250 -0.4796  0.2012
  181SOPE   C3220653   1.845   2.181   6.601  0.1657 -0.2914 -0.1870
  181SOPE   H2X20654   1.766   2.112   6.564 -2.7762  2.8522 -0.2317
  181SOPE   H2Y20655   1.788   2.275   6.617  0.2156 -0.6921  2.9798
  181SOPE   C2320656   1.775   2.705   6.630  0.6158  0.7659 -0.0811
  181SOPE   H3R20657   1.684   2.660   6.584  0.5009  1.0639 -0.1450
  181SOPE   H3S20658   1.738   2.809   6.642 -1.4940  0.3135 -1.8645
  181SOPE   C2420659   1.805   2.661   6.775 -0.3536 -0.0987 -0.7407
  181SOPE   H4R20660   1.903   2.700   6.810 -0.2797 -0.3167 -0.7057
  181SOPE   H4S20661   1.721   2.704   6.834  0.2585 -1.2970  1.0910
  181SOPE   C2520662   1.799   2.510   6.793  0.3868  0.0069  0.0487
  181SOPE   H5R20663   1.704   2.463   6.761  1.3925 -1.0967 -1.4941
  181SOPE   H5S20664   1.877   2.471   6.724  0.1481 -0.4741  0.0462
  181SOPE   C2620665   1.829   2.459   6.938  0.5425  0.3964  0.1242
  181SOPE   H6R20666   1.772   2.528   7.004  0.4577 -0.5849  1.1003
  181SOPE   H6S20667   1.785   2.361   6.964  0.2941  0.4093 -0.2357
  181SOPE   C2720668   1.971   2.460   6.986  0.2952  0.0273  0.0829
  181SOPE   H7R20669   2.036   2.386   6.935  0.9223 -1.2711  2.5991
  181SOPE   H7S20670   2.000   2.567   6.973 -0.9915  0.4674  0.6022
  181SOPE   C2820671   1.983   2.435   7.136 -0.4821  0.0427 -0.9022
  181SOPE   H8R20672   1.923   2.512   7.189 -4.3781 -1.1607 -3.1404
  181SOPE   H8S20673   1.931   2.339   7.155 -1.0898  0.1906 -1.7851
  181SOPE   C2920674   2.129   2.439   7.180 -0.0593  0.3357  0.0926
  181SOPE   H9120675   2.204   2.481   7.111  1.1524 -0.1172  1.0992
  181SOPE  C21020676   2.169   2.381   7.294 -0.7726  0.3595 -0.7200
  181SOPE  H10120677   2.277   2.375   7.314 -0.8720  0.3755 -0.1527
  181SOPE  C21120678   2.078   2.319   7.392 -0.5600  0.1680 -0.0646
  181SOPE  H11R20679   2.092   2.209   7.388 -0.2674  0.1342  1.2752
  181SOPE  H11S20680   1.970   2.329   7.369 -0.4680 -3.5072 -3.0525
  181SOPE  C21220681   2.114   2.367   7.531 -0.1049 -0.1865  0.4463
  181SOPE  H12R20682   2.092   2.475   7.546 -0.3452 -0.4764  2.4199
  181SOPE  H12S20683   2.212   2.341   7.576 -0.7967 -0.0755  2.0720
  181SOPE  C21320684   2.023   2.302   7.642  0.2839 -0.4071 -0.5982
  181SOPE  H13R20685   2.016   2.191   7.638 -1.3923 -0.3565 -0.0088
  181SOPE  H13S20686   1.915   2.321   7.622  0.2764  0.2784  0.0624
  181SOPE  C21420687   2.063   2.343   7.782 -0.7536 -0.2120 -0.0408
  181SOPE  H14R20688   2.081   2.452   7.790  1.9876 -0.5405 -0.7845
  181SOPE  H14S20689   2.169   2.310   7.788 -0.0445  1.3746 -2.4925
  181SOPE  C21520690   1.985   2.296   7.906  0.4921  0.2236 -0.7217
  181SOPE  H15R20691   2.006   2.187   7.906  2.7844  0.6084 -1.3232
  181SOPE  H15S20692   1.876   2.302   7.886 -0.0824  0.4156  2.0476
  181SOPE  C21620693   2.019   2.363   8.042 -0.9058 -0.1130  0.0615
  181SOPE  H16R20694   2.026   2.473   8.027 -2.4717 -0.2687 -2.2952
  181SOPE  H16S20695   2.115   2.314   8.071 -0.2127  1.5338  0.6312
  181SOPE  C21720696   1.917   2.330   8.152 -0.4867 -0.8951 -0.4342
  181SOPE  H17R20697   1.960   2.343   8.254 -2.4183  0.7324  0.2376
  181SOPE  H17S20698   1.898   2.224   8.124  0.1639 -0.8608 -1.0353
  181SOPE  C21820699   1.793   2.412   8.155  0.0366 -0.1082  0.2296
  181SOPE  H18R20700   1.720   2.371   8.228 -1.4629 -1.7015 -1.9971
  181SOPE  H18S20701   1.742   2.405   8.056  1.0060 -0.4079 -0.2575
  181SOPE  H18T20702   1.811   2.520   8.171  0.7185 -0.2300  0.2839
  181SOPE   C3320703   1.904   2.156   6.741 -0.0445 -0.0667 -0.5854
  181SOPE   H3X20704   1.816   2.142   6.807 -0.6932  0.3344 -1.3404
  181SOPE   H3Y20705   1.946   2.252   6.777 -0.0574 -0.4655  0.5428
  181SOPE   C3420706   1.999   2.040   6.740  0.0057  0.4182 -0.2517
  181SOPE   H4X20707   2.080   2.069   6.670  0.2636 -1.8610 -0.9736
  181SOPE   H4Y20708   1.943   1.957   6.691 -2.2663  0.9566  1.2820
  181SOPE   C3520709   2.064   2.004   6.874  1.2555  0.0214  0.8348
  181SOPE   H5X20710   2.152   2.070   6.894  1.2486 -0.1505  1.4621
  181SOPE   H5Y20711   2.118   1.908   6.863 -1.6142 -1.7216  1.0349
  181SOPE   C3620712   1.955   1.986   6.982 -0.0092 -0.0934  0.1987
  181SOPE   H6X20713   1.878   1.918   6.939  1.1684 -0.4416 -1.4400
  181SOPE   H6Y20714   1.899   2.080   6.999 -1.6905 -0.0939 -4.0955
  181SOPE   C3720715   2.017   1.949   7.117 -0.2376 -0.4465 -0.3530
  181SOPE   H7X20716   2.103   2.013   7.142 -0.6707  0.0431 -0.0964
  181SOPE   H7Y20717   2.061   1.852   7.086 -0.5083 -0.3114 -1.2047
  181SOPE   C3820718   1.920   1.949   7.230  0.5477  0.1296  0.1751
  181SOPE   H8X20719   1.835   1.881   7.207 -0.9304  1.8428  0.2643
  181SOPE   H8Y20720   1.878   2.052   7.240  1.8890  0.7040  0.0677
  181SOPE   C3920721   1.983   1.911   7.358 -0.4314 -0.5257 -0.8130
  181SOPE   H9X20722   2.059   1.983   7.396 -1.3022  0.4089 -0.7885
  181SOPE   H9Y20723   2.033   1.814   7.337  1.4730  0.2707 -0.1869
  181SOPE  C31020724   1.879   1.898   7.471 -0.3501  0.1376 -0.2967
  181SOPE  H10X20725   1.822   1.810   7.435  4.2401 -2.4002 -2.1611
  181SOPE  H10Y20726   1.801   1.977   7.475 -1.0952 -0.5841 -0.3368
  181SOPE  C31120727   1.934   1.866   7.616  1.1772  0.2661 -0.2031
  181SOPE  H11X20728   2.011   1.941   7.642  2.2802 -1.2745  1.2004
  181SOPE  H11Y20729   1.969   1.761   7.612  3.1867  0.8774  0.1886
  181SOPE  C31220730   1.815   1.862   7.715 -1.0433 -0.4526  0.5243
  181SOPE  H12X20731   1.734   1.801   7.668 -0.2209  1.4887 -3.9782
  181SOPE  H12Y20732   1.772   1.961   7.740 -0.4683  0.1800 -0.9066
  181SOPE  C31320733   1.846   1.781   7.838  0.0215  0.0396  0.3706
  181SOPE  H13X20734   1.902   1.692   7.803  0.6012  0.3230  0.5531
  181SOPE  H13Y20735   1.748   1.747   7.879 -0.8300 -1.3415 -2.5660
  181SOPE  C31420736   1.927   1.873   7.938  0.2896  0.1041  0.1977
  181SOPE  H14X20737   1.866   1.961   7.971  2.0145  1.0846  0.8889
  181SOPE  H14Y20738   2.019   1.911   7.890  0.2319 -1.1442 -0.9346
  181SOPE  C31520739   1.964   1.779   8.060 -0.2190  0.5306 -0.5627
  181SOPE  H15X20740   2.051   1.720   8.024  0.2444  0.5315  0.5229
  181SOPE  H15Y20741   1.886   1.701   8.075  1.8651 -1.5554  0.0578
  181SOPE  C31620742   2.017   1.863   8.180  0.0518 -0.3701 -0.2293
  181SOPE  H16X20743   2.072   1.946   8.131  1.2338 -1.2258 -0.3946
  181SOPE  H16Y20744   2.094   1.804   8.234  1.8266  1.0317 -1.1321
  181SOPE  C31720745   1.907   1.923   8.268 -0.1892 -0.3718  0.3937
  181SOPE  H17X20746   1.826   1.957   8.201  0.4792 -0.0874 -0.2783
  181SOPE  H17Y20747   1.949   2.010   8.324 -0.7192  1.0631 -1.3313
  181SOPE  C31820748   1.847   1.826   8.368 -0.7336 -0.3035 -0.5078
  181SOPE  H18X20749   1.814   1.734   8.315 -0.2115 -0.6427 -0.2526
  181SOPE  H18Y20750   1.755   1.871   8.410  0.2616  0.3308  1.1029
  181SOPE  H18Z20751   1.922   1.807   8.448 -1.6115  0.8887  0.6248
  182SOPE     N20752   0.754   2.862   6.163  0.1874 -0.4271 -0.4659
  182SOPE   HN120753   0.769   2.956   6.120 -0.8005  0.2428  0.5704
  182SOPE   HN220754   0.699   2.811   6.092  1.1273 -0.3990 -1.2303
  182SOPE   HN320755   0.702   2.877   6.252 -0.5492  2.1222 -1.2246
  182SOPE   C1220756   0.880   2.788   6.190 -0.0125 -0.2790 -0.4208
  182SOPE  H12A20757   0.902   2.741   6.091  0.0157  0.5365 -0.8168
  182SOPE  H12B20758   0.866   2.715   6.272  0.4494 -1.0164 -0.9912
  182SOPE   C1120759   0.994   2.892   6.212 -0.0042 -0.0167  0.0513
  182SOPE  H11A20760   1.082   2.824   6.218  0.6301  0.9018  1.5390
  182SOPE  H11B20761   0.983   2.934   6.314  0.5826 -1.2226  0.6344
  182SOPE     P20762   1.125   3.019   6.026  0.4367 -0.0331  0.2268
  182SOPE   O1320763   1.123   3.150   5.965 -0.4124  0.4381  0.7070
  182SOPE   O1420764   1.138   2.895   5.950 -0.1338  0.2655  0.6567
  182SOPE   O1220765   0.994   2.997   6.116  0.2243  0.3626  0.0076
  182SOPE   O1120766   1.238   3.024   6.131 -1.0005 -0.6861  0.3251
  182SOPE    C120767   1.233   3.122   6.239  0.0770  0.1147 -0.6246
  182SOPE    HA20768   1.139   3.127   6.298  1.7082  0.1165  2.1799
  182SOPE    HB20769   1.239   3.221   6.189 -3.1275 -0.5879 -2.7069
  182SOPE    C220770   1.340   3.109   6.351  0.2612  0.7538 -0.6722
  182SOPE    HS20771   1.444   3.093   6.315  1.0018 -2.3687  2.2631
  182SOPE   O2120772   1.282   2.997   6.433  0.3471  0.1776  0.2569
  182SOPE   C2120773   1.369   2.928   6.494 -0.0222 -0.5847 -0.1791
  182SOPE   O2220774   1.489   2.934   6.477  0.2604 -1.0019  0.9139
  182SOPE   C2220775   1.297   2.834   6.587  0.2117 -0.9086 -0.1638
  182SOPE   H2R20776   1.268   2.749   6.521 -0.9703 -2.1998  1.9212
  182SOPE   H2S20777   1.211   2.884   6.636  1.5422 -0.9175  2.3292
  182SOPE    C320778   1.337   3.232   6.440 -0.5740  0.3064  0.2725
  182SOPE    HX20779   1.236   3.235   6.487 -0.9670  1.7760 -0.5880
  182SOPE    HY20780   1.350   3.324   6.378 -1.2814 -0.1281 -0.5330
  182SOPE   O3120781   1.430   3.219   6.545  0.0550 -0.1329  0.8073
  182SOPE   C3120782   1.431   3.317   6.640 -0.0811  1.0354  0.5948
  182SOPE   O3220783   1.356   3.413   6.642 -0.0935 -0.4607  0.0513
  182SOPE   C3220784   1.538   3.284   6.744  0.2350 -0.1703  0.5286
  182SOPE   H2X20785   1.614   3.365   6.744 -0.1994  0.2847 -1.6344
  182SOPE   H2Y20786   1.597   3.193   6.716  0.7262  0.6003 -1.0963
  182SOPE   C2320787   1.393   2.782   6.688 -0.0572  0.0886  0.0067
  182SOPE   H3R20788   1.453   2.861   6.739  0.4058 -0.2534  0.0035
  182SOPE   H3S20789   1.461   2.707   6.642 -0.5942 -0.2771 -0.2009
  182SOPE   C2420790   1.316   2.721   6.806 -0.2276 -0.2188 -0.2989
  182SOPE   H4R20791   1.253   2.795   6.860  1.8677  3.4867 -2.4811
  182SOPE   H4S20792   1.238   2.656   6.761 -0.8924 -0.3350  0.9872
  182SOPE   C2520793   1.407   2.644   6.903  0.3100 -0.0276  0.6668
  182SOPE   H5R20794   1.484   2.590   6.844 -0.8805 -1.4598  0.3617
  182SOPE   H5S20795   1.465   2.720   6.959 -0.0987  0.3053  0.6439
  182SOPE   C2620796   1.330   2.557   7.000 -0.5440  0.4916 -0.3715
  182SOPE   H6R20797   1.255   2.629   7.038  0.4330  0.9326  0.7927
  182SOPE   H6S20798   1.280   2.484   6.933 -2.9001  1.6239  0.0615
  182SOPE   C2720799   1.406   2.501   7.116  0.0417 -0.5540  0.2188
  182SOPE   H7R20800   1.345   2.423   7.166 -0.3513 -0.1759  0.3421
  182SOPE   H7S20801   1.503   2.451   7.096  0.0297 -1.8873  2.9954
  182SOPE   C2820802   1.449   2.601   7.220 -0.2795  0.1500 -0.0833
  182SOPE   H8R20803   1.530   2.560   7.284 -1.5096 -3.1127 -0.4415
  182SOPE   H8S20804   1.504   2.678   7.162  1.3334  0.2880  1.5214
  182SOPE   C2920805   1.330   2.666   7.285 -0.1180  0.2225 -0.4229
  182SOPE   H9120806   1.269   2.725   7.215 -4.2465 -0.2479  2.4699
  182SOPE  C21020807   1.297   2.665   7.414 -0.7533  0.6367 -0.5425
  182SOPE  H10120808   1.198   2.703   7.444 -1.0165  0.5286 -1.2535
  182SOPE  C21120809   1.374   2.592   7.526 -0.1838  0.5916 -0.4150
  182SOPE  H11R20810   1.438   2.660   7.587  1.0136 -1.0713  0.2712
  182SOPE  H11S20811   1.450   2.521   7.487  0.2054  0.7579  0.0302
  182SOPE  C21220812   1.281   2.509   7.624  0.4931  0.6449  0.9743
  182SOPE  H12R20813   1.247   2.427   7.558 -1.4218  1.8364  0.3970
  182SOPE  H12S20814   1.199   2.578   7.652 -0.5241  1.1872 -2.8224
  182SOPE  C21320815   1.350   2.452   7.746  0.1407 -0.9410 -0.2445
  182SOPE  H13R20816   1.410   2.535   7.790  0.7187 -1.0445 -0.8144
  182SOPE  H13S20817   1.417   2.369   7.715 -0.8872 -2.2272  0.9259
  182SOPE  C21420818   1.255   2.399   7.849 -0.2283  0.1159 -0.0374
  182SOPE  H14R20819   1.196   2.318   7.801  2.0679  0.0826 -3.0686
  182SOPE  H14S20820   1.194   2.488   7.877  1.4932  1.7179 -1.1538
  182SOPE  C21520821   1.329   2.339   7.969 -0.7774 -0.4365 -0.5150
  182SOPE  H15R20822   1.375   2.426   8.020 -3.4333  0.6178  0.2411
  182SOPE  H15S20823   1.412   2.269   7.946 -0.4181 -0.9877  2.2025
  182SOPE  C21620824   1.245   2.275   8.079 -0.2973 -0.3509 -0.4309
  182SOPE  H16R20825   1.217   2.177   8.035 -1.6942 -0.1678  0.0100
  182SOPE  H16S20826   1.156   2.337   8.099  0.5957  0.3528  1.5926
  182SOPE  C21720827   1.337   2.260   8.200 -0.2672  0.6805  0.2850
  182SOPE  H17R20828   1.387   2.351   8.239  2.8429  0.0717 -1.9757
  182SOPE  H17S20829   1.424   2.205   8.159 -1.4630 -1.7019  0.7974
  182SOPE  C21820830   1.273   2.181   8.312  0.0257 -0.1759 -0.2861
  182SOPE  H18R20831   1.347   2.168   8.394  0.8274 -1.2285 -1.1444
  182SOPE  H18S20832   1.259   2.077   8.277  0.9347 -0.1669 -0.7160
  182SOPE  H18T20833   1.180   2.225   8.353 -1.9323 -2.1687 -2.2603
  182SOPE   C3320834   1.487   3.260   6.890  0.2793  0.8687  0.5127
  182SOPE   H3X20835   1.391   3.315   6.904  0.4359  1.5286 -0.7686
  182SOPE   H3Y20836   1.565   3.299   6.959  0.2447  1.8073  0.0376
  182SOPE   C3420837   1.464   3.117   6.917  0.1129  0.4661  0.6216
  182SOPE   H4X20838   1.556   3.061   6.943 -0.3495 -0.2753  0.6843
  182SOPE   H4Y20839   1.423   3.062   6.830  0.8802 -0.0018  0.5397
  182SOPE   C3520840   1.359   3.087   7.024  0.4684 -0.1939  0.1373
  182SOPE   H5X20841   1.380   2.984   7.061 -0.0357 -0.6965 -0.9277
  182SOPE   H5Y20842   1.255   3.102   6.987  0.4297 -0.7495  0.0168
  182SOPE   C3620843   1.371   3.178   7.151 -0.3735  0.2949 -0.8525
  182SOPE   H6X20844   1.377   3.286   7.123  2.2741  0.0403 -1.5677
  182SOPE   H6Y20845   1.460   3.138   7.204 -0.3707  0.5772 -0.6419
  182SOPE   C3720846   1.259   3.157   7.257 -0.5541 -0.5578 -0.2627
  182SOPE   H7X20847   1.271   3.048   7.277 -0.8073 -0.8191 -1.4176
  182SOPE   H7Y20848   1.158   3.173   7.213 -0.4122  1.7465  0.1483
  182SOPE   C3820849   1.261   3.246   7.384  0.2009 -0.3545  0.2389
  182SOPE   H8X20850   1.165   3.232   7.438  1.5080 -1.5735  2.3832
  182SOPE   H8Y20851   1.276   3.353   7.357 -1.1239  0.5619  2.7339
  182SOPE   C3920852   1.376   3.213   7.477 -0.4783  0.0842 -0.2781
  182SOPE   H9X20853   1.475   3.221   7.427  0.0813 -0.9747  0.6001
  182SOPE   H9Y20854   1.363   3.106   7.503  0.1653  0.3594  1.3161
  182SOPE  C31020855   1.379   3.298   7.612  0.2903  0.8341  0.2107
  182SOPE  H10X20856   1.278   3.297   7.658 -0.0607  1.9867 -0.4873
  182SOPE  H10Y20857   1.368   3.405   7.583 -0.6395  0.4861 -0.8329
  182SOPE  C31120858   1.485   3.259   7.713 -0.9316 -0.4981 -0.0118
  182SOPE  H11X20859   1.581   3.266   7.658 -1.1081 -0.3451 -0.3045
  182SOPE  H11Y20860   1.466   3.153   7.737 -0.1002 -0.5150  0.6396
  182SOPE  C31220861   1.494   3.342   7.841  0.2059 -0.2480 -0.1711
  182SOPE  H12X20862   1.476   3.448   7.812 -1.0869 -0.2608  0.5399
  182SOPE  H12Y20863   1.589   3.335   7.898  0.7384  2.5237 -0.5542
  182SOPE  C31320864   1.382   3.304   7.935  0.4061 -0.1332 -0.9090
  182SOPE  H13X20865   1.414   3.204   7.972  0.6064  0.2121 -0.1212
  182SOPE  H13Y20866   1.286   3.301   7.881 -0.2908  1.3580  0.1693
  182SOPE  C31420867   1.375   3.400   8.058  0.0152  0.0324  0.5667
  182SOPE  H14X20868   1.345   3.503   8.029  1.2874  0.4355  0.6287
  182SOPE  H14Y20869   1.478   3.406   8.100  0.1906  1.1515  0.0113
  182SOPE  C31520870   1.285   3.344   8.164  0.8699  0.6108  0.2361
  182SOPE  H15X20871   1.196   3.317   8.103  0.8068  2.7368 -0.7102
  182SOPE  H15Y20872   1.271   3.416   8.248 -1.6967  1.5225 -0.8699
  182SOPE  C31620873   1.347   3.210   8.224 -0.7415 -0.1903  0.7241
  182SOPE  H16X20874   1.458   3.216   8.223 -0.6997 -0.8295  0.9943
  182SOPE  H16Y20875   1.313   3.125   8.162 -2.5365 -1.4423  3.2333
  182SOPE  C31720876   1.285   3.158   8.352 -0.4570 -0.9273  0.5540
  182SOPE  H17X20877   1.175   3.146   8.343 -0.2223 -1.9755 -1.4837
  182SOPE  H17Y20878   1.295   3.233   8.433  2.8507  0.8600 -1.2997
  182SOPE  C31820879   1.334   3.015   8.383 -1.3104 -0.0017  0.3964
  182SOPE  H18X20880   1.289   2.974   8.476  0.5861 -0.7048  1.0454
  182SOPE  H18Y20881   1.445   3.008   8.386 -1.2335  0.3913 -0.9791
  182SOPE  H18Z20882   1.296   2.953   8.298  0.6856 -2.6236  1.2714
  183SOPE     N20883   3.140   0.726   6.113  0.1648  0.0026 -0.2435
  183SOPE   HN120884   3.057   0.669   6.086  0.1376  0.5127 -1.2921
  183SOPE   HN220885   3.204   0.677   6.179 -1.3644 -0.4625  0.9323
  183SOPE   HN320886   3.112   0.815   6.159  0.0678  0.7488 -1.6831
  183SOPE   C1220887   3.210   0.755   5.982  0.8586 -0.5076 -0.0824
  183SOPE  H12A20888   3.130   0.801   5.920  1.0362 -1.5465 -1.1165
  183SOPE  H12B20889   3.247   0.658   5.944 -1.3414 -1.2638 -0.4624
  183SOPE   C1120890   3.319   0.865   6.010 -0.2340  0.4739  0.6875
  183SOPE  H11A20891   3.374   0.872   5.914  1.6445 -2.4859  1.4072
  183SOPE  H11B20892   3.390   0.829   6.088  1.5916  3.0632  0.3451
  183SOPE     P20893   3.356   1.110   6.065 -0.1982 -0.3815 -0.2482
  183SOPE   O1320894   3.283   1.237   6.077 -0.3386 -0.5909  0.0993
  183SOPE   O1420895   3.457   1.107   5.958  0.2683  0.2371  0.0965
  183SOPE   O1220896   3.257   0.984   6.050 -0.5573  0.0211  0.4587
  183SOPE   O1120897   3.423   1.078   6.208  0.0764 -0.0958  0.1772
  183SOPE    C120898   3.345   1.005   6.315 -0.9280  0.2429  0.2542
  183SOPE    HA20899   3.386   0.902   6.313 -0.1667  0.5352 -1.2929
  183SOPE    HB20900   3.240   0.988   6.283 -0.6659 -2.8889  0.8208
  183SOPE    C220901   3.352   1.062   6.460  0.2793  0.7908 -0.4248
  183SOPE    HS20902   3.337   1.172   6.452  2.2233  1.0315 -1.3824
  183SOPE   O2120903   3.471   1.021   6.526 -0.0884  0.4034  0.5656
  183SOPE   C2120904   3.568   1.110   6.517  1.1301 -0.3210 -0.0701
  183SOPE   O2220905   3.550   1.217   6.461 -0.3974 -0.0428  0.3901
  183SOPE   C2220906   3.694   1.068   6.593  0.4796  0.2368  0.2134
  183SOPE   H2R20907   3.764   1.024   6.519 -0.7613 -3.4024  0.9840
  183SOPE   H2S20908   3.675   0.985   6.664  0.0767 -0.4917 -0.7202
  183SOPE    C320909   3.226   1.006   6.537  0.0939 -0.2800  0.5317
  183SOPE    HX20910   3.203   0.902   6.507  0.7922 -1.1504  2.8153
  183SOPE    HY20911   3.135   1.059   6.500 -0.2434 -0.3674  1.2250
  183SOPE   O3120912   3.231   1.026   6.680  0.5836  0.4446 -0.0245
  183SOPE   C3120913   3.226   0.916   6.749  0.3927  0.0434 -0.3881
  183SOPE   O3220914   3.207   0.804   6.707 -0.6280 -0.1169 -0.2030
  183SOPE   C3220915   3.249   0.948   6.900  0.4179 -0.2788  0.1706
  183SOPE   H2X20916   3.242   1.056   6.923 -1.1635 -0.2822 -0.1656
  183SOPE   H2Y20917   3.355   0.925   6.922  0.2676  1.0706  2.6265
  183SOPE   C2320918   3.754   1.188   6.662 -0.2881 -0.7941 -0.0180
  183SOPE   H3R20919   3.777   1.270   6.590 -1.8266  0.0516  0.3970
  183SOPE   H3S20920   3.852   1.162   6.708  0.4234  1.3150 -0.2083
  183SOPE   C2420921   3.664   1.250   6.770  0.2042  0.0900 -0.0364
  183SOPE   H4R20922   3.716   1.342   6.803 -1.2877  0.8671  0.2203
  183SOPE   H4S20923   3.563   1.277   6.732 -0.4590  1.2319  2.3845
  183SOPE   C2520924   3.641   1.165   6.897  0.0182  0.4205 -0.3508
  183SOPE   H5R20925   3.548   1.108   6.875  0.7686 -0.4413 -1.3721
  183SOPE   H5S20926   3.727   1.099   6.917 -0.2891 -0.4927 -1.8821
  183SOPE   C2620927   3.617   1.249   7.024  0.3526 -0.5170  0.1664
  183SOPE   H6R20928   3.624   1.176   7.107  1.2979 -0.9000 -0.2307
  183SOPE   H6S20929   3.701   1.321   7.036 -1.2936  2.1497 -2.6904
  183SOPE   C2720930   3.484   1.335   7.027  0.6576  0.2956  0.0188
  183SOPE   H7R20931   3.493   1.423   6.959 -3.7071  0.8876 -0.0741
  183SOPE   H7S20932   3.409   1.268   6.979  1.7591 -1.3475  0.4909
  183SOPE   C2820933   3.430   1.364   7.171  0.4253  0.6676 -0.2816
  183SOPE   H8R20934   3.329   1.405   7.150 -1.3642 -1.8714  2.5066
  183SOPE   H8S20935   3.413   1.269   7.226 -3.7071  1.3428 -0.0922
  183SOPE   C2920936   3.526   1.436   7.257 -0.2814  0.1284 -0.5529
  183SOPE   H9120937   3.632   1.422   7.231  0.1522  2.4869 -0.2804
  183SOPE  C21020938   3.501   1.530   7.354  0.1286  0.4383 -0.2337
  183SOPE  H10120939   3.586   1.584   7.398 -0.2817  0.2985  0.7757
  183SOPE  C21120940   3.361   1.569   7.396 -0.6904  0.6751 -0.1601
  183SOPE  H11R20941   3.298   1.478   7.390 -0.0429  0.2776 -1.2478
  183SOPE  H11S20942   3.316   1.655   7.343 -1.3941  0.8051  0.6233
  183SOPE  C21220943   3.369   1.610   7.546  0.1406  0.0332  0.3584
  183SOPE  H12R20944   3.419   1.706   7.568  0.4282 -0.2345  0.8999
  183SOPE  H12S20945   3.418   1.524   7.598  0.6245 -1.0256 -1.7372
  183SOPE  C21320946   3.236   1.634   7.609 -0.5936  0.4080 -0.4589
  183SOPE  H13R20947   3.162   1.559   7.574 -0.3965 -1.2595  2.3465
  183SOPE  H13S20948   3.191   1.732   7.582  0.3744  0.7038 -1.0592
  183SOPE  C21420949   3.246   1.623   7.761  0.2669 -0.0865 -0.1569
  183SOPE  H14R20950   3.301   1.708   7.807  1.3223 -1.3984  1.0952
  183SOPE  H14S20951   3.300   1.532   7.794 -1.2434 -0.5327  1.2565
  183SOPE  C21520952   3.110   1.617   7.830  0.4021  0.1685  0.0943
  183SOPE  H15R20953   3.052   1.531   7.791  0.2728  1.0682 -1.8263
  183SOPE  H15S20954   3.054   1.702   7.787  0.6217 -0.1488 -0.8327
  183SOPE  C21620955   3.100   1.622   7.984  0.2025 -0.9663 -0.6581
  183SOPE  H16R20956   3.128   1.519   8.015  2.4080 -0.3864 -0.5794
  183SOPE  H16S20957   2.996   1.655   8.006  0.0186 -2.2414  0.5014
  183SOPE  C21720958   3.190   1.725   8.054  0.1061  0.5845 -0.2373
  183SOPE  H17R20959   3.198   1.806   7.979 -0.6975 -1.4785 -2.7154
  183SOPE  H17S20960   3.296   1.693   8.053  0.4487  1.7032 -0.7311
  183SOPE  C21820961   3.147   1.760   8.199  0.2481 -0.5290  0.6204
  183SOPE  H18R20962   3.050   1.814   8.202 -0.5532 -1.8244 -0.7696
  183SOPE  H18S20963   3.229   1.813   8.250  1.2068 -1.2494 -0.1318
  183SOPE  H18T20964   3.114   1.666   8.249  1.2451 -1.2397 -0.0152
  183SOPE   C3320965   3.160   0.863   6.994  0.6730  0.4203  0.3982
  183SOPE   H3X20966   3.131   0.758   6.973  3.0610 -0.2236  0.0302
  183SOPE   H3Y20967   3.072   0.930   7.002  0.7198  0.4813  0.4061
  183SOPE   C3420968   3.215   0.858   7.138  0.6960  0.1273 -0.5180
  183SOPE   H4X20969   3.246   0.958   7.173 -0.8227  0.8695 -1.2127
  183SOPE   H4Y20970   3.306   0.796   7.150  0.5080 -0.0648 -0.0465
  183SOPE   C3520971   3.102   0.816   7.245  0.1321 -0.3782  0.5678
  183SOPE   H5X20972   3.049   0.724   7.211 -0.3897  0.4558 -0.9665
  183SOPE   H5Y20973   3.035   0.902   7.268 -1.8494 -2.3630  2.7575
  183SOPE   C3620974   3.168   0.793   7.377  0.6876  0.7725 -0.9489
  183SOPE   H6X20975   3.216   0.887   7.411  3.0103 -0.0711 -1.7283
  183SOPE   H6Y20976   3.250   0.719   7.367  0.4562  0.0364  1.7010
  183SOPE   C3720977   3.069   0.721   7.468 -0.3954 -0.0780 -0.2653
  183SOPE   H7X20978   3.037   0.630   7.413 -0.5336 -0.1727 -0.0329
  183SOPE   H7Y20979   2.983   0.789   7.486 -1.9395 -2.2010  0.8837
  183SOPE   C3820980   3.122   0.670   7.609  0.0770  0.2830 -0.3185
  183SOPE   H8X20981   3.205   0.598   7.593 -0.1215 -0.5009  1.8944
  183SOPE   H8Y20982   3.030   0.624   7.652 -1.0611  0.7489 -2.1341
  183SOPE   C3920983   3.168   0.783   7.698  0.0141  0.0273 -0.1915
  183SOPE   H9X20984   3.093   0.865   7.692  0.3923  0.3255 -1.0011
  183SOPE   H9Y20985   3.261   0.826   7.655  1.2600 -0.9419  1.3980
  183SOPE  C31020986   3.194   0.738   7.838  0.0447  0.8038 -0.8347
  183SOPE  H10X20987   3.280   0.666   7.834  0.1597  0.9697 -1.3754
  183SOPE  H10Y20988   3.117   0.668   7.877  1.9374 -1.2619 -0.5371
  183SOPE  C31120989   3.201   0.855   7.934  0.0829  0.3603 -0.1898
  183SOPE  H11X20990   3.096   0.884   7.960  0.0370  0.6822 -0.7142
  183SOPE  H11Y20991   3.226   0.951   7.884 -1.2901  1.2480  0.7254
  183SOPE  C31220992   3.285   0.846   8.061 -0.6770 -0.1124 -0.2764
  183SOPE  H12X20993   3.393   0.850   8.034 -0.5262  1.0034  0.4368
  183SOPE  H12Y20994   3.252   0.750   8.106  0.9397 -0.9899 -0.8831
  183SOPE  C31320995   3.255   0.955   8.164  0.6951 -0.0027 -0.6647
  183SOPE  H13X20996   3.148   0.948   8.193  0.9612  0.8723  0.6394
  183SOPE  H13Y20997   3.274   1.052   8.114  0.2994  0.5207  0.1695
  183SOPE  C31420998   3.332   0.941   8.292 -0.3360  0.2467  0.2531
  183SOPE  H14X20999   3.438   0.970   8.276 -0.0770 -0.2436  1.0285
  183SOPE  H14Y21000   3.322   0.836   8.326 -0.2311  0.0408 -0.3344
  183SOPE  C31521001   3.274   1.034   8.405  0.7647 -0.0470 -0.5661
  183SOPE  H15X21002   3.340   1.030   8.494 -0.6517  1.1114  0.5938
  183SOPE  H15Y21003   3.171   0.993   8.418 -0.3936  1.3308 -4.0875
  183SOPE  C31621004   3.251   1.185   8.377 -0.6070  0.1265  0.7057
  183SOPE  H16X21005   3.194   1.183   8.281  1.0232 -2.3425 -0.3285
  183SOPE  H16Y21006   3.346   1.241   8.359 -2.5111  3.2359 -0.4622
  183SOPE  C31721007   3.164   1.254   8.479 -0.1244  0.1704  0.0279
  183SOPE  H17X21008   3.224   1.290   8.566 -1.3353  0.4214  0.7892
  183SOPE  H17Y21009   3.080   1.193   8.520 -0.1330  0.8775  1.1129
  183SOPE  C31821010   3.098   1.384   8.423 -0.1373  0.2554 -0.3918
  183SOPE  H18X21011   3.049   1.365   8.325 -1.1165  0.6208  0.0134
  183SOPE  H18Y21012   3.179   1.455   8.396 -1.2851  1.4482 -0.7939
  183SOPE  H18Z21013   3.036   1.435   8.500  1.8767  0.1361  1.3989
  184SOPE     N21014   3.279   2.054   6.360 -0.5113 -0.3229 -0.0738
  184SOPE   HN121015   3.205   2.083   6.293 -0.9241 -0.6058  0.2507
  184SOPE   HN221016   3.334   2.143   6.367  0.5173 -0.9220 -0.3457
  184SOPE   HN321017   3.339   1.980   6.318 -0.3748  0.7888 -1.9415
  184SOPE   C1221018   3.226   2.023   6.496  0.3561  0.0155 -0.0526
  184SOPE  H12A21019   3.258   2.105   6.564  1.2785  0.9169 -1.5355
  184SOPE  H12B21020   3.280   1.932   6.532 -0.4045  0.1732  1.6104
  184SOPE   C1121021   3.070   1.994   6.491 -0.5503  0.0900 -0.3245
  184SOPE  H11A21022   3.022   2.091   6.465  2.3037  1.5250 -0.6297
  184SOPE  H11B21023   3.044   1.975   6.598 -0.7221  1.7431 -0.0363
  184SOPE     P21024   2.879   1.838   6.418 -0.2376  0.1284  0.0014
  184SOPE   O1321025   2.874   1.742   6.306  0.2715 -0.2300 -0.2869
  184SOPE   O1421026   2.794   1.958   6.412 -0.5843 -0.3828  0.3178
  184SOPE   O1221027   3.032   1.882   6.418 -0.2685 -0.0697 -0.5522
  184SOPE   O1121028   2.856   1.763   6.556 -0.1799  0.3505  0.1291
  184SOPE    C121029   2.941   1.656   6.606  0.1021 -0.0619 -0.1396
  184SOPE    HA21030   2.936   1.664   6.716  1.4675  1.4830 -0.1463
  184SOPE    HB21031   3.047   1.682   6.582 -0.8203  2.4333 -1.8931
  184SOPE    C221032   2.898   1.521   6.559  0.3181  0.3258  0.5381
  184SOPE    HS21033   2.890   1.531   6.448  2.7385 -2.0685  0.0326
  184SOPE   O2121034   2.778   1.486   6.627 -0.4187  0.1453  0.0272
  184SOPE   C2121035   2.696   1.414   6.554 -0.5530 -0.5522 -1.0927
  184SOPE   O2221036   2.721   1.382   6.445 -0.0027 -0.1550  0.4476
  184SOPE   C2221037   2.574   1.404   6.642  0.7894  0.6381 -0.0074
  184SOPE   H2R21038   2.484   1.436   6.585  0.6001 -1.2017 -0.8103
  184SOPE   H2S21039   2.589   1.467   6.732 -3.1862  2.6129 -0.5089
  184SOPE    C321040   3.013   1.420   6.592  0.1700  0.3801 -0.1598
  184SOPE    HX21041   3.090   1.452   6.519  0.8116 -1.1356 -0.1819
  184SOPE    HY21042   2.974   1.322   6.558  1.1592 -0.7567  1.7668
  184SOPE   O3121043   3.066   1.416   6.724 -0.3041  0.0021 -0.0122
  184SOPE   C3121044   3.008   1.326   6.800  0.3873 -0.5716 -0.5433
  184SOPE   O3221045   2.921   1.249   6.764  0.9787 -0.0123  0.1510
  184SOPE   C3221046   3.067   1.331   6.939 -1.0483 -0.4475 -0.0580
  184SOPE   H2X21047   3.102   1.434   6.962 -0.4082 -0.8416  0.7853
  184SOPE   H2Y21048   3.160   1.270   6.943 -0.7079  0.0116 -0.6633
  184SOPE   C2321049   2.536   1.262   6.688 -0.2234 -0.2551  0.1615
  184SOPE   H3R21050   2.619   1.205   6.733 -1.4905 -1.0662  1.5610
  184SOPE   H3S21051   2.505   1.226   6.588  2.7908  1.8789 -1.7101
  184SOPE   C2421052   2.414   1.255   6.782 -1.1877  0.2413  0.2190
  184SOPE   H4R21053   2.327   1.293   6.725 -0.4264 -0.0199 -1.1658
  184SOPE   H4S21054   2.383   1.154   6.816  0.0012  0.1419  1.0682
  184SOPE   C2521055   2.426   1.330   6.914 -0.5049  0.0174 -0.1656
  184SOPE   H5R21056   2.443   1.438   6.893  1.2071  0.1229  1.4429
  184SOPE   H5S21057   2.329   1.327   6.967  0.1179 -1.9471  0.9476
  184SOPE   C2621058   2.547   1.307   7.003  0.3415  0.0194 -0.0304
  184SOPE   H6R21059   2.556   1.201   7.036  0.9336  0.1075  0.1100
  184SOPE   H6S21060   2.642   1.323   6.947  2.0872 -2.9252  1.7730
  184SOPE   C2721061   2.545   1.389   7.134  0.5200 -0.8068  0.1408
  184SOPE   H7R21062   2.643   1.359   7.177  0.3792 -0.3398  0.8093
  184SOPE   H7S21063   2.527   1.498   7.116 -0.1752 -1.3251 -2.9064
  184SOPE   C2821064   2.427   1.359   7.228  0.5913  0.4620 -0.7255
  184SOPE   H8R21065   2.433   1.435   7.309  2.1776  1.5202 -1.7790
  184SOPE   H8S21066   2.331   1.385   7.179 -0.5420 -1.3280  0.4321
  184SOPE   C2921067   2.425   1.220   7.289  0.2575 -0.0689 -0.4653
  184SOPE   H9121068   2.395   1.146   7.214 -2.6913  2.0237 -1.5512
  184SOPE  C21021069   2.473   1.193   7.413  0.2495  0.1092  0.3573
  184SOPE  H10121070   2.476   1.088   7.446 -0.8353 -0.9608 -2.5807
  184SOPE  C21121071   2.519   1.299   7.510 -0.5979  0.3203 -0.0358
  184SOPE  H11R21072   2.449   1.383   7.532 -0.7157  0.0522  0.6484
  184SOPE  H11S21073   2.620   1.341   7.492  0.2536 -1.0132  1.3447
  184SOPE  C21221074   2.529   1.232   7.645  0.1023  0.2437  0.2918
  184SOPE  H12R21075   2.587   1.284   7.725  2.7744 -1.0796 -0.6396
  184SOPE  H12S21076   2.568   1.129   7.631 -2.3519 -0.4696 -1.9544
  184SOPE  C21321077   2.394   1.207   7.704  0.7434 -0.4990  0.0778
  184SOPE  H13R21078   2.337   1.138   7.639  0.0023 -0.6867  0.9007
  184SOPE  H13S21079   2.328   1.296   7.717 -1.5151 -2.3178  2.1720
  184SOPE  C21421080   2.389   1.140   7.844 -0.1429 -1.0027  0.2113
  184SOPE  H14R21081   2.438   1.207   7.918 -1.8367  1.1570 -0.5141
  184SOPE  H14S21082   2.444   1.043   7.841 -0.7418 -1.4001  1.5815
  184SOPE  C21521083   2.248   1.114   7.891  0.4613 -0.0221 -0.4516
  184SOPE  H15R21084   2.257   1.018   7.946  2.2248  0.3065 -0.1117
  184SOPE  H15S21085   2.174   1.093   7.811  0.4029  1.1754 -0.7318
  184SOPE  C21621086   2.199   1.225   7.980 -0.6368 -0.9898 -0.5779
  184SOPE  H16R21087   2.188   1.319   7.922  3.0588  0.6113  0.9703
  184SOPE  H16S21088   2.270   1.246   8.063  0.1033  0.1536 -1.4618
  184SOPE  C21721089   2.061   1.194   8.043  0.2084  0.0793  0.1143
  184SOPE  H17R21090   2.081   1.097   8.093 -0.3243 -0.7014 -1.1385
  184SOPE  H17S21091   1.986   1.176   7.963  0.7965 -2.0716 -0.0075
  184SOPE  C21821092   2.028   1.306   8.141  0.6244 -0.5246  0.9533
  184SOPE  H18R21093   2.097   1.308   8.228 -0.5941  1.4523  1.9422
  184SOPE  H18S21094   1.923   1.320   8.173  0.2427 -0.1798 -0.3924
  184SOPE  H18T21095   2.059   1.402   8.093  1.0059 -1.0149  0.1912
  184SOPE   C3321096   2.981   1.274   7.057 -0.3343 -0.3189  0.0859
  184SOPE   H3X21097   2.936   1.178   7.024  1.8113 -1.0881 -0.7816
  184SOPE   H3Y21098   2.902   1.348   7.083  0.3415  0.3125  0.3913
  184SOPE   C3421099   3.053   1.260   7.187 -0.1734 -0.0994  0.6666
  184SOPE   H4X21100   3.088   1.354   7.234 -0.2556 -0.2521  1.0403
  184SOPE   H4Y21101   3.147   1.200   7.188  0.8708  1.5016  1.0747
  184SOPE   C3521102   2.950   1.218   7.299  0.0688  0.0470 -0.2318
  184SOPE   H5X21103   2.925   1.111   7.285 -1.3654  0.3600 -0.2275
  184SOPE   H5Y21104   2.864   1.288   7.288  1.6161  2.0436 -0.2749
  184SOPE   C3621105   3.017   1.218   7.436  0.0367  0.5756  1.1917
  184SOPE   H6X21106   3.050   1.322   7.455  0.0198  0.8847 -0.3670
  184SOPE   H6Y21107   3.115   1.169   7.422  0.4149  2.0420 -2.2643
  184SOPE   C3721108   2.930   1.163   7.548 -0.4349 -0.4943  0.2911
  184SOPE   H7X21109   2.904   1.056   7.534 -0.4817 -0.6294  1.3461
  184SOPE   H7Y21110   2.833   1.218   7.543  0.5661  1.3246 -0.0322
  184SOPE   C3821111   2.990   1.186   7.679  0.3839  0.3950 -0.5090
  184SOPE   H8X21112   3.004   1.296   7.688 -1.4146  0.5786  0.5406
  184SOPE   H8Y21113   3.090   1.140   7.694  0.2600  0.2447 -0.1313
  184SOPE   C3921114   2.897   1.145   7.793 -0.2104 -0.4546  0.4348
  184SOPE   H9X21115   2.890   1.034   7.798 -1.0321 -0.3657  1.6810
  184SOPE   H9Y21116   2.794   1.184   7.778 -0.4178 -0.1868  2.2652
  184SOPE  C31021117   2.938   1.205   7.929 -0.8440  0.4584  0.6207
  184SOPE  H10X21118   2.959   1.314   7.920  1.7206 -0.1161 -1.8265
  184SOPE  H10Y21119   3.026   1.145   7.962 -1.0634  0.1841  0.7037
  184SOPE  C31121120   2.828   1.186   8.034 -0.1370 -1.0078 -1.1958
  184SOPE  H11X21121   2.756   1.270   8.028  0.7998  0.2465  2.6193
  184SOPE  H11Y21122   2.885   1.215   8.125 -1.0477  0.1416 -0.9641
  184SOPE  C31221123   2.767   1.052   8.056  0.4401  0.0576 -0.0790
  184SOPE  H12X21124   2.841   0.978   8.093  0.5064  0.7338  1.1820
  184SOPE  H12Y21125   2.710   1.030   7.963 -0.8751  3.0092 -0.0717
  184SOPE  C31321126   2.671   1.072   8.172  0.0826 -0.0733  0.4644
  184SOPE  H13X21127   2.641   1.179   8.163  2.8709  0.6577 -1.3746
  184SOPE  H13Y21128   2.731   1.070   8.265 -0.3105 -2.1132  0.7174
  184SOPE  C31421129   2.552   0.980   8.153  0.0002  0.6463  0.0981
  184SOPE  H14X21130   2.587   0.875   8.143  1.5459  0.8381  2.6922
  184SOPE  H14Y21131   2.508   1.006   8.054  0.4780  0.0442 -0.2771
  184SOPE  C31521132   2.450   1.017   8.263 -0.6184 -0.1466 -0.3790
  184SOPE  H15X21133   2.405   1.115   8.236  0.2190  0.5103  0.5709
  184SOPE  H15Y21134   2.513   1.035   8.353 -0.2078 -2.1322 -0.2150
  184SOPE  C31621135   2.347   0.906   8.282  0.3243  0.8624  0.0015
  184SOPE  H16X21136   2.397   0.808   8.296 -2.5344 -0.7078 -0.1036
  184SOPE  H16Y21137   2.274   0.888   8.201  0.0496 -1.4715  0.6996
  184SOPE  C31721138   2.274   0.932   8.416 -0.0883  0.3323  0.2586
  184SOPE  H17X21139   2.216   1.027   8.414  0.0065  0.3723 -0.9435
  184SOPE  H17Y21140   2.349   0.951   8.497  0.2338  2.7069 -0.5156
  184SOPE  C31821141   2.195   0.808   8.459  0.0461  0.2905  1.1490
  184SOPE  H18X21142   2.153   0.814   8.562 -1.2198  2.5087  0.5764
  184SOPE  H18Y21143   2.260   0.720   8.439  0.1889  0.9973 -2.1467
  184SOPE  H18Z21144   2.104   0.804   8.395  1.2887 -2.1491 -0.6171
  185SAPI   C1221145   1.531   3.229  11.061  0.4907 -0.1431  0.2114
  185SAPI    H221146   1.622   3.291  11.048  0.7297 -0.4134  0.5955
  185SAPI    O221147   1.581   3.105  11.026 -0.0610 -0.0585  0.6466
  185SAPI   HO221148   1.664   3.127  10.983 -1.0892 -0.7001 -1.7954
  185SAPI   C1321149   1.492   3.233  11.207  0.3335  0.5503 -0.2390
  185SAPI    H321150   1.451   3.331  11.239 -1.9331 -0.9339  1.7709
  185SAPI    O321151   1.598   3.199  11.297  0.0121  0.2337 -0.2494
  185SAPI   HO321152   1.619   3.106  11.283  1.2357  0.0923  1.9691
  185SAPI   C1421153   1.374   3.134  11.221  0.4704 -0.1787 -0.0850
  185SAPI    H421154   1.400   3.035  11.178 -0.3887 -0.7590  0.6869
  185SAPI    O421155   1.346   3.112  11.362 -0.0602  0.2810 -0.6969
  185SAPI   HO421156   1.334   3.017  11.370 -1.4208  0.4312 -0.6890
  185SAPI   C1521157   1.253   3.179  11.143  0.2377 -1.2494 -0.8602
  185SAPI    H521158   1.221   3.268  11.203  0.9104 -0.7925 -1.1620
  185SAPI    O521159   1.156   3.080  11.142  0.3004  0.2284  0.5723
  185SAPI   HO521160   1.102   3.087  11.221 -1.5812  0.5027 -0.6856
  185SAPI   C1621161   1.283   3.224  11.003 -0.3854 -0.3244 -0.3648
  185SAPI    H621162   1.283   3.132  10.940  1.4110  0.6028 -1.8022
  185SAPI    O621163   1.184   3.309  10.943  0.5624 -0.3424  0.1601
  185SAPI   HO621164   1.118   3.248  10.911 -0.4290 -1.0109  3.1690
  185SAPI   C1121165   1.419   3.286  10.976  0.4078  0.9765 -0.0977
  185SAPI    H121166   1.406   3.394  10.998  0.4055  0.8486  0.5300
  185SAPI     P21167   1.556   3.363  10.758 -0.1144  0.0081  0.0905
  185SAPI   O1321168   1.658   3.271  10.696  0.3019  0.0443 -1.3318
  185SAPI   O1421169   1.596   3.464  10.857  0.1522 -1.1030 -0.3089
  185SAPI   O1221170   1.443   3.274  10.835  0.0427  0.3331  0.3121
  185SAPI   O1121171   1.460   3.430  10.648 -0.5268  0.6242 -0.6027
  185SAPI    C121172   1.529   3.517  10.554  0.0314 -0.3640  0.1232
  185SAPI    HA21173   1.594   3.596  10.597  0.8428 -0.3792 -1.0194
  185SAPI    HB21174   1.597   3.449  10.498 -0.8081 -3.6645  2.7200
  185SAPI    C221175   1.425   3.570  10.447 -0.0182 -0.4266 -0.9322
  185SAPI    HS21176   1.356   3.622  10.518 -1.1021 -1.2205 -1.3695
  185SAPI   O2121177   1.362   3.460  10.382 -0.2489 -0.4965 -0.5646
  185SAPI   C2121178   1.268   3.500  10.301  0.6728 -0.2897  0.3634
  185SAPI   O2221179   1.208   3.608  10.306  0.4310  0.0024 -0.6151
  185SAPI   C2221180   1.242   3.385  10.207  0.6477  0.2296 -0.1355
  185SAPI   H2R21181   1.335   3.326  10.197  2.1597  2.3538  0.7317
  185SAPI   H2S21182   1.158   3.323  10.245  1.9403 -0.8809  0.9596
  185SAPI    C321183   1.476   3.685  10.350 -0.5181  0.4487  0.0340
  185SAPI    HX21184   1.541   3.757  10.405  1.0245 -0.3407 -0.6871
  185SAPI    HY21185   1.398   3.754  10.312 -0.3205  0.3553 -0.5557
  185SAPI   O3121186   1.539   3.624  10.230  0.0766  0.0993 -0.0399
  185SAPI   C3121187   1.674   3.634  10.222  0.0428  0.3729  0.7406
  185SAPI   O3221188   1.745   3.672  10.313 -0.1121 -0.1195  0.1770
  185SAPI   C3221189   1.727   3.577  10.086 -0.4238  0.2078  0.4087
  185SAPI   H2X21190   1.726   3.666  10.019  2.8472  1.2113  1.4731
  185SAPI   H2Y21191   1.671   3.490  10.046 -1.0713 -0.5306  2.7932
  185SAPI   C2321192   1.193   3.438  10.073 -0.0874 -0.0258 -0.2230
  185SAPI   H3R21193   1.098   3.492  10.095 -0.2759 -0.0400 -0.9788
  185SAPI   H3S21194   1.174   3.347  10.012  2.8982 -1.7015  1.0981
  185SAPI   C2421195   1.302   3.517   9.995  0.6339  0.5604 -0.0973
  185SAPI   H4R21196   1.359   3.589  10.057  3.4382 -1.8900  0.4151
  185SAPI   H4S21197   1.245   3.585   9.929  0.5563 -0.8641 -1.5576
  185SAPI   C2521198   1.417   3.437   9.924  0.4486 -0.2989  0.2024
  185SAPI   H5R21199   1.504   3.397   9.978  0.6700  0.9480  0.8121
  185SAPI   C2621200   1.418   3.398   9.795  0.3811  0.6022  0.7632
  185SAPI   H6R21201   1.512   3.348   9.766 -0.3801 -0.2607 -0.3018
  185SAPI   C2721202   1.328   3.442   9.683 -0.2504  0.6151 -1.1879
  185SAPI   H7R21203   1.385   3.502   9.609  1.5512  0.2952 -0.1125
  185SAPI   H7S21204   1.250   3.508   9.726  0.3748  1.5136 -1.4142
  185SAPI   C2821205   1.242   3.333   9.628  0.3280 -0.1105  0.5173
  185SAPI   H8R21206   1.182   3.286   9.708  0.8293  0.7859  1.4405
  185SAPI   C2921207   1.220   3.303   9.501  0.3707 -0.3087 -0.0775
  185SAPI   H9R21208   1.160   3.217   9.468  0.8819 -1.5108  1.9806
  185SAPI  C21021209   1.283   3.369   9.384  0.4435 -0.2540  0.1873
  185SAPI  H10R21210   1.328   3.294   9.315  0.2933 -1.2867  1.1764
  185SAPI  H10S21211   1.363   3.443   9.405 -1.0489  2.1609 -2.1683
  185SAPI  C21121212   1.181   3.445   9.295 -0.6891  0.1064 -0.3670
  185SAPI  H11R21213   1.145   3.531   9.354  0.9945  0.3750  0.3200
  185SAPI  C21221214   1.142   3.416   9.168  0.4280 -0.9623 -0.1751
  185SAPI  H12R21215   1.067   3.484   9.124  0.2770 -0.2003  1.2234
  185SAPI  C21321216   1.177   3.301   9.085  0.1149 -0.2008 -0.0470
  185SAPI  H13R21217   1.267   3.252   9.130  1.3784  2.3698  0.3953
  185SAPI  H13S21218   1.204   3.340   8.985 -1.9329  0.0165 -0.5403
  185SAPI  C21421219   1.060   3.209   9.079  0.3833  0.4080 -0.6755
  185SAPI  H14R21220   1.051   3.157   9.176 -0.4961  0.7622 -0.5616
  185SAPI  C21521221   0.964   3.191   8.985  0.4045  0.5765  0.3476
  185SAPI  H15R21222   0.889   3.112   9.006  1.0486 -0.0673  0.2608
  185SAPI  C21621223   0.955   3.252   8.854  0.8626  0.5751  0.1598
  185SAPI  H16R21224   0.993   3.183   8.776 -0.8795  1.0622 -1.1836
  185SAPI  H16S21225   1.029   3.335   8.845  0.1009  1.1831 -0.6230
  185SAPI  C21721226   0.819   3.313   8.816  0.3491  0.7664  0.4749
  185SAPI  H17R21227   0.812   3.405   8.877  1.3085 -0.9893  3.4602
  185SAPI  H17S21228   0.727   3.264   8.855  0.2457  0.0800 -0.5999
  185SAPI  C21821229   0.800   3.334   8.660  0.2677 -0.1686  0.3561
  185SAPI  H18R21230   0.807   3.238   8.604  1.9743  0.8589 -1.3157
  185SAPI  H18S21231   0.878   3.400   8.617  0.2892  0.5121  1.4101
  185SAPI  C21921232   0.662   3.402   8.633 -0.2638  0.5230 -0.9213
  185SAPI  H19R21233   0.575   3.342   8.667  0.7625 -0.5281 -0.1149
  185SAPI  H19S21234   0.641   3.392   8.524 -0.7728 -0.6993 -0.7204
  185SAPI  C22021235   0.651   3.555   8.646 -0.2711  0.4780  0.6531
  185SAPI  H20R21236   0.679   3.608   8.552  0.4777 -0.9136  0.0710
  185SAPI  H20S21237   0.722   3.584   8.727  1.8757 -4.0875  0.6988
  185SAPI  H20T21238   0.546   3.586   8.664 -0.3012  0.8389 -0.0973
  185SAPI   C3321239   1.878   3.540  10.087  0.4999  0.4649  0.2088
  185SAPI   H3X21240   1.887   3.493   9.986  1.7645  0.6780  0.1954
  185SAPI   H3Y21241   1.904   3.464  10.164 -0.6692 -0.8659 -0.6606
  185SAPI   C3421242   1.968   3.666  10.083 -0.5353  0.2974 -0.2676
  185SAPI   H4X21243   1.950   3.737  10.167  0.4248  1.8598 -1.3409
  185SAPI   H4Y21244   1.940   3.716   9.988 -2.2110 -0.6924 -0.3483
  185SAPI   C3521245   2.117   3.633  10.077  1.0637 -0.7426  0.3363
  185SAPI   H5X21246   2.142   3.574  10.168  0.8993 -1.6237 -0.1836
  185SAPI   H5Y21247   2.180   3.725  10.080 -0.3568  0.2423  0.7743
  185SAPI   C3621248   2.153   3.549   9.956  0.1228  0.3551 -0.2243
  185SAPI   H6X21249   2.091   3.458   9.937  1.7386 -1.1668  1.3861
  185SAPI   H6Y21250   2.255   3.506   9.967  0.1105 -0.0883 -1.6584
  185SAPI   C3721251   2.142   3.632   9.825  0.3246  0.3652  0.5172
  185SAPI   H7X21252   2.180   3.735   9.842  0.3656  0.3351  0.6070
  185SAPI   H7Y21253   2.032   3.635   9.806  0.3890 -1.7301 -0.4194
  185SAPI   C3821254   2.220   3.571   9.701  0.1384  0.3008  0.2647
  185SAPI   H8X21255   2.163   3.481   9.672  0.6182  1.1013 -3.7423
  185SAPI   H8Y21256   2.323   3.549   9.736 -1.2601 -2.0773  3.3443
  185SAPI   C3921257   2.222   3.670   9.582 -0.1724 -0.1923  0.0415
  185SAPI   H9X21258   2.273   3.757   9.628 -0.3726 -1.1236  2.1177
  185SAPI   H9Y21259   2.115   3.684   9.557  0.3644 -0.6002 -2.8755
  185SAPI  C31021260   2.312   3.614   9.473  0.9261 -0.1396  0.4745
  185SAPI  H10X21261   2.291   3.506   9.456  0.5086 -0.1770  1.1737
  185SAPI  H10Y21262   2.417   3.630   9.505  0.2709  1.6332  1.9431
  185SAPI  C31121263   2.299   3.681   9.340  0.6175 -0.3215  0.2942
  185SAPI  H11X21264   2.332   3.787   9.339 -1.5420  0.3957  0.1201
  185SAPI  H11Y21265   2.193   3.680   9.307  0.7232  1.0277 -0.1526
  185SAPI  C31221266   2.373   3.598   9.232  0.1286  0.2738 -0.6313
  185SAPI  H12X21267   2.327   3.497   9.225 -3.2835  1.5845  0.9593
  185SAPI  H12Y21268   2.477   3.578   9.266 -0.9219 -0.1851  2.5654
  185SAPI  C31321269   2.374   3.667   9.092 -0.6069  0.0447  0.5917
  185SAPI  H13X21270   2.408   3.585   9.025 -1.2708 -1.1149  1.6237
  185SAPI  H13Y21271   2.452   3.744   9.077  0.1456 -1.2709 -3.7233
  185SAPI  C31421272   2.238   3.700   9.026 -0.0237 -0.8493  0.0992
  185SAPI  H14X21273   2.180   3.765   9.096  1.4380  0.5285  0.0953
  185SAPI  H14Y21274   2.182   3.608   8.999  0.9606 -1.2684 -0.5498
  185SAPI  C31521275   2.248   3.796   8.904  0.0157  0.6278  0.3582
  185SAPI  H15X21276   2.331   3.761   8.839 -0.8875  0.7425 -0.9110
  185SAPI  H15Y21277   2.273   3.896   8.946 -0.1390 -0.3586  2.9726
  185SAPI  C31621278   2.117   3.791   8.825 -0.9155  0.4979 -0.5571
  185SAPI  H16X21279   2.036   3.803   8.900  0.2355  1.9174  0.5124
  185SAPI  H16Y21280   2.104   3.686   8.791 -3.0124  0.2333  0.8995
  185SAPI  C31721281   2.111   3.894   8.707  0.3237 -0.0233 -0.0219
  185SAPI  H17X21282   2.008   3.878   8.668 -0.2919  0.4820  1.3088
  185SAPI  H17Y21283   2.189   3.841   8.650  1.5520  0.6064  1.0331
  185SAPI  C31821284   2.151   4.042   8.727 -0.0485 -0.0492 -0.4927
  185SAPI  H18X21285   2.262   4.047   8.725 -0.0386  0.4824  0.4909
  185SAPI  H18Y21286   2.112   4.079   8.825  1.0232  0.8608 -0.3789
  185SAPI  H18Z21287   2.126   4.108   8.641 -0.2393 -1.1059 -1.2626
  186SAPI   C1221288   1.515   1.878  11.128  0.5655  0.2883  0.1044
  186SAPI    H221289   1.598   1.870  11.054 -0.5639 -0.3176 -1.1532
  186SAPI    O221290   1.466   1.741  11.144  0.1248  0.3151 -0.4420
  186SAPI   HO221291   1.432   1.708  11.060 -1.5335 -0.6768  0.5485
  186SAPI   C1321292   1.581   1.934  11.250 -0.3370 -0.4520 -0.7336
  186SAPI    H321293   1.620   2.038  11.239  0.7862 -0.8506 -0.6244
  186SAPI    O321294   1.688   1.864  11.301  0.2606 -0.4310  0.6414
  186SAPI   HO321295   1.658   1.778  11.328  1.4624  0.0478  3.9633
  186SAPI   C1421296   1.477   1.948  11.361 -0.6906 -0.0416 -0.7168
  186SAPI    H421297   1.458   1.845  11.397 -3.2407  0.9018  0.9568
  186SAPI    O421298   1.522   2.012  11.486 -0.3167 -0.2335 -0.2463
  186SAPI   HO421299   1.503   1.947  11.554 -0.5809  0.1255  0.0247
  186SAPI   C1521300   1.337   1.996  11.325 -0.4080 -0.3739  0.3427
  186SAPI    H521301   1.343   2.106  11.345  0.6239 -0.1884 -0.8145
  186SAPI    O521302   1.235   1.955  11.415  0.3184  0.0539 -0.0997
  186SAPI   HO521303   1.233   1.859  11.406 -0.3746  0.0879 -0.3450
  186SAPI   C1621304   1.293   1.980  11.174 -0.2991 -0.5467  0.1672
  186SAPI    H621305   1.243   1.881  11.163 -0.5276 -0.2767 -1.4686
  186SAPI    O621306   1.206   2.084  11.135 -0.5820  0.3070  0.1377
  186SAPI   HO621307   1.243   2.121  11.054 -0.9776  1.2370  0.3717
  186SAPI   C1121308   1.406   1.967  11.070 -0.0256  0.7153 -0.4770
  186SAPI    H121309   1.448   2.070  11.066 -1.0434  1.1147 -1.5834
  186SAPI     P21310   1.329   2.036  10.828 -0.0784 -0.5557 -0.2502
  186SAPI   O1321311   1.257   2.153  10.879  0.1598 -0.3282 -0.4224
  186SAPI   O1421312   1.265   1.958  10.719 -0.6033  0.2226 -0.2333
  186SAPI   O1221313   1.346   1.922  10.946 -0.3342 -0.7178  0.4091
  186SAPI   O1121314   1.481   2.066  10.779  0.5403 -0.3829  0.1143
  186SAPI    C121315   1.543   1.953  10.714  1.0294 -0.5972 -0.2341
  186SAPI    HA21316   1.622   1.911  10.780  0.3164 -0.5687  0.6623
  186SAPI    HB21317   1.480   1.864  10.689 -1.7155  0.5560  2.0112
  186SAPI    C221318   1.602   1.995  10.575 -0.0984 -0.6223  0.0956
  186SAPI    HS21319   1.651   2.092  10.596 -0.3397 -0.7838  1.5192
  186SAPI   O2121320   1.496   1.996  10.477  0.1816  0.0655  0.2355
  186SAPI   C2121321   1.462   2.113  10.422 -0.3938 -0.0691  0.0624
  186SAPI   O2221322   1.524   2.215  10.437  0.1200 -0.5062  0.5732
  186SAPI   C2221323   1.348   2.092  10.326  0.3598  0.3938 -0.1654
  186SAPI   H2R21324   1.271   2.027  10.373  0.7009  2.3591  3.4985
  186SAPI   H2S21325   1.291   2.185  10.303 -0.7285  0.1064  1.2023
  186SAPI    C321326   1.714   1.894  10.542  0.1649 -0.3356 -0.4826
  186SAPI    HX21327   1.679   1.788  10.547 -0.2888 -0.1815 -0.2921
  186SAPI    HY21328   1.796   1.913  10.614 -1.0763 -0.5707  1.0595
  186SAPI   O3121329   1.758   1.911  10.406 -0.5730  0.1428 -0.9249
  186SAPI   C3121330   1.843   2.004  10.379 -0.2997 -0.3027  0.2424
  186SAPI   O3221331   1.890   2.087  10.454  0.0456 -0.2529 -0.3725
  186SAPI   C3221332   1.887   1.989  10.233  0.9548 -0.0399 -0.0422
  186SAPI   H2X21333   1.927   1.890  10.204  0.3570 -0.6205  1.0574
  186SAPI   H2Y21334   1.966   2.063  10.208 -0.7559  2.1020  0.5879
  186SAPI   C2321335   1.390   2.023  10.198  0.0384  0.0740  0.5073
  186SAPI   H3R21336   1.461   1.938  10.213 -0.4205 -0.9135 -2.2744
  186SAPI   H3S21337   1.445   2.095  10.134  1.0558  1.9024  3.2592
  186SAPI   C2421338   1.266   1.969  10.121  0.2887 -0.3923 -0.0820
  186SAPI   H4R21339   1.298   1.956  10.016 -1.6117  2.4703 -1.1277
  186SAPI   H4S21340   1.201   2.059  10.128  3.4900  2.2392 -1.9457
  186SAPI   C2521341   1.190   1.849  10.184  0.3130 -0.6502  0.7271
  186SAPI   H5R21342   1.131   1.862  10.276 -2.3082 -1.2330 -0.7879
  186SAPI   C2621343   1.164   1.742  10.116  0.1714  0.0106 -0.0084
  186SAPI   H6R21344   1.108   1.664  10.170 -1.4747  0.1380 -1.4255
  186SAPI   C2721345   1.220   1.695   9.990  0.0605  0.2400 -0.1537
  186SAPI   H7R21346   1.329   1.710  10.004 -0.3112  0.7698  2.8957
  186SAPI   H7S21347   1.196   1.767   9.910 -0.5195 -0.7039 -0.8534
  186SAPI   C2821348   1.171   1.561   9.944 -0.1565  0.2433  0.9184
  186SAPI   H8R21349   1.075   1.522   9.978 -1.1103  1.1187 -0.6490
  186SAPI   C2921350   1.235   1.481   9.853 -0.5606 -0.2383 -0.4773
  186SAPI   H9R21351   1.191   1.381   9.842 -1.5015  0.1199 -0.0275
  186SAPI  C21021352   1.355   1.511   9.772 -0.3430 -0.4502 -0.7043
  186SAPI  H10R21353   1.425   1.426   9.786 -0.6512 -0.4147  1.3574
  186SAPI  H10S21354   1.404   1.599   9.819 -2.2607  0.6303 -0.6621
  186SAPI  C21121355   1.316   1.530   9.628  0.6249  0.0985 -0.5369
  186SAPI  H11R21356   1.235   1.603   9.611 -0.8148 -1.8174 -2.4975
  186SAPI  C21221357   1.353   1.451   9.524 -0.2364 -0.3723  0.2168
  186SAPI  H12R21358   1.307   1.482   9.429 -1.2957 -0.0595  0.8169
  186SAPI  C21321359   1.431   1.324   9.535 -0.2929  0.0863  0.1280
  186SAPI  H13R21360   1.358   1.241   9.543  0.3676 -0.4149  1.0494
  186SAPI  H13S21361   1.490   1.320   9.629  1.7790 -0.4115 -1.1372
  186SAPI  C21421362   1.535   1.285   9.435  0.1909 -0.2068 -0.2007
  186SAPI  H14R21363   1.642   1.288   9.462  0.0647 -0.4790  0.3541
  186SAPI  C21521364   1.511   1.240   9.314 -0.3501  0.0363  0.2093
  186SAPI  H15R21365   1.602   1.207   9.261  0.5151  1.0509  1.0171
  186SAPI  C21621366   1.369   1.220   9.256  0.3510 -0.6110 -0.5978
  186SAPI  H16R21367   1.283   1.240   9.324  0.5679 -1.9985  0.1107
  186SAPI  H16S21368   1.356   1.113   9.231 -0.5538 -0.2753 -1.6210
  186SAPI  C21721369   1.335   1.292   9.126  0.1715 -0.3277  0.2315
  186SAPI  H17R21370   1.353   1.402   9.122  1.2898 -0.4957  0.3775
  186SAPI  H17S21371   1.225   1.282   9.119  0.1564 -0.9293  1.1684
  186SAPI  C21821372   1.408   1.231   9.000 -0.0042  0.6916 -0.0748
  186SAPI  H18R21373   1.379   1.123   8.998 -0.8102  0.8552  1.5844
  186SAPI  H18S21374   1.519   1.237   8.997  0.0447 -0.2993 -1.1098
  186SAPI  C21921375   1.377   1.300   8.865  0.2934 -0.1230 -0.5122
  186SAPI  H19R21376   1.431   1.238   8.790 -1.0151 -1.7646 -0.1759
  186SAPI  H19S21377   1.421   1.402   8.869 -0.3331  0.1837 -1.2129
  186SAPI  C22021378   1.229   1.305   8.829  1.0340 -0.9825  0.8006
  186SAPI  H20R21379   1.218   1.376   8.745  0.9312 -0.6337  1.1043
  186SAPI  H20S21380   1.155   1.339   8.905 -0.1441 -0.0057 -0.7055
  186SAPI  H20T21381   1.186   1.213   8.783 -0.6855  1.0911 -2.0903
  186SAPI   C3321382   1.775   2.030  10.132  1.2728  0.3481  0.3173
  186SAPI   H3X21383   1.783   2.140  10.120  3.3964  0.0199 -2.3684
  186SAPI   H3Y21384   1.679   2.001  10.179  2.0997 -2.5269  0.4257
  186SAPI   C3421385   1.796   1.962   9.999  0.3515 -0.4365 -0.5817
  186SAPI   H4X21386   1.811   1.853  10.008 -2.0064 -0.8294 -0.7533
  186SAPI   H4Y21387   1.887   2.011   9.957  0.0649  0.6944  0.0604
  186SAPI   C3521388   1.668   1.989   9.902  0.3402 -0.1973 -0.2565
  186SAPI   H5X21389   1.675   2.093   9.862 -2.4748  0.2850  0.3210
  186SAPI   H5Y21390   1.572   1.981   9.958 -0.9616 -0.8496 -2.4742
  186SAPI   C3621391   1.680   1.900   9.778  0.5557  0.4151 -0.1660
  186SAPI   H6X21392   1.686   1.794   9.808 -2.2219  0.1347 -0.3449
  186SAPI   H6Y21393   1.777   1.919   9.727  0.6052 -2.7667 -1.4885
  186SAPI   C3721394   1.561   1.915   9.682  0.3865  0.2473  0.6357
  186SAPI   H7X21395   1.558   2.007   9.621  2.3527  0.5238  0.8934
  186SAPI   H7Y21396   1.474   1.922   9.751  0.5994  1.6118  0.7940
  186SAPI   C3821397   1.539   1.790   9.594 -0.0345 -0.2524  0.1476
  186SAPI   H8X21398   1.430   1.773   9.579  0.3767 -2.1455 -1.0760
  186SAPI   H8Y21399   1.567   1.697   9.648  0.0577 -0.4958 -0.3132
  186SAPI   C3921400   1.619   1.810   9.460 -0.6226 -0.0152  0.7345
  186SAPI   H9X21401   1.729   1.818   9.477 -0.0064 -2.7622 -1.2410
  186SAPI   H9Y21402   1.597   1.913   9.426 -1.3501 -0.7445 -1.0967
  186SAPI  C31021403   1.600   1.708   9.351  0.8882  0.0218  0.5152
  186SAPI  H10X21404   1.610   1.603   9.385  1.0279 -0.0014  0.4013
  186SAPI  H10Y21405   1.675   1.727   9.271  0.0038  0.2670 -0.2853
  186SAPI  C31121406   1.465   1.729   9.286 -0.2926 -0.3989  0.9824
  186SAPI  H11X21407   1.463   1.839   9.270  1.4045 -0.2207  1.7172
  186SAPI  H11Y21408   1.370   1.713   9.341 -1.1940  0.5335 -0.2603
  186SAPI  C31221409   1.458   1.658   9.146 -0.9092  0.5503 -0.4470
  186SAPI  H12X21410   1.489   1.553   9.167 -0.1404  0.7141 -0.7031
  186SAPI  H12Y21411   1.532   1.690   9.069  1.7339 -3.8323 -0.0879
  186SAPI  C31321412   1.311   1.665   9.082  0.5142  0.7093  0.2995
  186SAPI  H13X21413   1.240   1.610   9.148 -0.0538  0.1923 -0.7105
  186SAPI  H13Y21414   1.295   1.603   8.992 -1.8233  2.6306 -0.7349
  186SAPI  C31421415   1.241   1.801   9.060  0.1066  0.2931 -0.1635
  186SAPI  H14X21416   1.251   1.856   9.156 -0.6023  0.0207  0.0750
  186SAPI  H14Y21417   1.132   1.783   9.046  0.0770 -1.5937  1.9750
  186SAPI  C31521418   1.304   1.887   8.951  0.5269 -0.0235  0.0078
  186SAPI  H15X21419   1.400   1.923   8.995  1.4919 -3.1595  0.6914
  186SAPI  H15Y21420   1.235   1.974   8.954 -0.1544 -0.5749  0.9828
  186SAPI  C31621421   1.333   1.821   8.817  0.2746  0.3928  0.3913
  186SAPI  H16X21422   1.254   1.746   8.796  1.0961  0.2507 -2.6628
  186SAPI  H16Y21423   1.432   1.773   8.834  1.0936  2.2337  1.0346
  186SAPI  C31721424   1.329   1.924   8.706  0.2566 -0.5879  0.3776
  186SAPI  H17X21425   1.403   2.003   8.731 -2.2721  1.6167  1.4287
  186SAPI  H17Y21426   1.229   1.972   8.694  0.7197  0.0900 -0.9612
  186SAPI  C31821427   1.359   1.862   8.571 -0.6636 -0.0633  0.1602
  186SAPI  H18X21428   1.325   1.758   8.553 -1.5226  0.4132 -1.0999
  186SAPI  H18Y21429   1.469   1.846   8.571 -0.5836  0.1142 -2.4125
  186SAPI  H18Z21430   1.333   1.932   8.489 -1.3337 -1.5974 -0.9845
  187SAPI   C1221431   4.224   4.716   6.179 -0.3752 -0.1852  0.0026
  187SAPI    H221432   4.197   4.806   6.120 -0.7999  1.1304  2.0580
  187SAPI    O221433   4.106   4.640   6.211 -0.0685 -0.2279  0.0843
  187SAPI   HO221434   4.040   4.706   6.232 -0.7226 -1.2691  1.4453
  187SAPI   C1321435   4.320   4.632   6.106 -0.6335  0.2513  0.6923
  187SAPI    H321436   4.400   4.701   6.072 -2.2769  0.8218 -2.3406
  187SAPI    O321437   4.261   4.598   5.981  0.2594 -0.5850 -0.3036
  187SAPI   HO321438   4.177   4.554   5.991  0.2576 -0.3044  1.2436
  187SAPI   C1421439   4.376   4.512   6.178  0.2987 -0.1027 -0.4255
  187SAPI    H421440   4.297   4.434   6.171  1.3658 -1.0700 -2.4389
  187SAPI    O421441   4.485   4.466   6.113 -0.0884 -0.2226  0.2952
  187SAPI   HO421442   4.455   4.410   6.041  0.0926  0.0268  0.0252
  187SAPI   C1521443   4.408   4.550   6.326  0.3321 -0.6401 -0.0043
  187SAPI    H521444   4.514   4.583   6.328 -0.1265  0.8804  1.6208
  187SAPI    O521445   4.401   4.435   6.403 -0.4320  0.2736  0.2211
  187SAPI   HO521446   4.447   4.457   6.484 -0.0410 -0.2430  0.1430
  187SAPI   C1621447   4.325   4.655   6.396  0.8975 -0.4317  0.2082
  187SAPI    H621448   4.231   4.606   6.428  0.0586 -0.0721 -1.5791
  187SAPI    O621449   4.390   4.698   6.516  0.1507  0.2010  0.0041
  187SAPI   HO621450   4.472   4.744   6.497 -0.5741  0.9523 -1.4354
  187SAPI   C1121451   4.294   4.770   6.301 -0.1886  0.2924  1.6330
  187SAPI    H121452   4.393   4.801   6.262 -0.2229 -3.1296 -1.7241
  187SAPI     P21453   4.209   5.015   6.312  0.0344 -0.0577 -0.1024
  187SAPI   O1321454   4.068   5.061   6.325 -0.3343 -0.0956 -0.0841
  187SAPI   O1421455   4.273   5.024   6.179  0.3592 -0.2575  0.1880
  187SAPI   O1221456   4.216   4.868   6.373  0.1901  0.6151  0.1854
  187SAPI   O1121457   4.295   5.107   6.416 -0.1831 -0.1593 -0.2206
  187SAPI    C121458   4.351   5.071   6.544  0.9052 -0.4014  0.0202
  187SAPI    HA21459   4.342   4.963   6.568 -0.3213 -0.7977 -1.9642
  187SAPI    HB21460   4.456   5.105   6.551  0.3445  1.1926  2.0474
  187SAPI    C221461   4.274   5.145   6.667 -0.2286  0.5307  0.3460
  187SAPI    HS21462   4.256   5.252   6.644 -2.3557  0.0092 -0.6763
  187SAPI   O2121463   4.361   5.138   6.787 -0.1490 -0.1326  0.4617
  187SAPI   C2121464   4.347   5.245   6.870 -0.1223 -0.2850  0.3645
  187SAPI   O2221465   4.266   5.335   6.859  0.2113  0.5605 -0.1497
  187SAPI   C2221466   4.463   5.243   6.963  0.6549  0.0875 -0.5503
  187SAPI   H2R21467   4.557   5.223   6.907  1.1740 -0.0512  0.3591
  187SAPI   H2S21468   4.476   5.345   7.005 -0.4173  0.7935 -1.8007
  187SAPI    C321469   4.123   5.092   6.698 -0.7635  0.1428  0.3520
  187SAPI    HX21470   4.139   4.983   6.708 -0.1994  0.3877  2.4771
  187SAPI    HY21471   4.068   5.104   6.602  0.9842  2.0485 -0.5077
  187SAPI   O3121472   4.068   5.150   6.812  0.1114  0.1883  0.3752
  187SAPI   C3121473   3.971   5.242   6.793 -0.3643  0.0336 -0.3906
  187SAPI   O3221474   3.941   5.288   6.684 -0.2191 -0.3796 -0.2925
  187SAPI   C3221475   3.897   5.275   6.916  0.4323 -0.0801  0.1039
  187SAPI   H2X21476   3.858   5.183   6.964 -0.4093  0.1390 -0.1268
  187SAPI   H2Y21477   3.813   5.345   6.894  0.2471  0.1075  1.2934
  187SAPI   C2321478   4.435   5.146   7.078 -0.0528 -0.1937 -0.1108
  187SAPI   H3R21479   4.456   5.041   7.049  0.7017 -0.4326  1.2218
  187SAPI   H3S21480   4.335   5.155   7.125 -1.0742  0.4234 -2.2751
  187SAPI   C2421481   4.551   5.155   7.187 -0.1341 -0.1158 -0.2042
  187SAPI   H4R21482   4.583   5.258   7.215  0.5863 -0.5640  0.6303
  187SAPI   H4S21483   4.639   5.102   7.147  0.3421  0.5753 -0.0860
  187SAPI   C2521484   4.501   5.088   7.311 -0.2531  0.5993 -0.9433
  187SAPI   H5R21485   4.491   4.979   7.307 -1.5295  0.6341  0.4714
  187SAPI   C2621486   4.428   5.147   7.411  0.4090 -0.3211  0.0163
  187SAPI   H6R21487   4.374   5.079   7.479 -0.4091 -0.3682 -0.6648
  187SAPI   C2721488   4.410   5.291   7.437 -0.0408  0.4612  0.0191
  187SAPI   H7R21489   4.380   5.336   7.340 -3.4030  1.0028  1.2059
  187SAPI   H7S21490   4.511   5.334   7.453  0.0209 -0.5606  3.0520
  187SAPI   C2821491   4.322   5.329   7.546  0.4341  0.2189  1.2981
  187SAPI   H8R21492   4.223   5.372   7.521  0.6826 -0.1757 -0.4490
  187SAPI   C2921493   4.349   5.333   7.680  0.3640  0.2649 -0.0535
  187SAPI   H9R21494   4.276   5.368   7.755 -0.6332 -1.2508 -0.2739
  187SAPI  C21021495   4.480   5.277   7.734 -0.3806 -0.2210  0.5252
  187SAPI  H10R21496   4.568   5.340   7.709 -0.6298 -0.3226 -0.6902
  187SAPI  H10S21497   4.501   5.178   7.689 -0.5538 -0.4081  0.8528
  187SAPI  C21121498   4.491   5.248   7.879 -0.0052  0.0103 -0.7818
  187SAPI  H11R21499   4.502   5.343   7.934  3.4915 -0.0843 -1.0601
  187SAPI  C21221500   4.489   5.132   7.950 -0.0963 -0.1616 -0.0063
  187SAPI  H12R21501   4.512   5.130   8.058  0.0712  0.0732 -0.0376
  187SAPI  C21321502   4.459   4.993   7.899  0.0430 -0.0753 -0.5413
  187SAPI  H13R21503   4.456   4.993   7.788 -1.7623  1.2207 -0.5279
  187SAPI  H13S21504   4.357   4.964   7.934 -0.5886  4.7271  2.5929
  187SAPI  C21421505   4.555   4.884   7.944  0.4753  0.3435 -0.4063
  187SAPI  H14R21506   4.536   4.857   8.049 -1.5179 -0.4769 -0.9129
  187SAPI  C21521507   4.660   4.837   7.875  0.0889 -0.2837 -0.1235
  187SAPI  H15R21508   4.716   4.763   7.934  2.3230  2.0951  0.9756
  187SAPI  C21621509   4.703   4.887   7.736 -0.0011  0.6366 -0.3089
  187SAPI  H16R21510   4.798   4.944   7.744  0.2768  0.0425  0.7647
  187SAPI  H16S21511   4.631   4.963   7.696 -1.7449 -0.4070  0.7013
  187SAPI  C21721512   4.724   4.774   7.637 -0.3981 -0.1510  0.0717
  187SAPI  H17R21513   4.785   4.694   7.684 -2.8546 -0.3813  3.1747
  187SAPI  H17S21514   4.786   4.821   7.558 -0.9517  0.4414 -0.0159
  187SAPI  C21821515   4.592   4.715   7.581  0.0270  0.2209  0.4046
  187SAPI  H18R21516   4.546   4.794   7.518 -1.5498  0.7732  2.1459
  187SAPI  H18S21517   4.534   4.707   7.675  0.2647  0.7898  0.6083
  187SAPI  C21921518   4.611   4.597   7.502 -0.1769  0.4901 -0.2011
  187SAPI  H19R21519   4.520   4.533   7.496 -1.4489  2.2681 -0.5288
  187SAPI  H19S21520   4.687   4.529   7.546 -0.8831 -1.8207 -2.2860
  187SAPI  C22021521   4.647   4.631   7.354  0.5984  0.6299 -0.6500
  187SAPI  H20R21522   4.578   4.697   7.296  0.9867  2.2944  0.7003
  187SAPI  H20S21523   4.639   4.531   7.306  0.0685 -0.1197  0.9434
  187SAPI  H20T21524   4.753   4.664   7.342  1.1703 -0.1789  1.7003
  187SAPI   C3321525   3.976   5.362   7.019  0.0578 -0.2756 -0.1582
  187SAPI   H3X21526   4.028   5.443   6.963  1.0508 -0.7007  0.1171
  187SAPI   H3Y21527   4.032   5.291   7.085  0.7488  0.2818 -0.1278
  187SAPI   C3421528   3.903   5.444   7.125  0.5497 -0.0589  0.2531
  187SAPI   H4X21529   3.850   5.377   7.197 -0.4576  0.4154 -0.0349
  187SAPI   H4Y21530   3.830   5.506   7.070  0.5113 -0.9930 -0.7936
  187SAPI   C3521531   3.990   5.538   7.199  0.1101  0.0127 -0.7609
  187SAPI   H5X21532   4.068   5.584   7.136  1.8957 -3.0698 -1.0329
  187SAPI   H5Y21533   4.042   5.481   7.280 -1.6928  2.7729  2.6054
  187SAPI   C3621534   3.907   5.649   7.266 -0.2195 -0.2656  0.3539
  187SAPI   H6X21535   3.825   5.604   7.326 -0.6105 -1.8527 -1.2387
  187SAPI   H6Y21536   3.856   5.707   7.186 -0.0107  0.1891  0.5525
  187SAPI   C3721537   3.999   5.737   7.354  0.5737 -0.3839  0.4824
  187SAPI   H7X21538   3.949   5.836   7.366  2.0630  1.0125 -3.2764
  187SAPI   H7Y21539   4.094   5.762   7.301  0.6443 -0.3964  0.6026
  187SAPI   C3821540   4.019   5.668   7.491 -0.0210  0.1433 -0.4420
  187SAPI   H8X21541   4.088   5.583   7.477 -0.0706 -0.9516  4.3423
  187SAPI   H8Y21542   3.917   5.629   7.513  0.5868 -1.4158 -0.2631
  187SAPI   C3921543   4.076   5.753   7.603 -0.2632 -0.2188  0.0489
  187SAPI   H9X21544   4.008   5.840   7.609 -1.7062 -1.3024  0.0617
  187SAPI   H9Y21545   4.176   5.789   7.573 -0.2038 -0.8282 -0.4994
  187SAPI  C31021546   4.065   5.694   7.741  0.2142  0.0565  0.7058
  187SAPI  H10X21547   4.133   5.605   7.742  1.4078  0.9383  0.3000
  187SAPI  H10Y21548   3.959   5.675   7.768  0.0582  0.4019  0.3483
  187SAPI  C31121549   4.112   5.781   7.867  0.5355  0.7280 -0.0543
  187SAPI  H11X21550   4.037   5.856   7.899  1.0159  0.5770  1.5230
  187SAPI  H11Y21551   4.198   5.847   7.843  1.3485  0.6911  2.4123
  187SAPI  C31221552   4.167   5.693   7.974  0.2890 -0.7075  0.6408
  187SAPI  H12X21553   4.249   5.638   7.923 -0.4086 -0.3276 -0.9631
  187SAPI  H12Y21554   4.100   5.611   8.008 -0.0135 -0.6217  0.2591
  187SAPI  C31321555   4.218   5.767   8.098 -0.3179 -0.2329 -0.4769
  187SAPI  H13X21556   4.125   5.810   8.142 -0.3901 -3.2162  2.7623
  187SAPI  H13Y21557   4.291   5.849   8.084 -0.1712 -0.6581 -2.4711
  187SAPI  C31421558   4.260   5.669   8.206  0.0018  0.2412 -0.2889
  187SAPI  H14X21559   4.364   5.633   8.185  0.0976 -0.1780  0.8218
  187SAPI  H14Y21560   4.184   5.588   8.216 -0.4141  0.8528  2.3082
  187SAPI  C31521561   4.246   5.709   8.357 -0.0844  0.0303 -0.2800
  187SAPI  H15X21562   4.240   5.612   8.410 -2.5806 -0.4593 -1.3003
  187SAPI  H15Y21563   4.151   5.765   8.375 -0.1332 -0.2048  0.2194
  187SAPI  C31621564   4.360   5.789   8.415 -0.4976  0.0680 -0.1587
  187SAPI  H16X21565   4.364   5.893   8.377 -2.5780  0.2668  0.0052
  187SAPI  H16Y21566   4.444   5.730   8.374 -0.6175 -0.0861 -0.1868
  187SAPI  C31721567   4.359   5.798   8.569  0.0362 -0.0737 -0.1896
  187SAPI  H17X21568   4.337   5.695   8.605  1.3359 -0.1358  0.4873
  187SAPI  H17Y21569   4.269   5.858   8.596 -1.1323 -2.2785  1.1714
  187SAPI  C31821570   4.488   5.864   8.633  0.9464 -0.0518  0.8757
  187SAPI  H18X21571   4.565   5.822   8.565 -1.1424 -1.5664 -0.6506
  187SAPI  H18Y21572   4.507   5.825   8.736  0.0272  0.6582  1.3264
  187SAPI  H18Z21573   4.479   5.975   8.629 -1.2737 -0.1968  1.1028
  188SAPI   C1221574   6.633   1.281   6.401 -0.2418 -0.0857 -1.1316
  188SAPI    H221575   6.551   1.206   6.404  0.5305 -0.9137  0.2409
  188SAPI    O221576   6.661   1.302   6.540 -0.7471 -0.0737  0.5225
  188SAPI   HO221577   6.644   1.221   6.590  1.4477  0.1572  1.7680
  188SAPI   C1321578   6.747   1.226   6.320  0.4997 -0.2127  0.0736
  188SAPI    H321579   6.729   1.228   6.211 -1.4627  4.5372  0.2195
  188SAPI    O321580   6.791   1.098   6.368 -0.5836  0.0577  0.0143
  188SAPI   HO321581   6.742   1.028   6.325 -0.9155  1.6590 -2.3819
  188SAPI   C1421582   6.867   1.324   6.344  0.6411  0.4823  0.6709
  188SAPI    H421583   6.890   1.325   6.452  0.1935  0.8776  0.7668
  188SAPI    O421584   6.991   1.289   6.283 -0.1742  0.2173  0.0704
  188SAPI   HO421585   7.063   1.320   6.338  0.2784  0.5265 -0.6700
  188SAPI   C1521586   6.831   1.469   6.326  0.1312 -0.1122  0.2081
  188SAPI    H521587   6.847   1.477   6.217 -3.3697 -1.9448 -0.5795
  188SAPI    O521588   6.929   1.559   6.386  0.4242 -0.3311  0.2585
  188SAPI   HO521589   7.017   1.521   6.393  1.1640  1.4616  1.8784
  188SAPI   C1621590   6.680   1.512   6.348 -0.0764 -0.5218  0.2725
  188SAPI    H621591   6.674   1.549   6.453 -3.1007  0.0084  0.0092
  188SAPI    O621592   6.653   1.623   6.253  0.1069 -0.4043  0.0482
  188SAPI   HO621593   6.612   1.689   6.309 -0.2668 -0.9081  0.3752
  188SAPI   C1121594   6.577   1.406   6.336 -0.1774  0.2008  0.3662
  188SAPI    H121595   6.576   1.383   6.227  2.4807 -1.0585  0.5349
  188SAPI     P21596   6.307   1.384   6.329  0.1133 -0.4858 -0.2584
  188SAPI   O1321597   6.327   1.320   6.202  0.0607 -0.1328  0.2049
  188SAPI   O1421598   6.216   1.503   6.349 -0.0150 -0.0654  0.2883
  188SAPI   O1221599   6.449   1.437   6.392  0.7553 -0.0129  0.3582
  188SAPI   O1121600   6.259   1.268   6.429  0.1228  0.7970  0.5410
  188SAPI    C121601   6.272   1.277   6.570 -0.2668  0.3883 -0.7058
  188SAPI    HA21602   6.342   1.199   6.606  3.2402  2.0305 -3.3219
  188SAPI    HB21603   6.299   1.378   6.606 -1.9744  0.9568 -0.8917
  188SAPI    C221604   6.143   1.248   6.654  1.0524  0.1774  0.3694
  188SAPI    HS21605   6.112   1.145   6.627  1.8478 -1.1565  4.0385
  188SAPI   O2121606   6.045   1.350   6.622  0.3559  0.3252  0.5861
  188SAPI   C2121607   5.923   1.314   6.644 -0.6397  0.3989 -0.8921
  188SAPI   O2221608   5.893   1.200   6.688 -0.4476 -0.6044 -1.1000
  188SAPI   C2221609   5.829   1.421   6.587 -0.6386  0.2070  0.5201
  188SAPI   H2R21610   5.880   1.519   6.573 -0.6318  0.3116  1.2368
  188SAPI   H2S21611   5.794   1.384   6.488  0.9816 -0.3684  0.1225
  188SAPI    C321612   6.170   1.254   6.806 -0.3225  1.1050  0.1634
  188SAPI    HX21613   6.077   1.220   6.856 -0.8850  2.5625  0.1464
  188SAPI    HY21614   6.199   1.355   6.842  1.4104  0.4839  0.6447
  188SAPI   O3121615   6.294   1.185   6.832 -0.5562  0.0520 -0.1621
  188SAPI   C3121616   6.278   1.069   6.904 -0.1941  0.2758  0.4263
  188SAPI   O3221617   6.168   1.028   6.936  0.2841 -0.8685  0.2921
  188SAPI   C3221618   6.415   1.010   6.952  0.6107 -0.3599  0.0695
  188SAPI   H2X21619   6.492   1.057   6.887 -0.9558  1.6490 -0.4541
  188SAPI   H2Y21620   6.414   0.899   6.945 -2.7649 -0.3382 -2.0059
  188SAPI   C2321621   5.706   1.437   6.684 -0.3646 -0.2035 -0.2949
  188SAPI   H3R21622   5.663   1.338   6.710 -4.3927  1.1787 -1.0787
  188SAPI   H3S21623   5.632   1.492   6.623  0.5101 -1.9372 -3.0687
  188SAPI   C2421624   5.736   1.513   6.815 -0.3451  0.0358  0.0649
  188SAPI   H4R21625   5.817   1.459   6.868 -2.4520 -1.4138  2.0423
  188SAPI   H4S21626   5.650   1.506   6.886  0.2487  0.0461  0.7915
  188SAPI   C2521627   5.782   1.656   6.794  0.3270  0.7051  0.1202
  188SAPI   H5R21628   5.851   1.671   6.710  0.1274  1.1800  0.0379
  188SAPI   C2621629   5.721   1.767   6.843 -0.2210  0.4996  0.2908
  188SAPI   H6R21630   5.761   1.865   6.812 -0.5780  0.5919  0.1264
  188SAPI   C2721631   5.611   1.774   6.942 -0.6972  0.3011 -0.1337
  188SAPI   H7R21632   5.633   1.853   7.016 -0.9327 -1.3574  1.7791
  188SAPI   H7S21633   5.607   1.681   7.002 -1.8661  1.0266  0.9618
  188SAPI   C2821634   5.468   1.794   6.890 -0.6389 -0.0355  0.4369
  188SAPI   H8R21635   5.451   1.804   6.781 -0.2180  2.1738  0.5166
  188SAPI   C2921636   5.360   1.807   6.972  0.2071  0.5806  0.3224
  188SAPI   H9R21637   5.260   1.812   6.928 -0.4806  0.3723  1.7940
  188SAPI  C21021638   5.368   1.781   7.117 -0.2065  0.5257 -0.1069
  188SAPI  H10R21639   5.303   1.849   7.176  1.1253  2.7012 -1.0046
  188SAPI  H10S21640   5.470   1.809   7.152  0.0373  0.5663 -0.8218
  188SAPI  C21121641   5.328   1.637   7.156  0.7114  0.1420 -0.3955
  188SAPI  H11R21642   5.283   1.568   7.083  0.3355  0.6339 -0.6303
  188SAPI  C21221643   5.342   1.596   7.285  0.7795 -0.7224  0.7346
  188SAPI  H12R21644   5.316   1.492   7.309 -3.2604 -0.6576 -2.1627
  188SAPI  C21321645   5.398   1.681   7.401  0.1862  0.2638 -0.4042
  188SAPI  H13R21646   5.347   1.654   7.496  1.4822  1.4135  0.6725
  188SAPI  H13S21647   5.399   1.789   7.378  1.0820 -0.1918 -2.7900
  188SAPI  C21421648   5.546   1.654   7.404 -0.4798  0.5244 -0.3033
  188SAPI  H14R21649   5.599   1.699   7.319 -0.7848  1.7642  0.1422
  188SAPI  C21521650   5.609   1.580   7.499 -0.0451  0.2975  0.8469
  188SAPI  H15R21651   5.715   1.552   7.487 -0.0762 -1.2702  3.4547
  188SAPI  C21621652   5.538   1.505   7.612 -0.5899  0.8512 -0.2738
  188SAPI  H16R21653   5.604   1.420   7.639 -2.2086 -0.2482  0.3517
  188SAPI  H16S21654   5.447   1.453   7.576 -0.4660 -2.4960  3.4835
  188SAPI  C21721655   5.505   1.586   7.740 -0.2739 -0.6889 -0.0435
  188SAPI  H17R21656   5.463   1.524   7.822 -0.6255  0.2873  0.5197
  188SAPI  H17S21657   5.442   1.674   7.719 -1.6035 -1.1866  1.6500
  188SAPI  C21821658   5.630   1.662   7.811  0.1051  0.5963  0.4360
  188SAPI  H18R21659   5.633   1.763   7.765 -0.7208  0.3913 -0.0738
  188SAPI  H18S21660   5.723   1.602   7.800 -1.7036 -2.4582  0.6793
  188SAPI  C21921661   5.590   1.687   7.955 -0.2621  0.3164 -0.3538
  188SAPI  H19R21662   5.589   1.588   8.004 -1.7843  0.4116 -0.1619
  188SAPI  H19S21663   5.486   1.724   7.947 -0.3921  0.0356  0.0522
  188SAPI  C22021664   5.679   1.784   8.036 -0.4608  0.3316  0.2440
  188SAPI  H20R21665   5.654   1.774   8.144 -0.4563 -0.2488  0.1931
  188SAPI  H20S21666   5.659   1.889   8.005  0.8606 -0.3254 -3.3181
  188SAPI  H20T21667   5.785   1.752   8.024 -0.1945  1.9712 -3.1214
  188SAPI   C3321668   6.429   1.047   7.103 -0.0688 -0.5483  0.0694
  188SAPI   H3X21669   6.389   1.149   7.120 -0.4961 -0.6205 -0.4783
  188SAPI   H3Y21670   6.537   1.052   7.129 -0.0174  1.1054 -0.3189
  188SAPI   C3421671   6.371   0.943   7.199  0.1396 -0.5074 -0.3683
  188SAPI   H4X21672   6.436   0.853   7.205 -0.3472 -0.8331  0.1438
  188SAPI   H4Y21673   6.265   0.914   7.183  0.5667 -1.9876 -0.7528
  188SAPI   C3521674   6.373   1.002   7.344 -0.0645 -0.7395  0.5320
  188SAPI   H5X21675   6.302   1.086   7.356  1.8162  0.8473  1.2162
  188SAPI   H5Y21676   6.477   1.034   7.366 -0.0117 -0.7375  0.2841
  188SAPI   C3621677   6.328   0.892   7.440 -0.1042 -0.4578 -0.0386
  188SAPI   H6X21678   6.386   0.798   7.429  0.6372  0.0651 -0.6927
  188SAPI   H6Y21679   6.223   0.858   7.430  0.2994 -1.8589  0.2170
  188SAPI   C3721680   6.365   0.924   7.594 -0.8639  0.1912 -0.0408
  188SAPI   H7X21681   6.305   1.013   7.622  0.8823  1.3384  0.2486
  188SAPI   H7Y21682   6.474   0.942   7.609 -1.0886  1.3778  0.2337
  188SAPI   C3821683   6.330   0.798   7.672 -0.5220 -0.5075  0.4488
  188SAPI   H8X21684   6.393   0.709   7.653 -3.4700 -2.3090 -1.8861
  188SAPI   H8Y21685   6.231   0.765   7.632  0.3121 -1.4567 -0.9069
  188SAPI   C3921686   6.327   0.809   7.825 -0.4923 -0.2132  0.1091
  188SAPI   H9X21687   6.277   0.904   7.855  0.9273  1.6688 -2.9211
  188SAPI   H9Y21688   6.433   0.829   7.854 -0.8128 -0.4087  1.4639
  188SAPI  C31021689   6.267   0.688   7.889  0.0561  0.1653  0.0083
  188SAPI  H10X21690   6.329   0.602   7.858 -1.0562 -1.1908  1.3893
  188SAPI  H10Y21691   6.163   0.671   7.855  0.6207  0.3712 -1.9068
  188SAPI  C31121692   6.264   0.696   8.047  0.0732 -0.1802 -0.0232
  188SAPI  H11X21693   6.214   0.786   8.089  1.9346  1.1733 -0.5469
  188SAPI  H11Y21694   6.368   0.717   8.079  0.1107 -0.0246 -0.2480
  188SAPI  C31221695   6.201   0.573   8.125 -0.5568 -0.1746 -0.3349
  188SAPI  H12X21696   6.285   0.509   8.159 -1.2440 -1.7632 -1.4375
  188SAPI  H12Y21697   6.131   0.512   8.063 -1.3020  0.8884 -0.5609
  188SAPI  C31321698   6.130   0.624   8.252 -0.7773 -0.0092 -0.7338
  188SAPI  H13X21699   6.065   0.708   8.221 -0.7875 -0.0147 -0.7268
  188SAPI  H13Y21700   6.197   0.661   8.333 -1.6645  0.1755 -0.0621
  188SAPI  C31421701   6.033   0.520   8.318 -0.1424  0.2908  0.1892
  188SAPI  H14X21702   5.944   0.501   8.254  0.2411 -0.1217 -0.2244
  188SAPI  H14Y21703   5.997   0.574   8.408  1.4285  1.3291  0.2288
  188SAPI  C31521704   6.096   0.390   8.361  0.1275 -0.6590  0.0700
  188SAPI  H15X21705   6.133   0.341   8.268  1.5855  2.1121 -0.9249
  188SAPI  H15Y21706   6.016   0.328   8.408  0.0161 -0.3625  0.2737
  188SAPI  C31621707   6.211   0.395   8.459 -0.0883 -0.7398 -0.3358
  188SAPI  H16X21708   6.191   0.460   8.547 -0.0156  2.4424 -2.4982
  188SAPI  H16Y21709   6.289   0.456   8.409 -2.9242  1.5303 -2.3397
  188SAPI  C31721710   6.272   0.260   8.497  0.1254 -0.6577  0.1747
  188SAPI  H17X21711   6.206   0.207   8.569 -0.4800  2.0906  1.8237
  188SAPI  H17Y21712   6.365   0.275   8.557 -0.6369  2.0213  0.8319
  188SAPI  C31821713   6.297   0.154   8.385  0.7859 -0.5422 -0.3144
  188SAPI  H18X21714   6.351   0.067   8.428  1.2349  0.1630  0.5977
  188SAPI  H18Y21715   6.355   0.197   8.301  1.3565  2.2692  1.3858
  188SAPI  H18Z21716   6.199   0.112   8.354  1.0359 -3.0669  1.8934
  189POPC     N21717   0.411   1.903  10.935  0.0999 -0.4186 -0.1697
  189POPC   C1221718   0.360   1.859  10.802  0.1044  0.0615  0.0833
  189POPC  H12A21719   0.261   1.895  10.781  0.3866  1.1028  0.4756
  189POPC  H12B21720   0.326   1.757  10.812 -2.2021  0.9530  2.3094
  189POPC   C1321721   0.520   1.820  10.989 -1.0678 -0.0885  0.4351
  189POPC  H13A21722   0.563   1.859  11.081 -1.9216  0.2181  0.7082
  189POPC  H13B21723   0.487   1.720  11.011  1.1374 -0.7549  0.9763
  189POPC  H13C21724   0.592   1.798  10.911 -1.6371  2.9691 -1.1336
  189POPC   C1421725   0.472   2.035  10.931  0.1224 -0.3414  0.3498
  189POPC  H14A21726   0.392   2.107  10.919 -1.0862 -1.9299 -1.8747
  189POPC  H14B21727   0.524   2.063  11.021  1.2793 -2.4690  0.4030
  189POPC  H14C21728   0.537   2.040  10.844 -0.8544 -0.7075 -0.4247
  189POPC   C1521729   0.305   1.897  11.040  0.1286  0.1000 -0.1951
  189POPC  H15A21730   0.218   1.957  11.015 -0.4319 -1.2521 -1.7079
  189POPC  H15B21731   0.348   1.921  11.136  0.9781 -0.7566 -0.3541
  189POPC  H15C21732   0.265   1.797  11.044 -0.3745  0.2827 -0.4170
  189POPC   C1121733   0.458   1.859  10.677 -0.1516  1.2841 -0.4860
  189POPC  H11A21734   0.418   1.799  10.592 -0.8557  0.2455  0.5504
  189POPC  H11B21735   0.558   1.823  10.707  0.2968  2.9478  0.0919
  189POPC     P21736   0.593   2.063  10.598  0.1470 -0.3301 -0.4416
  189POPC   O1321737   0.689   2.062  10.709 -0.4268 -0.1755 -0.5864
  189POPC   O1421738   0.559   2.191  10.532 -0.1756 -0.2381 -0.3112
  189POPC   O1221739   0.459   1.994  10.637  0.0222  0.1033  0.4544
  189POPC   O1121740   0.659   1.974  10.487  0.2172  0.8750  0.1877
  189POPC    C121741   0.582   1.931  10.374  0.7945  0.2160  0.1013
  189POPC    HA21742   0.577   2.018  10.305 -0.0037  2.1975  2.5188
  189POPC    HB21743   0.473   1.924  10.397  1.0028 -0.1307  1.0327
  189POPC    C221744   0.640   1.794  10.317 -0.5690  0.4476 -0.2222
  189POPC    HS21745   0.748   1.780  10.341 -0.6201  0.4220 -0.0020
  189POPC   O2121746   0.623   1.781  10.172  1.2460 -0.0242  0.4436
  189POPC   C2121747   0.695   1.678  10.118  0.2711 -0.7613 -0.8134
  189POPC   O2221748   0.776   1.609  10.167 -0.6002 -0.0822 -0.1201
  189POPC   C2221749   0.624   1.648   9.987  0.0656 -0.1075  0.0702
  189POPC   H2R21750   0.644   1.739   9.926 -0.0589 -0.1005  0.0386
  189POPC   H2S21751   0.516   1.658  10.008  0.4624  1.1731  1.6966
  189POPC    C321752   0.577   1.673  10.393 -0.3442  0.4236 -0.6388
  189POPC    HX21753   0.597   1.690  10.501 -2.2615  0.9427 -0.3319
  189POPC    HY21754   0.635   1.580  10.374  2.5779  2.2736 -1.3332
  189POPC   O3121755   0.435   1.664  10.383 -0.3669  0.1962  0.5337
  189POPC   C3121756   0.392   1.580  10.291 -0.6915 -0.0670 -0.1389
  189POPC   O3221757   0.464   1.489  10.243 -0.2150 -0.8205  0.1851
  189POPC   C3221758   0.245   1.611  10.254  0.3656  1.0462 -0.5137
  189POPC   H2X21759   0.199   1.670  10.336  1.3620  1.1781 -0.0407
  189POPC   H2Y21760   0.193   1.513  10.251  0.0644  1.0198  2.3933
  189POPC   C2321761   0.681   1.518   9.926 -0.0684 -0.5332 -0.8547
  189POPC   H3R21762   0.625   1.432   9.970 -0.6388 -1.0977 -2.5819
  189POPC   H3S21763   0.789   1.503   9.948  0.3669  2.2121 -0.7514
  189POPC   C2421764   0.672   1.512   9.778 -0.2398  0.0386 -0.2665
  189POPC   H4R21765   0.694   1.405   9.758  1.3584  0.2296  0.3351
  189POPC   H4S21766   0.759   1.564   9.733  0.3572  0.0773  0.9001
  189POPC   C2521767   0.536   1.547   9.716 -0.2967  0.2506 -0.5467
  189POPC   H5R21768   0.515   1.655   9.731 -1.9692 -0.2235  0.8476
  189POPC   H5S21769   0.447   1.503   9.766 -0.2030  2.4098  1.7099
  189POPC   C2621770   0.534   1.496   9.572  0.0004  0.5088  0.2849
  189POPC   H6R21771   0.553   1.387   9.573 -3.0384 -0.1497 -1.4606
  189POPC   H6S21772   0.604   1.547   9.503 -1.2530 -0.5685 -1.8792
  189POPC   C2721773   0.393   1.501   9.510  0.4472  0.3023  0.0211
  189POPC   H7R21774   0.356   1.605   9.511  2.3617  1.0295  0.8154
  189POPC   H7S21775   0.329   1.447   9.583  0.3535  0.4775  0.0665
  189POPC   C2821776   0.372   1.424   9.383 -0.6958 -0.2143 -0.0375
  189POPC   H8R21777   0.262   1.408   9.374 -1.0337  1.2753  1.0709
  189POPC   H8S21778   0.419   1.326   9.406 -1.0817  0.1420  2.6280
  189POPC   C2921779   0.429   1.490   9.261 -0.1189 -0.3846 -0.3790
  189POPC   H9121780   0.527   1.536   9.279 -0.3898  0.5503 -1.2353
  189POPC  C21021781   0.378   1.494   9.137  0.0378 -0.5613  0.3240
  189POPC  H10121782   0.430   1.551   9.059  3.3503 -2.5290  0.8966
  189POPC  C21121783   0.251   1.429   9.089 -0.3429 -0.1114 -0.3916
  189POPC  H11R21784   0.182   1.499   9.038  0.9653  1.7820  0.3183
  189POPC  H11S21785   0.194   1.391   9.177  1.6453 -0.1925  0.9297
  189POPC  C21221786   0.281   1.320   8.982  0.8645  0.2763 -0.1337
  189POPC  H12R21787   0.354   1.367   8.914  0.7094  2.2384  0.9770
  189POPC  H12S21788   0.193   1.282   8.925  0.4790 -1.4450  1.4904
  189POPC  C21321789   0.355   1.191   9.026 -0.3828 -0.1026  0.3461
  189POPC  H13R21790   0.280   1.136   9.088 -2.9250  1.8658 -0.7914
  189POPC  H13S21791   0.449   1.214   9.081 -0.5029  0.3492  0.3612
  189POPC  C21421792   0.400   1.108   8.907  0.8998  0.6612 -0.0138
  189POPC  H14R21793   0.477   1.146   8.838  0.5676  0.8393 -0.2910
  189POPC  H14S21794   0.305   1.098   8.849  0.5387  1.3480  0.4486
  189POPC  C21521795   0.429   0.967   8.935  0.0765  1.0970 -0.1745
  189POPC  H15R21796   0.356   0.932   9.011 -0.8724  0.9514 -1.1324
  189POPC  H15S21797   0.530   0.949   8.978 -1.4341  0.4456  3.4671
  189POPC  C21621798   0.418   0.868   8.817  0.6201 -0.3548 -0.6913
  189POPC  H16R21799   0.463   0.917   8.728 -0.1377  0.4796 -0.6225
  189POPC  H16S21800   0.311   0.849   8.792  0.1382 -0.8293  1.4842
  189POPC  C21721801   0.491   0.736   8.825  0.0732  0.5934  0.3376
  189POPC  H17R21802   0.438   0.673   8.899 -1.2482  2.1092  0.7498
  189POPC  H17S21803   0.594   0.749   8.863 -0.4214 -1.3395  2.5159
  189POPC  C21821804   0.478   0.667   8.688 -0.8311  0.8012  0.1671
  189POPC  H18R21805   0.548   0.581   8.678  0.9290  1.9301  2.0323
  189POPC  H18S21806   0.523   0.741   8.618  1.0202  0.1439  0.5983
  189POPC  H18T21807   0.374   0.634   8.668 -0.1295 -1.5179  0.1042
  189POPC   C3321808   0.230   1.676  10.115 -0.1078 -0.4630  0.5263
  189POPC   H3X21809   0.312   1.745  10.086 -1.9051  1.1374 -1.0412
  189POPC   H3Y21810   0.139   1.737  10.135  0.2021 -0.1610  1.0350
  189POPC   C3421811   0.183   1.579  10.006  0.9519  0.0746 -0.5109
  189POPC   H4X21812   0.087   1.531  10.035  0.8304  0.5520 -0.1049
  189POPC   H4Y21813   0.260   1.501   9.987  0.8337  0.2838 -1.9427
  189POPC   C3521814   0.161   1.658   9.876 -0.4585  0.3221  0.1143
  189POPC   H5X21815   0.256   1.703   9.839 -0.3333 -0.7791 -0.9563
  189POPC   H5Y21816   0.091   1.740   9.901 -1.6064 -0.1097 -1.5072
  189POPC   C3621817   0.112   1.561   9.767 -0.3491 -0.1429 -0.3093
  189POPC   H6X21818   0.019   1.509   9.798  0.6434 -1.5599  0.4092
  189POPC   H6Y21819   0.183   1.477   9.753 -1.3227 -0.7664 -1.7854
  189POPC   C3721820   0.087   1.637   9.637  0.0760 -0.4420 -0.7606
  189POPC   H7X21821   0.179   1.689   9.602  1.1797 -0.5673  1.7482
  189POPC   H7Y21822   0.010   1.715   9.653 -0.5905 -1.2320  0.0384
  189POPC   C3821823   0.035   1.557   9.519  0.6677  0.7204 -0.0614
  189POPC   H8X21824  -0.044   1.490   9.560  1.2617 -0.7218 -1.2023
  189POPC   H8Y21825   0.112   1.493   9.472  1.1896  1.9774 -0.9775
  189POPC   C3921826  -0.025   1.659   9.418  0.1059 -0.3435 -0.4917
  189POPC   H9X21827   0.049   1.742   9.407 -1.1388  0.9586  0.5574
  189POPC   H9Y21828  -0.111   1.713   9.461  0.5173 -0.2787  0.2682
  189POPC  C31021829  -0.045   1.587   9.283  0.3078 -0.2058  1.1583
  189POPC  H10X21830  -0.107   1.496   9.295 -1.7171  0.8021 -0.9439
  189POPC  H10Y21831   0.053   1.557   9.240 -0.4557 -2.5608  0.9504
  189POPC  C31121832  -0.108   1.666   9.161  0.8291 -0.0133  0.7406
  189POPC  H11X21833  -0.037   1.749   9.140 -0.8227  1.2950 -0.0060
  189POPC  H11Y21834  -0.203   1.717   9.190  1.8388  1.9085  0.8269
  189POPC  C31221835  -0.126   1.593   9.034 -0.4817  0.2894  0.8716
  189POPC  H12X21836  -0.203   1.514   9.048  0.9897 -1.2315  0.6852
  189POPC  H12Y21837  -0.025   1.559   9.006  0.0345  2.2959  0.1205
  189POPC  C31321838  -0.191   1.691   8.936  0.2516 -0.2355  0.2126
  189POPC  H13X21839  -0.119   1.773   8.913 -2.8568  2.7357  0.3824
  189POPC  H13Y21840  -0.275   1.751   8.975  0.3266  1.2502 -1.7202
  189POPC  C31421841  -0.226   1.650   8.794  0.6090  0.0512 -0.3207
  189POPC  H14X21842  -0.255   1.743   8.739  0.7696  0.0747 -0.3664
  189POPC  H14Y21843  -0.310   1.578   8.798 -2.3426  3.2566  1.0793
  189POPC  C31521844  -0.111   1.590   8.714 -0.5978 -0.2936 -0.4181
  189POPC  H15X21845  -0.155   1.562   8.616 -1.3166  0.2003 -0.2446
  189POPC  H15Y21846  -0.071   1.499   8.765  0.9206  0.6317  0.1086
  189POPC  C31621847   0.016   1.679   8.689  0.3070  0.0366 -0.3617
  189POPC  H16X21848   0.088   1.632   8.619  0.5673  1.0105 -0.7618
  189POPC  H16Y21849   0.067   1.705   8.784  1.9820 -0.2648 -1.1353
  189POPC  H16Z21850  -0.019   1.777   8.650 -0.8044  0.0026  0.5070
  190POPC     N21851   3.118   0.919   0.734 -0.0976 -0.3316  0.0038
  190POPC   C1221852   3.046   1.031   0.808 -0.6673 -0.4935 -0.4503
  190POPC  H12A21853   2.947   0.996   0.829 -0.5204  0.5529  2.3174
  190POPC  H12B21854   3.024   1.114   0.743 -1.7392 -0.5660 -0.1893
  190POPC   C1321855   3.166   0.816   0.838  0.4052 -0.2506  0.5530
  190POPC  H13A21856   3.230   0.743   0.792  0.6078  0.7982 -0.9104
  190POPC  H13B21857   3.226   0.870   0.910  0.2849  0.6396  0.0056
  190POPC  H13C21858   3.089   0.762   0.891  0.6188 -0.4816  0.6276
  190POPC   C1421859   3.026   0.846   0.653  0.1181  0.9786  0.5956
  190POPC  H14A21860   2.983   0.909   0.576 -2.2343 -0.7465  0.3959
  190POPC  H14B21861   3.070   0.757   0.610 -1.7744  0.6994 -0.9056
  190POPC  H14C21862   2.952   0.804   0.719  1.0938 -0.6800  0.6821
  190POPC   C1521863   3.229   0.965   0.649  0.3894 -0.8316  0.2086
  190POPC  H15A21864   3.194   1.057   0.606 -0.7792 -1.8321 -1.0492
  190POPC  H15B21865   3.248   0.890   0.574  1.5042 -0.5848  0.2220
  190POPC  H15C21866   3.314   0.984   0.713 -0.8466  0.6236  1.5199
  190POPC   C1121867   3.110   1.096   0.938  0.0478 -0.2260  0.3208
  190POPC  H11A21868   3.112   1.016   1.015  0.1510 -0.8557 -0.3223
  190POPC  H11B21869   3.044   1.177   0.974  0.7155  0.7524 -0.6111
  190POPC     P21870   3.310   1.259   0.905  0.0386  0.0333 -0.0349
  190POPC   O1321871   3.310   1.293   0.767  0.5043  0.4392  0.1436
  190POPC   O1421872   3.445   1.259   0.962 -0.1467  0.1572 -0.0129
  190POPC   O1221873   3.249   1.122   0.921 -0.3386 -0.5550 -0.4208
  190POPC   O1121874   3.217   1.357   0.989 -0.0725  0.1872  0.2492
  190POPC    C121875   3.235   1.500   0.986 -0.1314  0.3140 -0.3550
  190POPC    HA21876   3.341   1.525   1.008 -0.2851  0.4334  0.2651
  190POPC    HB21877   3.171   1.552   1.061 -1.0939  1.1211 -1.6964
  190POPC    C221878   3.180   1.579   0.861 -0.1946 -0.1699  0.0992
  190POPC    HS21879   3.249   1.548   0.779 -1.4334  0.6648 -1.3234
  190POPC   O2121880   3.184   1.723   0.889  0.3573  0.5658 -0.0564
  190POPC   C2121881   3.200   1.810   0.783 -0.8409  0.0050 -0.4461
  190POPC   O2221882   3.230   1.774   0.673  0.5093  0.4506 -0.4858
  190POPC   C2221883   3.183   1.958   0.825  0.9067 -0.0038  0.0865
  190POPC   H2R21884   3.279   2.004   0.793  0.7781 -0.6188 -1.2735
  190POPC   H2S21885   3.168   1.959   0.935  3.3464  1.8225  0.4923
  190POPC    C321886   3.034   1.536   0.831  0.1679 -0.0526  0.2678
  190POPC    HX21887   3.037   1.425   0.817  0.4229  0.2243 -2.2898
  190POPC    HY21888   2.985   1.572   0.738 -1.7587 -1.9039  0.4854
  190POPC   O3121889   2.942   1.552   0.940 -0.7180  0.3457 -0.5279
  190POPC   C3121890   2.897   1.672   0.966 -0.0669  0.1490  0.2362
  190POPC   O3221891   2.893   1.766   0.887 -0.2606 -0.1147 -0.3001
  190POPC   C3221892   2.843   1.690   1.104  0.4779 -0.1944  0.2137
  190POPC   H2X21893   2.905   1.620   1.165  0.6653 -0.4890 -0.3069
  190POPC   H2Y21894   2.740   1.653   1.121  0.4865  0.4478  1.9280
  190POPC   C2321895   3.068   2.024   0.740  0.7210  0.7372 -0.2027
  190POPC   H3R21896   2.970   1.971   0.732 -0.6406  3.1105 -0.0223
  190POPC   H3S21897   3.093   2.023   0.632 -1.3798 -1.7546 -0.7717
  190POPC   C2421898   3.025   2.162   0.776  0.3304 -0.5683 -0.3295
  190POPC   H4R21899   2.957   2.206   0.700 -0.0200  0.7288  0.6800
  190POPC   H4S21900   3.117   2.224   0.789  1.2152 -1.8628 -0.2518
  190POPC   C2521901   2.933   2.183   0.906  0.0723  0.7567  0.2457
  190POPC   H5R21902   2.965   2.105   0.979  2.1182 -0.9146 -2.2267
  190POPC   H5S21903   2.831   2.157   0.870  0.5239 -1.4708  0.3929
  190POPC   C2621904   2.923   2.326   0.961 -0.3863  0.0138 -0.1592
  190POPC   H6R21905   2.821   2.338   1.003  0.3399  1.4414  1.3113
  190POPC   H6S21906   2.942   2.406   0.886 -0.8619  3.1219  2.8233
  190POPC   C2721907   3.020   2.334   1.083  0.2002 -0.0563 -0.5203
  190POPC   H7R21908   2.981   2.276   1.170  1.7977  2.7032  2.2327
  190POPC   H7S21909   3.010   2.438   1.121  1.6881  0.0207 -0.2784
  190POPC   C2821910   3.163   2.291   1.051 -0.0555  0.5760  0.2956
  190POPC   H8R21911   3.200   2.318   0.950 -0.2635  1.3092  0.4081
  190POPC   H8S21912   3.161   2.180   1.052 -0.8036  0.5806  1.2250
  190POPC   C2921913   3.262   2.338   1.158 -0.3337  0.0270 -0.1731
  190POPC   H9121914   3.271   2.448   1.157  1.8865 -0.1114 -1.1783
  190POPC  C21021915   3.320   2.263   1.253  0.6180  0.1586 -0.2273
  190POPC  H10121916   3.388   2.320   1.318 -1.3703  2.2566  0.1224
  190POPC  C21121917   3.307   2.114   1.269 -0.1930  0.9870  0.0217
  190POPC  H11R21918   3.406   2.066   1.258 -0.1536  1.4293 -1.8998
  190POPC  H11S21919   3.244   2.062   1.193  1.8433  1.7758 -2.3477
  190POPC  C21221920   3.267   2.084   1.412  0.2423 -0.6695 -0.8764
  190POPC  H12R21921   3.327   2.139   1.487 -0.3848  0.0916 -0.9272
  190POPC  H12S21922   3.272   1.976   1.437 -0.3728 -0.9812 -1.9918
  190POPC  C21321923   3.129   2.144   1.451  0.1983  0.2228  0.0836
  190POPC  H13R21924   3.055   2.089   1.389  2.4669  0.6235 -3.2359
  190POPC  H13S21925   3.112   2.244   1.407  1.2668 -0.4502 -1.9971
  190POPC  C21421926   3.086   2.138   1.594  0.5670  0.5921 -0.4676
  190POPC  H14R21927   2.988   2.181   1.625  1.0651  1.1673  0.3474
  190POPC  H14S21928   3.156   2.203   1.651  0.1659 -0.9969  2.0214
  190POPC  C21521929   3.083   1.991   1.659  0.5447  0.6497  0.2694
  190POPC  H15R21930   3.070   1.992   1.770 -1.3129  0.2672  0.0807
  190POPC  H15S21931   3.181   1.950   1.626  0.1403 -0.6090  0.5594
  190POPC  C21621932   2.965   1.911   1.596  1.0849  0.0093  0.2917
  190POPC  H16R21933   2.961   1.943   1.490  0.2192  1.8758  0.8417
  190POPC  H16S21934   2.869   1.928   1.650  1.1825 -0.9152  0.7726
  190POPC  C21721935   2.987   1.764   1.614 -0.0704  0.8201 -0.0356
  190POPC  H17R21936   3.011   1.741   1.720  3.0010  0.7706 -0.6528
  190POPC  H17S21937   3.069   1.726   1.549 -0.7234 -1.3163  0.3043
  190POPC  C21821938   2.862   1.668   1.592  0.4401  0.0891 -0.4656
  190POPC  H18R21939   2.820   1.668   1.489 -1.6670  0.1566  0.3437
  190POPC  H18S21940   2.784   1.674   1.670  2.0694 -3.5651  1.6814
  190POPC  H18T21941   2.897   1.565   1.612 -1.4235 -0.5073 -0.1714
  190POPC   C3321942   2.867   1.832   1.163 -0.4292 -0.0030 -0.5195
  190POPC   H3X21943   2.933   1.891   1.096 -0.7754  0.8915 -0.0806
  190POPC   H3Y21944   2.903   1.826   1.268 -0.2667 -0.7177 -0.6043
  190POPC   C3421945   2.739   1.914   1.180  0.3399  0.2451 -0.2718
  190POPC   H4X21946   2.665   1.868   1.250 -1.3623  0.2410 -1.9820
  190POPC   H4Y21947   2.678   1.928   1.088  1.6473  0.7023 -1.0961
  190POPC   C3521948   2.765   2.054   1.235 -0.2317  0.3960  0.1542
  190POPC   H5X21949   2.818   2.128   1.171  0.1519  1.4460  1.6185
  190POPC   H5Y21950   2.830   2.037   1.324 -1.2912  0.2700  0.9273
  190POPC   C3621951   2.640   2.133   1.275  0.5008  0.5045  0.1510
  190POPC   H6X21952   2.566   2.060   1.314  0.1816  0.2763 -0.8584
  190POPC   H6Y21953   2.593   2.172   1.182  0.0116 -1.2144 -0.3559
  190POPC   C3721954   2.663   2.238   1.383  0.3230 -0.1900 -0.6879
  190POPC   H7X21955   2.752   2.207   1.441  0.0418 -1.5834 -0.9686
  190POPC   H7Y21956   2.594   2.233   1.471  2.0156  2.9468  0.9925
  190POPC   C3821957   2.676   2.377   1.335  0.5196  0.0803  0.0429
  190POPC   H8X21958   2.577   2.404   1.292  1.0484 -0.5937 -1.6485
  190POPC   H8Y21959   2.752   2.386   1.255  0.9120  0.5048  0.4573
  190POPC   C3921960   2.704   2.483   1.442 -0.1221 -0.5430  0.4398
  190POPC   H9X21961   2.628   2.499   1.522 -1.4513  0.4849 -0.9718
  190POPC   H9Y21962   2.700   2.583   1.394 -0.1059 -0.9239 -0.3787
  190POPC  C31021963   2.847   2.462   1.499  0.2221 -0.8050  0.3230
  190POPC  H10X21964   2.924   2.448   1.421  1.0182  1.4301  0.6579
  190POPC  H10Y21965   2.852   2.364   1.552 -0.7739 -1.1877 -0.2430
  190POPC  C31121966   2.897   2.581   1.588  0.7248  0.0959  0.1073
  190POPC  H11X21967   2.821   2.591   1.668  0.2985  3.9386 -0.5803
  190POPC  H11Y21968   2.885   2.676   1.531  1.3765  0.6551  0.8890
  190POPC  C31221969   3.039   2.560   1.639  0.5145 -0.4835 -0.0559
  190POPC  H12X21970   3.076   2.455   1.632  2.3244  0.2434 -2.2882
  190POPC  H12Y21971   3.060   2.592   1.743 -1.9014 -0.0677  0.3648
  190POPC  C31321972   3.141   2.643   1.555  0.1971 -0.5521  0.3471
  190POPC  H13X21973   3.136   2.620   1.447 -0.3329  0.3992  0.1581
  190POPC  H13Y21974   3.239   2.604   1.591  0.8569  0.5181 -0.2341
  190POPC  C31421975   3.127   2.794   1.574  0.7330 -0.1568  0.0117
  190POPC  H14X21976   3.125   2.810   1.684 -1.0205  1.9655 -0.2699
  190POPC  H14Y21977   3.027   2.830   1.543 -1.2827 -3.0813  2.4892
  190POPC  C31521978   3.235   2.882   1.514  0.3748  0.2757 -0.4457
  190POPC  H15X21979   3.330   2.860   1.566 -0.2716  0.0053  0.6542
  190POPC  H15Y21980   3.200   2.982   1.548 -2.4303 -0.9376  0.5084
  190POPC  C31621981   3.242   2.878   1.367  0.3073 -0.5577 -0.2469
  190POPC  H16X21982   3.145   2.886   1.314  0.6109 -3.2459 -1.3698
  190POPC  H16Y21983   3.293   2.786   1.330 -0.1833 -0.2624 -1.7313
  190POPC  H16Z21984   3.304   2.960   1.325 -0.3826 -0.5132 -1.2221
  191POPC     N21985   1.074   6.618   5.609  0.2483  0.0905 -0.8025
  191POPC   C1221986   1.191   6.650   5.708  0.8554 -0.2462  0.5451
  191POPC  H12A21987   1.162   6.726   5.779 -0.5221 -2.7805  2.9118
  191POPC  H12B21988   1.273   6.690   5.650  1.9813 -0.8765  1.6629
  191POPC   C1321989   1.116   6.513   5.509 -0.8870  1.3794  0.0357
  191POPC  H13A21990   1.131   6.424   5.570  1.1424  2.1475  0.7345
  191POPC  H13B21991   1.040   6.502   5.433 -0.2161 -0.1336 -0.4749
  191POPC  H13C21992   1.211   6.539   5.465 -0.2681  0.2626  0.6611
  191POPC   C1421993   0.941   6.583   5.682  0.0969 -0.0273 -0.2158
  191POPC  H14A21994   0.905   6.663   5.745 -2.1255 -2.6492  2.0854
  191POPC  H14B21995   0.854   6.553   5.625 -0.8259  1.0281  0.6003
  191POPC  H14C21996   0.964   6.498   5.745 -0.8108  0.0900  0.2995
  191POPC   C1521997   1.036   6.739   5.526 -0.8113  0.7694  0.3185
  191POPC  H15A21998   0.956   6.713   5.459  0.1767 -0.6827 -0.3456
  191POPC  H15B21999   1.127   6.769   5.475  0.0415  1.0718  1.9675
  191POPC  H15C22000   1.014   6.829   5.582 -2.4714  1.0120 -0.6584
  191POPC   C1122001   1.238   6.539   5.804 -0.5037 -0.0764  0.4508
  191POPC  H11A22002   1.339   6.556   5.848 -1.0302 -2.6684  2.9503
  191POPC  H11B22003   1.259   6.445   5.747  2.2624  0.3414  0.6277
  191POPC     P22004   1.130   6.623   6.016 -0.1631 -0.1650 -0.0904
  191POPC   O1322005   1.019   6.580   6.098 -0.5589  0.0738  0.2550
  191POPC   O1422006   1.114   6.756   5.955  0.0164  0.6739  0.4497
  191POPC   O1222007   1.149   6.510   5.905 -0.1061 -0.2570 -0.1204
  191POPC   O1122008   1.264   6.611   6.094  0.2269  0.0014 -0.4405
  191POPC    C122009   1.310   6.473   6.138  0.2430 -0.3610  0.5241
  191POPC    HA22010   1.421   6.468   6.137  0.3747  0.7389 -2.3590
  191POPC    HB22011   1.282   6.396   6.063 -0.8824 -0.6851  1.2672
  191POPC    C222012   1.254   6.424   6.274 -0.0704  0.3696  0.2291
  191POPC    HS22013   1.166   6.486   6.302 -0.3409  0.4857 -0.8358
  191POPC   O2122014   1.355   6.439   6.378  0.0935  0.1242 -0.0327
  191POPC   C2122015   1.389   6.556   6.417  0.2990 -0.2524  0.2538
  191POPC   O2222016   1.342   6.664   6.369 -0.6618  0.5730  0.2618
  191POPC   C2222017   1.486   6.550   6.535 -0.3334  0.9411 -0.0592
  191POPC   H2R22018   1.501   6.660   6.541 -2.0551  1.1915  0.1611
  191POPC   H2S22019   1.582   6.508   6.498  1.5555  2.5064  2.6516
  191POPC    C322020   1.223   6.269   6.269  0.0948 -0.0196  0.2693
  191POPC    HX22021   1.318   6.225   6.233  0.7196 -0.3365  2.1543
  191POPC    HY22022   1.150   6.237   6.192 -1.2175 -2.1983  2.2607
  191POPC   O3122023   1.185   6.212   6.394 -0.0911 -0.4308  0.2769
  191POPC   C3122024   1.083   6.268   6.458  0.2816  0.2047 -0.4064
  191POPC   O3222025   1.003   6.358   6.430 -0.1924  0.6255 -0.2726
  191POPC   C3222026   1.076   6.197   6.595  0.8605 -0.4123  0.2613
  191POPC   H2X22027   1.172   6.217   6.647  1.0475 -0.5563 -0.0228
  191POPC   H2Y22028   1.066   6.091   6.562 -2.6744  0.7331 -3.1007
  191POPC   C2322029   1.424   6.476   6.661 -0.5359  0.1161 -0.0620
  191POPC   H3R22030   1.500   6.480   6.742 -0.3882 -1.1884 -0.1222
  191POPC   H3S22031   1.412   6.370   6.630 -2.4636  0.7162 -1.5945
  191POPC   C2422032   1.286   6.527   6.715  0.3345 -0.4793 -0.3802
  191POPC   H4R22033   1.200   6.509   6.647  0.0991  3.9860 -1.5732
  191POPC   H4S22034   1.289   6.638   6.722 -5.4533 -0.0092 -0.8692
  191POPC   C2522035   1.237   6.459   6.850 -0.3974 -0.4479  0.1660
  191POPC   H5R22036   1.237   6.349   6.844 -0.5943 -0.5809  2.1142
  191POPC   H5S22037   1.131   6.489   6.864 -0.7508 -0.6458 -1.8051
  191POPC   C2622038   1.322   6.512   6.968  0.1765 -0.1880  0.9663
  191POPC   H6R22039   1.326   6.623   6.962  1.0510 -0.0565  2.9793
  191POPC   H6S22040   1.425   6.470   6.963 -0.4889 -1.7623 -0.7429
  191POPC   C2722041   1.265   6.475   7.099 -0.3529 -0.4066  0.5064
  191POPC   H7R22042   1.272   6.367   7.123  0.3209 -0.1672  1.4440
  191POPC   H7S22043   1.156   6.489   7.082 -0.2292 -0.6148 -0.5253
  191POPC   C2822044   1.299   6.558   7.219 -0.1003  0.2300  0.2438
  191POPC   H8R22045   1.228   6.527   7.298 -0.4774  0.3336 -0.0486
  191POPC   H8S22046   1.298   6.668   7.201  1.2239  0.0260 -1.2689
  191POPC   C2922047   1.443   6.538   7.265  0.5192 -0.4879  0.4205
  191POPC   H9122048   1.510   6.548   7.178 -2.8929  3.4053 -2.0959
  191POPC  C21022049   1.495   6.514   7.389  0.4526 -1.0429  0.3391
  191POPC  H10122050   1.604   6.521   7.400  0.1883  1.4864  2.2542
  191POPC  C21122051   1.425   6.520   7.526 -0.0584  0.6522  0.2116
  191POPC  H11R22052   1.341   6.449   7.537 -0.8380  1.7001  1.2780
  191POPC  H11S22053   1.386   6.624   7.532  2.0404  1.4438  1.1404
  191POPC  C21222054   1.515   6.511   7.654  0.3965  0.3217  0.2114
  191POPC  H12R22055   1.604   6.576   7.650  1.9953 -1.7843 -0.1629
  191POPC  H12S22056   1.553   6.407   7.658  0.4191  0.3613  2.1493
  191POPC  C21322057   1.437   6.556   7.770 -0.2903 -0.1652  0.4388
  191POPC  H13R22058   1.342   6.498   7.772 -1.2658  1.3369 -0.2838
  191POPC  H13S22059   1.407   6.663   7.762  2.6584  0.7300  0.3018
  191POPC  C21422060   1.496   6.514   7.909 -0.3379 -0.3092  0.9729
  191POPC  H14R22061   1.599   6.554   7.921  0.3430 -2.2326  2.1047
  191POPC  H14S22062   1.492   6.403   7.920 -2.5175 -0.1712  2.1454
  191POPC  C21522063   1.404   6.563   8.029  0.4713 -0.9245  0.1665
  191POPC  H15R22064   1.299   6.527   8.020  0.4344 -0.9587  0.6995
  191POPC  H15S22065   1.391   6.673   8.023  0.3318 -0.9841 -0.6672
  191POPC  C21622066   1.441   6.519   8.172 -1.2119 -0.0368  0.2683
  191POPC  H16R22067   1.544   6.556   8.193 -0.2732 -2.3983  0.1962
  191POPC  H16S22068   1.453   6.408   8.178  1.6104  0.1068 -0.9331
  191POPC  C21722069   1.343   6.573   8.272  0.0421 -0.0291  0.1628
  191POPC  H17R22070   1.236   6.545   8.258 -0.0999  0.2882  0.5764
  191POPC  H17S22071   1.348   6.684   8.261 -1.4472  0.0091 -0.3216
  191POPC  C21822072   1.381   6.519   8.410 -0.4197  0.3832 -0.4820
  191POPC  H18R22073   1.485   6.551   8.432 -1.3544  1.2173  3.2802
  191POPC  H18S22074   1.377   6.408   8.423  1.0703  0.5201  1.5728
  191POPC  H18T22075   1.325   6.579   8.484  1.3751 -0.6824  1.8751
  191POPC   C3322076   0.973   6.237   6.699  0.4211  0.2523  0.1270
  191POPC   H3X22077   0.873   6.246   6.652  0.4370 -1.8036 -0.3828
  191POPC   H3Y22078   1.004   6.336   6.739  0.8505  0.2306 -0.1470
  191POPC   C3422079   0.975   6.132   6.814 -0.4626  0.0605  0.4722
  191POPC   H4X22080   1.082   6.112   6.840 -1.4062 -0.8608  4.1846
  191POPC   H4Y22081   0.919   6.045   6.772  0.4767  0.5183 -1.9407
  191POPC   C3522082   0.905   6.196   6.935  0.1431  0.2454 -0.1741
  191POPC   H5X22083   0.821   6.258   6.895 -1.4920 -0.2287  2.3341
  191POPC   H5Y22084   0.974   6.259   6.995  1.2971  0.2345 -1.4432
  191POPC   C3622085   0.823   6.091   7.017  0.4687 -0.0382  0.6642
  191POPC   H6X22086   0.889   6.051   7.097 -1.6142 -0.8091  2.0809
  191POPC   H6Y22087   0.796   6.006   6.949 -0.1796  0.5042  0.2339
  191POPC   C3722088   0.692   6.144   7.076  0.3555  0.1127  0.1214
  191POPC   H7X22089   0.643   6.062   7.131 -0.8489  0.5246 -0.3060
  191POPC   H7Y22090   0.623   6.181   6.997 -0.0194 -1.8510 -0.5178
  191POPC   C3822091   0.714   6.259   7.177  0.2878  0.9557  0.4383
  191POPC   H8X22092   0.616   6.277   7.226 -0.3518  0.2897 -0.5349
  191POPC   H8Y22093   0.736   6.357   7.129  2.1205  0.9823  1.2699
  191POPC   C3922094   0.817   6.244   7.288 -0.2211  0.4745  0.7966
  191POPC   H9X22095   0.920   6.252   7.248 -0.7818 -0.1317 -0.8623
  191POPC   H9Y22096   0.808   6.139   7.324 -0.6637 -0.1523 -1.0584
  191POPC  C31022097   0.806   6.354   7.404 -0.4907 -0.0463 -0.0540
  191POPC  H10X22098   0.728   6.321   7.476  0.2461 -0.8509  0.4070
  191POPC  H10Y22099   0.768   6.449   7.361 -2.0317 -0.2015  0.8998
  191POPC  C31122100   0.938   6.358   7.487 -0.7168  0.4987 -0.4213
  191POPC  H11X22101   1.025   6.385   7.423 -1.2757  1.0890 -0.9521
  191POPC  H11Y22102   0.954   6.255   7.525  2.1902  1.0806  0.1157
  191POPC  C31222103   0.944   6.468   7.592 -0.0691 -0.3158 -0.3080
  191POPC  H12X22104   0.846   6.459   7.644  1.0125 -1.5712  1.6537
  191POPC  H12Y22105   0.934   6.564   7.536  1.3167  0.3125  0.4912
  191POPC  C31322106   1.054   6.456   7.691 -0.4002 -0.0486 -0.7923
  191POPC  H13X22107   1.152   6.478   7.644  0.2376  0.9601  0.9280
  191POPC  H13Y22108   1.055   6.353   7.733 -0.2035 -0.3887 -1.6053
  191POPC  C31422109   1.043   6.573   7.787 -0.2904 -0.3920  0.6698
  191POPC  H14X22110   1.026   6.664   7.725  0.2508 -0.5640  0.2678
  191POPC  H14Y22111   1.136   6.598   7.842  0.2444  0.3065 -0.5166
  191POPC  C31522112   0.933   6.564   7.890 -1.3317 -0.1777 -0.4348
  191POPC  H15X22113   0.969   6.478   7.952  0.5806  1.7737  1.3226
  191POPC  H15Y22114   0.839   6.537   7.838 -1.5004  0.9374 -0.7286
  191POPC  C31622115   0.925   6.679   7.992  0.5547 -0.6954 -0.2634
  191POPC  H16X22116   0.868   6.771   7.965  0.0185 -0.3883  1.7667
  191POPC  H16Y22117   1.023   6.726   8.012 -0.2996  1.8919 -1.6681
  191POPC  H16Z22118   0.887   6.635   8.087  2.6521 -1.3972  0.3124
  192POPC     N22119   5.880   2.297   6.388  0.1030 -0.5505 -0.1264
  192POPC   C1222120   6.024   2.245   6.377  0.0198 -0.5242  0.0062
  192POPC  H12A22121   6.073   2.285   6.464 -4.1337  0.4591  2.1752
  192POPC  H12B22122   6.069   2.290   6.289 -2.0152  4.2068  1.0560
  192POPC   C1322123   5.884   2.445   6.417 -0.1974 -0.4595 -0.7207
  192POPC  H13A22124   5.937   2.504   6.343  1.4410  1.4343  1.7911
  192POPC  H13B22125   5.789   2.494   6.424 -1.7042 -2.9765 -2.1134
  192POPC  H13C22126   5.943   2.453   6.507 -0.9089  0.8356 -0.3549
  192POPC   C1422127   5.794   2.265   6.266  0.2170 -0.4555 -0.0903
  192POPC  H14A22128   5.846   2.291   6.175  2.0861 -2.0514  0.4469
  192POPC  H14B22129   5.774   2.159   6.258 -0.2109 -0.2986 -1.3368
  192POPC  H14C22130   5.701   2.317   6.281  0.3129 -0.6295  1.2701
  192POPC   C1522131   5.797   2.228   6.493 -0.7960 -0.0365 -0.4459
  192POPC  H15A22132   5.756   2.132   6.464 -0.1183 -0.7557  0.9124
  192POPC  H15B22133   5.708   2.286   6.510 -0.5701  0.2603 -0.2786
  192POPC  H15C22134   5.856   2.213   6.582  0.1960  0.6081 -0.9830
  192POPC   C1122135   6.040   2.090   6.368  0.3964 -0.6107  0.2210
  192POPC  H11A22136   6.037   2.068   6.260  0.0316  1.2869 -0.1902
  192POPC  H11B22137   5.955   2.032   6.410  0.2597 -1.2128 -0.8784
  192POPC     P22138   6.299   2.088   6.421 -0.6039 -0.3031 -0.5192
  192POPC   O1322139   6.329   2.114   6.278 -0.0995 -0.3470 -0.9836
  192POPC   O1422140   6.398   1.996   6.490 -1.0764  0.1378  0.6370
  192POPC   O1222141   6.156   2.044   6.438 -0.0340  0.2891 -0.2201
  192POPC   O1122142   6.314   2.233   6.484  0.2875 -0.2183 -0.1094
  192POPC    C122143   6.432   2.273   6.551  0.3124  0.4101  0.8689
  192POPC    HA22144   6.442   2.382   6.532 -1.4797 -0.0171 -3.9664
  192POPC    HB22145   6.526   2.225   6.515  0.5280  0.0638  1.8503
  192POPC    C222146   6.421   2.252   6.711  1.2741  0.1233  0.5481
  192POPC    HS22147   6.383   2.150   6.731  0.0944  0.5308  0.4810
  192POPC   O2122148   6.336   2.356   6.763  0.7091 -0.5142  0.4877
  192POPC   C2122149   6.205   2.332   6.740  0.0328  0.5859 -0.7593
  192POPC   O2222150   6.152   2.222   6.721 -0.1468 -0.5215 -0.6498
  192POPC   C2222151   6.135   2.468   6.772  0.2521 -0.2760 -1.3305
  192POPC   H2R22152   6.074   2.495   6.683  1.2950  0.2282 -1.9089
  192POPC   H2S22153   6.209   2.551   6.780  1.0437 -0.7519 -3.2764
  192POPC    C322154   6.559   2.275   6.780  0.4237  0.2894  0.2512
  192POPC    HX22155   6.626   2.327   6.708 -0.2971  0.1369 -0.5363
  192POPC    HY22156   6.618   2.181   6.792  2.6384  1.4785 -0.7465
  192POPC   O3122157   6.563   2.346   6.905 -0.1923 -0.0338 -0.2603
  192POPC   C3122158   6.562   2.481   6.897 -0.1308  0.4534 -0.2754
  192POPC   O3222159   6.577   2.537   6.791  0.6550  0.4321 -0.1150
  192POPC   C3222160   6.517   2.540   7.035  0.5628 -0.1774 -0.1189
  192POPC   H2X22161   6.415   2.578   7.014  0.3180 -0.4240  0.6096
  192POPC   H2Y22162   6.586   2.622   7.064 -0.2009 -0.4899  2.9382
  192POPC   C2322163   6.048   2.457   6.897 -0.8553  0.3337 -0.2535
  192POPC   H3R22164   5.985   2.366   6.884  1.1610 -1.0435 -1.0936
  192POPC   H3S22165   5.991   2.551   6.911  1.6982  1.8717  0.5948
  192POPC   C2422166   6.126   2.445   7.030  0.4374 -0.1690 -0.7991
  192POPC   H4R22167   6.185   2.536   7.051  0.0011  0.0006 -0.3056
  192POPC   H4S22168   6.187   2.352   7.020 -0.2990 -1.0906  2.2493
  192POPC   C2522169   6.032   2.438   7.155 -0.1968  0.8943 -0.5062
  192POPC   H5R22170   5.967   2.348   7.153 -0.4336  1.0463  0.0224
  192POPC   H5S22171   5.959   2.521   7.155  2.8417  3.7751 -0.6024
  192POPC   C2622172   6.103   2.436   7.297 -0.2592 -0.5958  0.1452
  192POPC   H6R22173   6.163   2.530   7.304  2.4011 -2.2795  1.3585
  192POPC   H6S22174   6.170   2.348   7.296 -0.9669 -1.1345 -1.1199
  192POPC   C2722175   6.002   2.427   7.412  0.3045  0.4116 -0.0601
  192POPC   H7R22176   5.918   2.360   7.384 -0.5560 -0.1196  3.3633
  192POPC   H7S22177   5.966   2.526   7.447 -1.8190 -0.4553  0.3517
  192POPC   C2822178   6.061   2.356   7.533 -0.4790 -0.0054 -0.0023
  192POPC   H8R22179   6.157   2.413   7.535  0.6074 -1.7477 -0.4511
  192POPC   H8S22180   6.070   2.247   7.515 -2.6835 -0.2577  0.1402
  192POPC   C2922181   5.971   2.361   7.657 -0.9739 -0.7616 -0.0327
  192POPC   H9122182   5.862   2.355   7.650 -1.0048  0.5361 -1.2362
  192POPC  C21022183   6.023   2.356   7.787  0.5867 -0.1163 -0.3370
  192POPC  H10122184   5.951   2.341   7.869  0.5332  0.9612 -0.1612
  192POPC  C21122185   6.171   2.375   7.828 -0.1845 -0.1432 -0.3166
  192POPC  H11R22186   6.171   2.462   7.897 -0.1935  0.8159 -1.4714
  192POPC  H11S22187   6.230   2.391   7.734  0.8167 -0.1368  0.2982
  192POPC  C21222188   6.223   2.252   7.898 -0.4533 -0.0390 -0.4721
  192POPC  H12R22189   6.328   2.285   7.913  0.4449 -1.2897 -3.3393
  192POPC  H12S22190   6.240   2.159   7.839  1.7368 -0.5309  0.8079
  192POPC  C21322191   6.156   2.214   8.030 -0.5731  0.2660  0.1214
  192POPC  H13R22192   6.190   2.113   8.062 -1.8978 -0.3664 -0.3662
  192POPC  H13S22193   6.045   2.206   8.020 -0.5894  0.1649  0.3633
  192POPC  C21422194   6.168   2.314   8.145  0.2166  0.6681 -0.3375
  192POPC  H14R22195   6.147   2.421   8.120 -2.2286  0.7455  1.6288
  192POPC  H14S22196   6.270   2.303   8.186 -0.0889 -2.0435 -0.1327
  192POPC  C21522197   6.089   2.274   8.266  0.1206 -0.3703  0.2401
  192POPC  H15R22198   6.131   2.175   8.291  3.3860  0.9844  0.6638
  192POPC  H15S22199   5.979   2.277   8.252  0.0983 -0.7061  0.3508
  192POPC  C21622200   6.115   2.358   8.390 -0.2544 -0.1682 -0.0046
  192POPC  H16R22201   6.090   2.464   8.368  2.3293  0.2874 -1.1293
  192POPC  H16S22202   6.224   2.346   8.406 -0.2704 -0.9525 -0.4691
  192POPC  C21722203   6.042   2.311   8.516 -0.0888 -0.9736 -0.1864
  192POPC  H17R22204   6.066   2.205   8.540 -0.5905 -1.6187 -2.3377
  192POPC  H17S22205   5.932   2.301   8.503 -0.4626 -1.9035  2.8648
  192POPC  C21822206   6.073   2.389   8.642  0.0622 -0.4665 -0.2072
  192POPC  H18R22207   6.015   2.347   8.727 -0.1951  0.4996  0.1084
  192POPC  H18S22208   6.047   2.498   8.642  0.8992 -0.2627 -0.5327
  192POPC  H18T22209   6.181   2.385   8.668  0.0994  0.3533 -0.1875
  192POPC   C3322210   6.528   2.444   7.158  0.8076  0.2326 -0.1330
  192POPC   H3X22211   6.619   2.381   7.159 -0.7931 -2.2337 -0.7421
  192POPC   H3Y22212   6.446   2.370   7.151 -0.9192  1.9458  1.0305
  192POPC   C3422213   6.517   2.521   7.288  0.4956 -0.1685  0.5015
  192POPC   H4X22214   6.414   2.561   7.292 -0.8423 -3.2998  0.2147
  192POPC   H4Y22215   6.593   2.601   7.294 -2.4521  2.8311  0.6767
  192POPC   C3522216   6.527   2.428   7.409 -0.0178  0.5656 -0.1297
  192POPC   H5X22217   6.632   2.393   7.414 -0.7159 -1.5322  1.1298
  192POPC   H5Y22218   6.468   2.334   7.398  1.4439 -0.3188 -0.7718
  192POPC   C3622219   6.479   2.495   7.538 -0.0929  0.0463 -0.4738
  192POPC   H6X22220   6.371   2.520   7.537 -0.4882 -1.3912  1.1625
  192POPC   H6Y22221   6.542   2.586   7.551  0.6410 -0.6173  0.7761
  192POPC   C3722222   6.508   2.405   7.665  1.1222 -0.1711  0.2370
  192POPC   H7X22223   6.605   2.355   7.645  2.0882  1.4469  0.7522
  192POPC   H7Y22224   6.427   2.328   7.664  0.2945  0.5811  2.5264
  192POPC   C3822225   6.517   2.485   7.795 -0.2104  0.5706 -0.2069
  192POPC   H8X22226   6.427   2.476   7.859 -0.3644  1.9122 -0.1924
  192POPC   H8Y22227   6.544   2.592   7.780  0.3157  0.4098 -0.4500
  192POPC   C3922228   6.637   2.440   7.882 -0.7763 -0.2544 -0.5482
  192POPC   H9X22229   6.645   2.524   7.954 -0.5646  1.8549 -2.9214
  192POPC   H9Y22230   6.724   2.448   7.814 -0.1529  1.0193  0.3631
  192POPC  C31022231   6.631   2.296   7.939  0.0504  0.2411 -1.0079
  192POPC  H10X22232   6.616   2.216   7.863  3.8758 -1.3368 -0.3094
  192POPC  H10Y22233   6.547   2.292   8.011  0.3483 -0.0823 -0.6785
  192POPC  C31122234   6.762   2.262   8.020  0.8015 -0.0958  0.1741
  192POPC  H11X22235   6.768   2.339   8.100  1.9898  1.4924 -1.3577
  192POPC  H11Y22236   6.849   2.265   7.952 -0.9512 -1.2685 -2.2555
  192POPC  C31222237   6.749   2.129   8.086 -0.5203  0.1960 -0.3503
  192POPC  H12X22238   6.720   2.058   8.006  0.4480 -0.7813  0.1410
  192POPC  H12Y22239   6.668   2.127   8.161  0.3487 -0.1433  0.5978
  192POPC  C31322240   6.878   2.095   8.166  0.0755 -0.0168 -0.0423
  192POPC  H13X22241   6.910   2.185   8.221 -0.7105  0.5119 -0.4299
  192POPC  H13Y22242   6.957   2.074   8.090  0.9486  0.6257  0.6769
  192POPC  C31422243   6.866   1.971   8.249 -0.4545 -0.1705 -0.4403
  192POPC  H14X22244   6.814   1.893   8.189  0.9049 -1.1571 -0.3694
  192POPC  H14Y22245   6.809   2.000   8.340 -1.3454  0.3342 -1.1445
  192POPC  C31522246   6.997   1.927   8.304  0.7666  0.2643 -0.6516
  192POPC  H15X22247   7.042   2.016   8.352 -2.3204  0.6035  1.9506
  192POPC  H15Y22248   7.061   1.889   8.221  1.8728 -0.4481  0.4807
  192POPC  C31622249   6.982   1.819   8.406 -0.5717 -0.2187 -0.2445
  192POPC  H16X22250   6.915   1.855   8.487 -1.7945  0.2463 -1.4246
  192POPC  H16Y22251   7.082   1.779   8.434  1.1136  1.7498 -2.9915
  192POPC  H16Z22252   6.930   1.730   8.367  1.3484 -0.8885 -1.3956
  193SOD    SOD22253   1.317   1.205  12.577 -0.4189  0.2596  0.2620
  194SOD    SOD22254   2.719   4.485   6.450  0.3464 -0.2584 -0.1155
  195SOD    SOD22255   6.750   3.980  15.298  0.3897  0.0890 -0.2808
  196SOD    SOD22256   5.406   1.325  17.113  0.7398  0.0438 -0.2281
  197SOD    SOD22257   3.788   0.256  13.693  0.0331  0.1090 -0.5106
  198SOD    SOD22258   0.890   0.005  10.394  0.0766  0.0575 -0.4305
  199SOD    SOD22259   0.921   2.674   5.599 -0.1332  0.2245 -0.3310
  200SOD    SOD22260   3.311   3.961  15.295 -0.0228 -0.0994  0.3874
  201SOD    SOD22261   4.429   2.102  12.377 -0.0606 -0.6612  0.1970
  202SOD    SOD22262   1.735   1.041   5.784  0.0428 -0.1392  0.3983
  203SOD    SOD22263   1.964   0.345  14.045  0.1047 -0.1006  0.3620
  204SOD    SOD22264   2.663   1.510  11.283 -0.3441 -0.2641 -0.3173
  205SOD    SOD22265   4.635   5.647   5.161  0.1050 -0.2686  0.3640
  206SOD    SOD22266   4.292   2.570  12.776 -0.0695 -0.6021  0.0033
  207SOD    SOD22267   2.831   2.457   3.684  0.0295  0.2158  0.1860
  208SOD    SOD22268   6.675   2.344   1.899  0.1993 -0.1387 -0.0828
  209SOD    SOD22269   1.825   0.579  16.872  0.1097 -0.3456 -0.3381
  210SOD    SOD22270   1.934   0.531  10.915 -0.4435  0.2747  0.4134
  211SOD    SOD22271   0.895   1.690  10.723 -0.8037 -0.1103 -0.1413
  212SOD    SOD22272   6.417   0.860   5.572  0.4481  0.0069 -0.0278
  213SOD    SOD22273   2.970   0.210  14.120 -0.7987  0.2043 -0.2884
  214SOD    SOD22274   4.665   1.719  11.094 -0.2400 -0.3356 -0.4950
  215SOD    SOD22275   1.015   3.656  10.901 -0.2534 -0.4419 -0.0888
  216SOD    SOD22276   5.345   0.450   6.456 -0.7968 -0.2349 -0.1417
  217SOD    SOD22277   3.065   3.912   2.862  0.0794 -0.2967 -0.2793
  218SOD    SOD22278   1.240   5.022   2.432  0.3134 -0.4019 -0.2470
  219SOD    SOD22279   1.592   3.021   5.817  0.0869 -0.0540  0.4208
  220SOD    SOD22280   2.018   6.578   4.733  0.2868 -0.2899 -0.0624
  221SOD    SOD22281   6.415   1.310  12.693  0.4329  0.0577 -0.2993
  222SOD    SOD22282   2.222   2.967   0.630 -0.0209 -0.2525 -0.1541
  223SOD    SOD22283   2.847   5.199   3.537 -0.7575 -0.6044 -0.7211
  224SOD    SOD22284   2.302   5.251  13.713  0.0390  0.1486 -0.1803
  225SOD    SOD22285   3.304   4.781   5.916 -0.8810  0.3947 -0.0680
  226SOD    SOD22286   1.321   6.083  12.709  0.0747  0.3493 -0.2131
  227SOD    SOD22287   4.523   2.814  11.819  0.8055 -0.3749  0.0002
  228SOD    SOD22288   3.738   3.891   2.235 -0.4022  0.1764  0.0384
  229SOD    SOD22289   1.919   1.057  12.085 -0.5450  0.0071  0.1434
  230SOD    SOD22290   6.411   2.551  17.066  0.1570 -0.0112  0.4568
  231SOD    SOD22291   5.651   6.243   2.591  0.3693 -0.3386  0.2793
  232SOD    SOD22292   3.546   3.616  11.292 -0.0222  0.1633  0.0040
  233SOD    SOD22293   6.344   2.388   1.000  0.0649 -0.1869 -0.2440
  234SOD    SOD22294   5.988   3.662  12.387 -0.0435  0.4823 -0.5052
  235SOD    SOD22295   5.212   3.184  10.692 -0.6141  0.0212 -0.2111
  236SOD    SOD22296   3.700   4.059   0.217 -0.1223 -0.0197  0.4955
  237SOD    SOD22297   3.744   3.973   5.579  0.2983  0.2864  0.0503
  238SOD    SOD22298   6.438   5.526   5.699 -0.3287 -0.1360 -0.2289
  239SOD    SOD22299   1.293   0.369  11.449 -0.0430  0.0349 -0.0490
  240SOD    SOD22300   6.297   5.786  13.599  0.1690  0.0964  0.4344
  241SOD    SOD22301   6.387   5.671  16.478 -0.0231  0.3788 -0.3110
  242SOD    SOD22302   6.230   1.830   6.533  0.5587  0.4008  0.5884
  243SOD    SOD22303   0.833   4.388  13.260 -0.4381 -0.0425  0.2682
  244SOD    SOD22304   6.693   2.215  13.067 -0.4402  0.3266  0.1705
  245SOD    SOD22305   4.294   5.541   0.973  0.4969 -0.0637 -0.0165
  246SOD    SOD22306   4.969   4.033   0.803  0.0788 -0.1283 -0.0587
  247SOD    SOD22307   6.589   0.423  10.389  0.1477  0.2742 -0.3206
  248SOD    SOD22308   1.024   0.824  16.413 -0.2309 -0.3575 -0.4391
  249SOD    SOD22309   5.903   0.479  14.392 -0.4991 -0.0704  0.3876
  250SOD    SOD22310   2.739   1.723   6.115 -0.0991 -0.1536 -0.1128
  251SOD    SOD22311   4.537   6.095  16.015  0.2048 -0.2209 -0.1785
  252SOD    SOD22312   6.110   6.234  12.424  0.0599  0.1912  0.0520
  253SOD    SOD22313   5.261   6.070  12.117 -0.1222 -0.0628  0.2695
  254SOD    SOD22314   3.789   2.308   4.826  0.6609 -0.3363 -0.1402
  255SOD    SOD22315   1.018   6.449   3.535  0.0519  0.2735 -0.0675
  256SOD    SOD22316   0.054   5.050   3.983 -0.3192  0.2208  0.3283
  257SOD    SOD22317   5.003   5.203  15.740 -0.6023 -0.1530 -0.2886
  258SOD    SOD22318   1.282   3.382   0.381 -0.6406 -0.1923 -0.3671
  259SOD    SOD22319   0.625   4.972   0.639  0.0943 -0.1693 -0.1589
  260SOD    SOD22320   3.681   4.556   0.745 -0.5823 -0.1322  0.2974
  261SOD    SOD22321   5.608   2.887  12.792 -0.2790  0.4760 -0.2149
  262SOD    SOD22322   3.638   0.450   3.125  0.1436 -0.5901  0.2718
  263SOD    SOD22323   1.193   4.102  12.125 -0.1122 -0.0362 -0.0625
  264SOD    SOD22324   0.649   4.033   1.047  0.1905 -0.1707 -0.0613
  265SOD    SOD22325   2.781   1.746  15.895 -0.0330  0.1432  0.3077
  266SOD    SOD22326   4.437   2.032   2.695  0.3966 -0.0206 -0.1108
  267SOD    SOD22327   6.681   6.275  12.372  0.2811 -0.1091 -1.1157
  268SOD    SOD22328   2.286   5.943  15.929 -0.2863 -0.0075 -0.0493
  269SOD    SOD22329   6.741   2.440  10.639  0.1933  0.3802  0.2236
  270CLA    CLA22330   3.959   3.118   1.314  0.0121  0.0441 -0.2442
  271CLA    CLA22331   5.756   6.160   1.835  0.1417  0.1109  0.0793
  272CLA    CLA22332   4.982   6.211  16.092  0.3533 -0.1653  0.1586
  273CLA    CLA22333   4.802   2.769   4.194 -0.0013 -0.4410 -0.1647
  274CLA    CLA22334   2.853   4.437   4.172  0.1915  0.4977  0.2082
  275CLA    CLA22335   4.278   1.074  13.465  0.0351  0.5040  0.0924
  276CLA    CLA22336   3.189   2.560   4.734 -0.2569 -0.1652 -0.2212
  277CLA    CLA22337   1.435   0.437   0.684 -0.7696  0.2349 -0.0931
  278CLA    CLA22338   6.404   2.807   2.995  0.1102  0.0795  0.0938
  279CLA    CLA22339   2.880   1.833   0.070  0.0447 -0.1065 -0.3671
  280CLA    CLA22340   1.213   5.895  11.560 -0.3725  0.1812  0.1012
  281CLA    CLA22341   4.466   2.816  12.083  0.0055 -0.0681  0.2244
  282CLA    CLA22342   3.288   0.297  14.511  0.0430  0.0368 -0.0214
  283CLA    CLA22343   2.581   1.394  14.490  0.1394 -0.4825 -0.1725
  284CLA    CLA22344   5.221   3.146   3.263  0.1588  0.2038  0.0607
  285CLA    CLA22345   0.142   6.148  14.637  0.2991  0.6093  0.0307
  286CLA    CLA22346   0.120   4.549   0.233 -0.1242  0.5269  0.4399
  287CLA    CLA22347   2.736   3.069  11.898  0.0609 -0.1327  0.4007
  288CLA    CLA22348   0.494   6.211  12.873  0.1072 -0.3620 -0.1835
  289CLA    CLA22349   1.001   4.443   1.927 -0.0662 -0.2433  0.1794
  290CLA    CLA22350   6.208   5.243  13.627 -0.2799  0.3336 -0.2763
  291CLA    CLA22351   6.643   0.650  14.677  0.0728  0.1375  0.1923
  292CLA    CLA22352   0.619   5.157  17.163 -0.1760  0.4546  0.0650
  293CLA    CLA22353   1.204   3.971   0.202  0.0389  0.0894 -0.1628
  294CLA    CLA22354   5.360   0.216  14.330  0.0653 -0.0230 -0.2033
  295CLA    CLA22355   2.246   1.712  12.500 -0.3424 -0.1508  0.1555
  296CLA    CLA22356   2.807   0.544  16.541 -0.0576  0.3209 -0.2152
  297CLA    CLA22357   3.457   6.672  11.518  0.3498 -0.2020  0.1604
  298CLA    CLA22358   1.571   2.015   3.364  0.2419 -0.1781  0.4731
  299CLA    CLA22359   1.226   5.176   3.137  0.3156 -0.1576 -0.2984
  300CLA    CLA22360   5.613   2.602   1.781 -0.1926 -0.1029 -0.0744
  301CLA    CLA22361   4.759   2.706   4.895 -0.3954 -0.2537 -0.0419
  302CLA    CLA22362   0.415   4.059   3.422 -0.5501  0.0723  0.2302
  303CLA    CLA22363   6.510   0.835  12.076 -0.3062 -0.1397  0.2773
  304CLA    CLA22364   5.448   5.910  12.236  0.2815  0.1933  0.0237
  305CLA    CLA22365   2.482   0.675  15.913 -0.2868  0.0094  0.2754
  306CLA    CLA22366   1.983   2.147   1.973 -0.0415 -0.0464  0.0507
  307CLA    CLA22367   0.839   0.472  12.449 -0.3352 -0.4904  0.1779
  308CLA    CLA22368   1.525   1.384  11.718 -0.1258  0.0482  0.1492
  309CLA    CLA22369   5.938   0.473   5.241  0.0423  0.0293 -0.0346
  310CLA    CLA22370   0.682   4.292  13.685  0.3115 -0.6629  0.0618
  311CLA    CLA22371   2.072   0.520  11.445 -0.0975 -0.3863 -0.0855
  312CLA    CLA22372   1.891   1.559  15.405  0.0093  0.0197 -0.0050
  313CLA    CLA22373   5.118   2.451   0.352  0.3654 -0.4645 -0.0265
  314CLA    CLA22374   2.698   3.672  13.733  0.0023  0.6327 -0.0426
  315CLA    CLA22375   5.463   4.856  16.857  0.0202 -0.0054  0.2996
  316CLA    CLA22376   3.051   2.811  12.118 -0.0998  0.0082 -0.3435
  317CLA    CLA22377   1.488   5.673  12.503  0.5716 -0.0044  0.0722
  318CLA    CLA22378   1.764   3.615  17.164  0.1589 -0.0716  0.1901
  319CLA    CLA22379   4.746   6.512  11.329 -0.1343 -0.1445 -0.1167
  320CLA    CLA22380   5.720   2.299   1.390 -0.2235  0.2907 -0.2319
  321CLA    CLA22381   4.764   5.336   2.911  0.1597  0.1691 -0.2335
  322CLA    CLA22382   3.519   6.282  17.241 -0.2051  0.3578 -0.1750
  323TIP3   OH222383   1.213   2.601  17.370 -0.4948 -0.7015 -0.0509
  323TIP3    H122384   1.245   2.595  17.460 -1.2910 -1.3984  0.1980
  323TIP3    H222385   1.282   2.561  17.317 -0.0148 -0.2729  0.2460
  324TIP3   OH222386   5.864   4.711  11.183 -0.0033 -0.2590  0.0725
  324TIP3    H122387   5.934   4.646  11.175  1.0632  1.0431 -1.9311
  324TIP3    H222388   5.816   4.705  11.100 -1.8531 -0.5872  1.1064
  325TIP3   OH222389   3.043   4.770   0.859  0.1764  0.1234  0.2247
  325TIP3    H122390   2.989   4.846   0.839 -2.1510 -1.6212 -0.6373
  325TIP3    H222391   2.984   4.709   0.902  1.5780 -1.7213 -0.3145
  326TIP3   OH222392   1.476   5.756  14.245 -0.6094 -0.2507  0.3410
  326TIP3    H122393   1.483   5.767  14.150 -0.7929 -0.7497  0.2671
  326TIP3    H222394   1.488   5.844  14.280 -1.3764  0.0837 -0.1958
  327TIP3   OH222395   0.381   1.250   5.101  0.5309 -0.0161 -0.3016
  327TIP3    H122396   0.333   1.172   5.128  0.7470  0.3046  1.1074
  327TIP3    H222397   0.329   1.286   5.029  0.8243 -1.8251 -1.4932
  328TIP3   OH222398   2.435   2.536   3.581  0.1862 -0.6489  0.3712
  328TIP3    H122399   2.406   2.459   3.532  0.3763 -0.3057 -0.2934
  328TIP3    H222400   2.528   2.521   3.599 -0.1062 -1.2252  1.5066
  329TIP3   OH222401   2.631   3.538  11.591  0.4197 -0.5610  0.1856
  329TIP3    H122402   2.610   3.605  11.526  2.1422  0.3872  0.5231
  329TIP3    H222403   2.719   3.508  11.566  1.0280 -0.3300  1.9192
  330TIP3   OH222404   3.965   5.583   4.529 -0.4955  0.3066  0.8131
  330TIP3    H122405   4.049   5.555   4.492 -0.2125  1.5557  0.4644
  330TIP3    H222406   3.950   5.670   4.491 -1.7781  0.2499  1.1474
  331TIP3   OH222407   5.717   3.861  16.106  0.4068  0.1945  0.5032
  331TIP3    H122408   5.690   3.779  16.147  1.2627 -0.7098 -0.6320
  331TIP3    H222409   5.669   3.863  16.023  2.0598 -0.3520 -0.5283
  332TIP3   OH222410   1.767   2.993   5.216  0.4562 -0.4159  0.0377
  332TIP3    H122411   1.690   2.959   5.169  1.8573 -1.5387 -1.5799
  332TIP3    H222412   1.732   3.026   5.298 -1.6648 -1.5414 -0.3299
  333TIP3   OH222413   6.459   1.478   2.057  0.6104  0.4333  0.6462
  333TIP3    H122414   6.547   1.514   2.041  1.1736 -1.4963 -1.0038
  333TIP3    H222415   6.400   1.544   2.022  1.6291 -0.2790 -2.7816
  334TIP3   OH222416   2.217   3.758   0.101 -0.1595 -0.6351  0.2655
  334TIP3    H122417   2.233   3.733   0.192  0.5787 -2.2355 -0.2813
  334TIP3    H222418   2.186   3.678   0.059 -1.1865  0.2605 -0.7451
  335TIP3   OH222419   2.418   6.394  13.243 -0.0622  0.4551  0.3280
  335TIP3    H122420   2.355   6.340  13.291  1.7135 -1.7724  0.3702
  335TIP3    H222421   2.399   6.377  13.151  0.6073 -0.4910  0.3407
  336TIP3   OH222422   4.321   0.310   2.286 -0.2277  0.3111  0.2818
  336TIP3    H122423   4.305   0.396   2.246  1.9711  1.4625  1.6517
  336TIP3    H222424   4.266   0.311   2.365  0.1143  0.6529  0.5195
  337TIP3   OH222425   5.506   5.735  11.924  0.5261 -0.1772 -0.5618
  337TIP3    H122426   5.496   5.764  11.833 -1.6763 -2.1114 -1.0449
  337TIP3    H222427   5.542   5.811  11.970  1.4330  0.9578 -2.9733
  338TIP3   OH222428   1.105   5.213  16.563  0.0783 -0.3411 -0.4208
  338TIP3    H122429   1.148   5.161  16.631  1.1298 -0.4080 -1.1131
  338TIP3    H222430   1.165   5.285  16.546 -1.2900  1.0510  0.4116
  339TIP3   OH222431   2.180   2.479   4.525  0.1522  0.3637 -0.0739
  339TIP3    H122432   2.201   2.402   4.579  2.0034  1.2038  0.4674
  339TIP3    H222433   2.261   2.499   4.479 -1.0811  0.3378 -2.4097
  340TIP3   OH222434   4.992   1.635   1.829  0.3223 -0.0604 -0.1797
  340TIP3    H122435   4.901   1.639   1.858  0.3177 -1.7077  0.1352
  340TIP3    H222436   5.025   1.724   1.841 -1.0487  0.4021  0.3467
  341TIP3   OH222437   2.389   2.932  12.316 -0.3037 -0.4058 -0.2883
  341TIP3    H122438   2.374   2.865  12.384  0.4675 -0.6407 -0.3399
  341TIP3    H222439   2.470   2.975  12.344 -0.1154 -0.3436 -0.9312
  342TIP3   OH222440   0.887   1.542  17.087 -0.0538 -0.1862  0.3866
  342TIP3    H122441   0.981   1.545  17.104  0.0019 -0.5187  0.1364
  342TIP3    H222442   0.848   1.589  17.161  0.1536 -2.0146  1.7243
  343TIP3   OH222443   6.061   4.690  13.577  0.5379  0.0073  0.8154
  343TIP3    H122444   6.074   4.766  13.520  1.4283 -0.8130 -0.1275
  343TIP3    H222445   6.138   4.688  13.633 -0.6676  1.2274  2.6275
  344TIP3   OH222446   2.039   4.057  13.296 -0.0620 -0.6613  0.6309
  344TIP3    H122447   1.990   3.978  13.276  0.3791 -0.7381 -0.2073
  344TIP3    H222448   2.056   4.097  13.210  0.0367  0.1420  1.0187
  345TIP3   OH222449   0.901   6.696  13.903 -0.1564 -0.1827 -0.6390
  345TIP3    H122450   0.897   6.649  13.819 -3.7072  2.0645 -1.9691
  345TIP3    H222451   0.957   6.771  13.885 -1.6575  0.8065 -1.4106
  346TIP3   OH222452   5.411   4.443   4.358 -0.0829  0.5094 -0.4838
  346TIP3    H122453   5.365   4.419   4.438  1.7654  0.8270  0.7234
  346TIP3    H222454   5.358   4.513   4.319  0.1410  1.9934  1.7020
  347TIP3   OH222455   2.856   1.928  16.270 -0.0130 -0.2322  0.1010
  347TIP3    H122456   2.870   2.023  16.269  0.6597 -0.3215 -1.0572
  347TIP3    H222457   2.819   1.909  16.184  0.7142 -1.1295 -0.0275
  348TIP3   OH222458   4.701   4.958  11.835  0.0723 -0.6320  0.0721
  348TIP3    H122459   4.771   5.012  11.798 -0.8191  1.1713  0.9132
  348TIP3    H222460   4.708   4.970  11.930 -2.3752  1.0077  0.1420
  349TIP3   OH222461   5.635   2.827  16.911  0.4464 -0.1027  0.5616
  349TIP3    H122462   5.574   2.767  16.954 -0.9467 -0.5617 -1.8214
  349TIP3    H222463   5.615   2.913  16.948  0.5824 -0.7017  2.0826
  350TIP3   OH222464   2.462   2.981  11.157  0.2526  0.1312  0.3552
  350TIP3    H122465   2.499   2.916  11.217 -0.1091 -0.9969 -0.6144
  350TIP3    H222466   2.401   3.031  11.210  0.9032  0.0094  1.2393
  351TIP3   OH222467   0.533   4.222   0.091 -0.6526 -0.0089 -0.3626
  351TIP3    H122468   0.552   4.289   0.157 -0.1434 -0.7810  0.2975
  351TIP3    H222469   0.610   4.165   0.092 -2.1007 -2.1164  0.9993
  352TIP3   OH222470   6.054   3.333   0.887 -0.1737  0.1499  0.1131
  352TIP3    H122471   5.986   3.269   0.907  0.2367 -0.4007 -0.2201
  352TIP3    H222472   6.120   3.283   0.838 -0.5271  1.1628 -1.4384
  353TIP3   OH222473   5.542   0.991  10.582  0.2123 -0.3633 -0.0633
  353TIP3    H122474   5.549   0.925  10.651 -1.0703 -0.1082  0.3276
  353TIP3    H222475   5.523   1.072  10.628  0.0539 -0.0541 -0.6673
  354TIP3   OH222476   3.060   6.390   3.018  0.0555 -0.1261 -0.6712
  354TIP3    H122477   3.142   6.392   3.068 -0.9763 -1.2369  1.1913
  354TIP3    H222478   3.068   6.313   2.962  0.5277  0.1064 -0.9241
  355TIP3   OH222479   5.533   6.248  10.199  0.0501  0.6360 -0.0399
  355TIP3    H122480   5.606   6.307  10.180 -0.2256  0.9742 -0.0543
  355TIP3    H222481   5.528   6.191  10.123  1.5689 -0.6971  0.8189
  356TIP3   OH222482   0.515   4.453  17.337  0.0490 -0.1932  0.2848
  356TIP3    H122483   0.529   4.362  17.364 -1.1552 -0.7818 -0.9768
  356TIP3    H222484   0.498   4.448  17.243  0.2111  1.3822  0.1465
  357TIP3   OH222485   6.105   1.090   4.913 -0.2829  0.2233  0.2368
  357TIP3    H122486   6.044   1.026   4.876  0.3423  0.6514 -1.6661
  357TIP3    H222487   6.167   1.038   4.964 -1.8678 -0.2707  1.7728
  358TIP3   OH222488   2.048   3.330  15.247  0.1703  0.2188 -0.2563
  358TIP3    H122489   1.997   3.356  15.170  0.6866  0.1099 -0.6437
  358TIP3    H222490   2.135   3.367  15.231  0.9235 -1.6449 -0.8143
  359TIP3   OH222491   2.525   6.295   0.019 -0.4138 -0.1902 -0.7330
  359TIP3    H122492   2.462   6.335  -0.041 -0.5340 -0.2392 -0.6411
  359TIP3    H222493   2.603   6.349   0.012 -0.5754  0.0567 -0.6089
  360TIP3   OH222494   0.485   3.124  11.647 -0.1496  0.4257  0.2615
  360TIP3    H122495   0.414   3.183  11.622 -1.3136 -0.5422  1.1889
  360TIP3    H222496   0.490   3.131  11.742  1.3408  0.8258  0.1763
  361TIP3   OH222497   6.104   1.070   2.923  0.0478  0.5322  0.4962
  361TIP3    H122498   6.071   0.980   2.918 -1.7641  1.2281 -1.3185
  361TIP3    H222499   6.199   1.060   2.931 -0.1720 -1.5177  1.2870
  362TIP3   OH222500   0.876   1.509  10.552 -0.5794 -0.1511  0.4734
  362TIP3    H122501   0.818   1.449  10.600 -0.7129  0.9002  1.6644
  362TIP3    H222502   0.890   1.466  10.468 -2.0572 -1.0448  0.6524
  363TIP3   OH222503   1.058   3.015   2.361  0.1854  0.5334 -0.2799
  363TIP3    H122504   1.133   2.956   2.353  0.1619  0.1356  2.0109
  363TIP3    H222505   1.091   3.090   2.410 -0.4184  1.3275 -1.0569
  364TIP3   OH222506   6.246   2.341  13.489 -0.5940 -0.0555  0.8120
  364TIP3    H122507   6.216   2.314  13.576 -2.3745 -1.7508 -0.2712
  364TIP3    H222508   6.259   2.436  13.497 -2.2126  0.0743  2.5230
  365TIP3   OH222509   5.156   1.447   3.457  0.0730 -0.2435 -0.3093
  365TIP3    H122510   5.188   1.529   3.495  1.4321 -0.7408 -0.3303
  365TIP3    H222511   5.195   1.445   3.370  0.0615 -0.9303 -0.2989
  366TIP3   OH222512   4.918   0.364   0.465  0.2902 -0.0055  0.4758
  366TIP3    H122513   4.833   0.385   0.425  1.0009 -0.0080 -1.1038
  366TIP3    H222514   4.955   0.297   0.408  1.3268 -0.0698  1.2067
  367TIP3   OH222515   4.095   6.156  13.097  0.6348  0.0969 -0.1533
  367TIP3    H122516   4.056   6.236  13.133 -0.4097 -0.9965  1.2261
  367TIP3    H222517   4.021   6.097  13.085  1.4004 -0.6928 -1.1663
  368TIP3   OH222518   2.113   2.943  16.005 -0.0026 -0.3106  0.0364
  368TIP3    H122519   2.063   2.876  16.050 -1.3877  0.6686  0.0373
  368TIP3    H222520   2.114   2.916  15.914  0.1761 -0.7547  0.1706
  369TIP3   OH222521   3.290   1.915  15.816  0.2142  0.0622  0.3390
  369TIP3    H122522   3.347   1.896  15.741  0.8856  0.6386  0.6969
  369TIP3    H222523   3.302   2.008  15.833  0.8505 -0.2585  1.7992
  370TIP3   OH222524   2.840   3.804   3.358 -0.0307  0.1661  0.4467
  370TIP3    H122525   2.796   3.799   3.444 -1.3179 -0.4089 -0.2096
  370TIP3    H222526   2.803   3.731   3.309  1.5907 -0.2339 -0.2153
  371TIP3   OH222527   0.981   5.293  13.226 -0.0030  0.4525 -0.3460
  371TIP3    H122528   0.954   5.230  13.293 -0.8974 -0.1324 -1.2432
  371TIP3    H222529   1.076   5.296  13.233  0.0319 -0.8001 -0.1186
  372TIP3   OH222530   5.190   4.762   5.705  0.0488 -0.0039 -0.6133
  372TIP3    H122531   5.284   4.774   5.720  0.0921  3.4385 -2.6017
  372TIP3    H222532   5.148   4.820   5.769 -0.7808 -1.3283  0.0946
  373TIP3   OH222533   6.442   5.118   2.736 -0.6065 -0.0321  0.1582
  373TIP3    H122534   6.531   5.114   2.771  0.0804  2.8045 -0.9959
  373TIP3    H222535   6.405   5.198   2.775 -3.3086 -1.9279  1.8521
  374TIP3   OH222536   3.942   4.261  15.649 -0.3886 -0.2357  0.4265
  374TIP3    H122537   3.988   4.284  15.568 -0.1243  1.0275  0.9195
  374TIP3    H222538   4.006   4.211  15.699 -0.4668 -0.7989 -0.0145
  375TIP3   OH222539   4.513   1.393   6.786  0.4664 -0.1747 -0.1600
  375TIP3    H122540   4.545   1.429   6.702 -0.7708  0.3798 -0.4180
  375TIP3    H222541   4.448   1.328   6.760  0.2369 -0.1528  0.3664
  376TIP3   OH222542   4.865   1.300   0.410 -0.3948 -0.1850  0.1101
  376TIP3    H122543   4.946   1.337   0.445  1.0845 -2.6239 -0.5125
  376TIP3    H222544   4.810   1.284   0.487  0.4186 -0.0616  0.7221
  377TIP3   OH222545   2.653   1.616  17.021 -0.4483  0.2741 -0.4479
  377TIP3    H122546   2.617   1.684  16.964  0.1460  0.1756 -0.9510
  377TIP3    H222547   2.748   1.624  17.011 -0.3346 -2.2121 -2.4914
  378TIP3   OH222548   4.298   6.301   6.493 -0.1836 -0.5540 -0.1528
  378TIP3    H122549   4.248   6.224   6.467 -4.2225  1.7711 -0.1335
  378TIP3    H222550   4.314   6.348   6.411  0.4080 -0.3822  0.0506
  379TIP3   OH222551   4.233   2.503   4.292 -0.0422  0.3794 -0.3428
  379TIP3    H122552   4.160   2.537   4.240  0.2283 -0.7850 -1.5246
  379TIP3    H222553   4.219   2.540   4.379 -1.5736  0.8402 -0.7497
  380TIP3   OH222554   1.909   4.444  16.219 -0.1557 -0.5308  0.1255
  380TIP3    H122555   1.830   4.491  16.193  0.1371  0.2200  0.5280
  380TIP3    H222556   1.922   4.469  16.311  0.6825 -0.4349 -0.0111
  381TIP3   OH222557   0.653   1.381   3.285 -0.2324 -0.0455 -0.4656
  381TIP3    H122558   0.563   1.403   3.310 -0.4063  0.2042 -1.2768
  381TIP3    H222559   0.694   1.466   3.268 -0.1851 -0.2155 -1.2240
  382TIP3   OH222560   0.778   4.479   2.765 -0.4461 -0.1381  0.3230
  382TIP3    H122561   0.736   4.448   2.685 -0.0229 -0.7412  0.3321
  382TIP3    H222562   0.846   4.415   2.784  0.5066  0.8234  0.2994
  383TIP3   OH222563   1.625   4.480  16.214  0.1181  0.3466  0.0506
  383TIP3    H122564   1.554   4.453  16.272 -0.8259 -1.1482 -1.6898
  383TIP3    H222565   1.592   4.560  16.173 -0.8063 -0.5772 -1.0755
  384TIP3   OH222566   0.977   2.823  12.374  0.1715  0.1259  0.2431
  384TIP3    H122567   0.919   2.896  12.393  1.1396  0.6470  1.3671
  384TIP3    H222568   0.976   2.769  12.453 -0.0855 -0.7776 -0.3570
  385TIP3   OH222569   3.145   3.985  11.969  0.6817 -0.3776 -0.3347
  385TIP3    H122570   3.082   3.983  11.896  0.2134  1.2948 -0.0366
  385TIP3    H222571   3.166   4.078  11.978  0.0905 -0.4295  2.2013
  386TIP3   OH222572   6.007   2.946  10.696 -0.2316 -0.0855 -0.4810
  386TIP3    H122573   6.035   3.000  10.769 -1.1880  2.3903 -1.8424
  386TIP3    H222574   6.074   2.878  10.688  2.4533  2.3940 -0.2853
  387TIP3   OH222575   4.878   0.039  12.147 -0.3990 -0.7124 -0.1648
  387TIP3    H122576   4.809  -0.027  12.151 -2.1411  0.8505 -2.2311
  387TIP3    H222577   4.853   0.106  12.210  0.6266 -1.3080  0.9169
  388TIP3   OH222578   3.663   1.526   5.536  0.2290  0.0153  0.1949
  388TIP3    H122579   3.656   1.599   5.475  0.0114 -1.0322 -1.0753
  388TIP3    H222580   3.672   1.448   5.481  0.4611 -0.9358  1.5013
  389TIP3   OH222581   2.908   1.070  14.810  0.0861 -0.1648  0.1018
  389TIP3    H122582   2.875   0.980  14.804 -0.3241 -0.0083  0.0162
  389TIP3    H222583   2.884   1.099  14.897  0.2827 -0.1590  0.1552
  390TIP3   OH222584   2.721   0.506  15.739 -0.1338  0.3232  0.6890
  390TIP3    H122585   2.644   0.559  15.760 -0.7706 -0.3716  0.1563
  390TIP3    H222586   2.776   0.564  15.685  0.8110  1.6063  2.8592
  391TIP3   OH222587   4.897   1.395   2.421  0.2021  0.4904  0.5311
  391TIP3    H122588   4.911   1.473   2.367 -0.8525  0.4630  0.1871
  391TIP3    H222589   4.970   1.338   2.400  0.7694  1.2146  0.4781
  392TIP3   OH222590   2.520   0.353   0.609  0.3030  0.3728  0.3579
  392TIP3    H122591   2.602   0.335   0.563  0.3959  2.1860 -0.2703
  392TIP3    H222592   2.452   0.336   0.544  0.0591 -1.7728  1.0680
  393TIP3   OH222593   0.575   2.247  15.941 -0.2870 -0.2117  0.0323
  393TIP3    H122594   0.545   2.274  16.028 -1.5469  0.4857 -0.5932
  393TIP3    H222595   0.552   2.321  15.884 -1.2417 -1.4269 -1.2273
  394TIP3   OH222596   1.850   5.855  11.652 -0.1872  1.0895  0.0518
  394TIP3    H122597   1.904   5.903  11.714  1.7451  1.2639 -1.6692
  394TIP3    H222598   1.819   5.921  11.590  1.2740  0.3877 -1.4809
  395TIP3   OH222599   3.237   1.007  16.884  0.0753  0.8503  0.0721
  395TIP3    H122600   3.332   1.012  16.876  0.1806  0.1904  0.7765
  395TIP3    H222601   3.212   0.926  16.839 -0.0601  0.6364  0.5158
  396TIP3   OH222602   0.104   0.353  10.903  0.0339 -0.0335 -0.5263
  396TIP3    H122603   0.041   0.285  10.879  1.0578 -1.3433  0.3102
  396TIP3    H222604   0.133   0.329  10.991  0.2087  1.6879 -0.0808
  397TIP3   OH222605   6.108   3.303  15.027  0.2109 -0.1135 -0.2616
  397TIP3    H122606   6.159   3.381  15.051  0.6045 -0.4843  0.1345
  397TIP3    H222607   6.024   3.337  14.999  0.1850  0.4320  0.4444
  398TIP3   OH222608   6.765   1.082  11.597  0.2050  0.4349 -0.0277
  398TIP3    H122609   6.752   1.162  11.647 -0.9173 -0.0897  0.5416
  398TIP3    H222610   6.712   1.093  11.518 -1.2623 -0.3834  0.8021
  399TIP3   OH222611   1.678   5.236   2.637 -0.4294 -0.1753  0.2364
  399TIP3    H122612   1.758   5.274   2.601 -0.2883 -0.5294  0.1709
  399TIP3    H222613   1.709   5.160   2.686 -0.9211 -1.7554 -1.7688
  400TIP3   OH222614   4.338   1.660  15.768 -0.1156 -0.0097 -0.9149
  400TIP3    H122615   4.397   1.619  15.705 -0.4017 -0.7089 -0.7450
  400TIP3    H222616   4.310   1.588  15.825 -0.5488  0.4457 -0.5360
  401TIP3   OH222617   4.516   5.570  16.753 -0.2165 -0.2184  0.0882
  401TIP3    H122618   4.447   5.507  16.772  0.0855 -0.5352  0.1414
  401TIP3    H222619   4.559   5.536  16.675 -0.5789  0.3594 -0.3668
  402TIP3   OH222620   4.063   6.288  13.994 -0.4579  0.0418  0.3327
  402TIP3    H122621   4.037   6.261  14.082  1.3034 -0.3393  0.7748
  402TIP3    H222622   4.116   6.367  14.008 -0.7402  0.3783 -0.4435
  403TIP3   OH222623   3.774   5.261  12.018  0.0694 -0.3246 -0.5772
  403TIP3    H122624   3.760   5.168  12.038 -1.3119 -0.0911 -0.3039
  403TIP3    H222625   3.721   5.277  11.940  1.4199 -0.0687 -1.4670
  404TIP3   OH222626   2.900   4.326  14.802 -0.3024 -0.0922  0.3241
  404TIP3    H122627   2.979   4.365  14.763  1.1003  2.1816  4.8158
  404TIP3    H222628   2.828   4.381  14.770  0.5505  0.8003 -0.1292
  405TIP3   OH222629   6.417   1.500  12.047  0.2693 -0.2249 -0.0320
  405TIP3    H122630   6.343   1.547  12.008  1.8795  1.8960 -0.7175
  405TIP3    H222631   6.454   1.449  11.975  1.4566  1.3730 -0.6041
  406TIP3   OH222632   0.947   1.038  12.628 -0.2677 -0.5525  0.2676
  406TIP3    H122633   0.877   1.071  12.684 -0.9919 -2.2973  0.4754
  406TIP3    H222634   1.024   1.090  12.651 -1.7368  2.4064 -0.9505
  407TIP3   OH222635   3.058   1.089   5.804  0.1039 -0.4692  0.0992
  407TIP3    H122636   3.123   1.066   5.870 -1.8432 -1.2725  1.8327
  407TIP3    H222637   3.068   1.023   5.736 -0.3644 -1.9607  1.4267
  408TIP3   OH222638   5.308   0.439   0.654 -0.0975  0.1572 -0.0402
  408TIP3    H122639   5.344   0.362   0.697 -0.2466 -0.0536 -0.2934
  408TIP3    H222640   5.289   0.411   0.564  1.3414  0.9247 -0.6120
  409TIP3   OH222641   0.150   0.894  15.665  0.5344  0.0670  0.1373
  409TIP3    H122642   0.177   0.868  15.576 -1.2562  1.3904 -0.8566
  409TIP3    H222643   0.229   0.881  15.718  2.1800  0.7922 -1.9615
  410TIP3   OH222644   0.288   6.576  14.399  0.1798 -0.1838  0.4295
  410TIP3    H122645   0.368   6.529  14.375  1.0095  0.7113  1.3400
  410TIP3    H222646   0.318   6.647  14.456 -0.7774  2.4602 -2.0860
  411TIP3   OH222647   4.657   3.587  16.974  0.0760  0.1268  0.3934
  411TIP3    H122648   4.750   3.563  16.981 -0.1027 -0.4318  0.8377
  411TIP3    H222649   4.650   3.670  17.022  0.3628  0.2313  0.2617
  412TIP3   OH222650   5.318   3.555  16.062 -0.1223 -0.3816 -0.0737
  412TIP3    H122651   5.273   3.477  16.093  1.3882 -0.6442  1.6510
  412TIP3    H222652   5.390   3.522  16.008  0.6989 -0.2367  0.8980
  413TIP3   OH222653   1.224   0.666  13.539 -0.8823  0.6326  0.1274
  413TIP3    H122654   1.268   0.608  13.476 -0.9180 -0.1035  0.7639
  413TIP3    H222655   1.190   0.738  13.485 -1.3593 -0.2408 -0.7769
  414TIP3   OH222656   3.356   2.179  15.756  0.8097  0.3352  0.0439
  414TIP3    H122657   3.369   2.264  15.715 -1.8020  0.0518 -1.5325
  414TIP3    H222658   3.366   2.116  15.685 -1.5168 -0.3288  0.2404
  415TIP3   OH222659   5.249   4.285  15.744 -0.4573 -0.2546 -0.0284
  415TIP3    H122660   5.260   4.279  15.839  1.6945 -0.0039 -0.2128
  415TIP3    H222661   5.196   4.208  15.721  0.5301 -1.3587  1.1899
  416TIP3   OH222662   4.589   2.248  11.975  0.0934  0.6276 -0.2998
  416TIP3    H122663   4.647   2.197  11.917  1.3347  1.2466  0.3719
  416TIP3    H222664   4.628   2.335  11.979  0.3056  0.4885  1.8219
  417TIP3   OH222665   0.429   5.153   2.147 -0.3331  0.8700  0.2447
  417TIP3    H122666   0.474   5.144   2.231  0.8714  0.0956 -0.4466
  417TIP3    H222667   0.494   5.194   2.090 -1.3409  1.9428 -0.1674
  418TIP3   OH222668   6.003   0.360   0.158  0.0627 -1.1718  0.2117
  418TIP3    H122669   5.917   0.398   0.176  1.0158 -0.1218  3.0959
  418TIP3    H222670   6.065   0.423   0.194  2.0295 -2.3213 -0.9872
  419TIP3   OH222671   6.665   2.052  13.223 -0.1895 -0.1507  0.2265
  419TIP3    H122672   6.703   1.987  13.282 -1.0784 -1.8896 -1.0307
  419TIP3    H222673   6.587   2.084  13.269  0.9131  1.0030  1.3831
  420TIP3   OH222674   4.327   3.154  13.280  0.0126  0.2591  0.2108
  420TIP3    H122675   4.419   3.176  13.269 -0.3977  1.9890 -0.0743
  420TIP3    H222676   4.281   3.210  13.217 -1.1113 -2.0654 -1.2140
  421TIP3   OH222677   4.425   2.384   5.866 -0.3766 -0.6537 -0.0442
  421TIP3    H122678   4.508   2.369   5.910 -0.9641  1.0817  1.7872
  421TIP3    H222679   4.359   2.363   5.931 -1.2705  1.9622  0.0233
  422TIP3   OH222680   3.830   2.223  16.933  0.4652 -0.3544 -0.2133
  422TIP3    H122681   3.923   2.229  16.913  0.3855 -0.3469 -0.5926
  422TIP3    H222682   3.825   2.162  17.006  0.5872 -2.2449 -1.6991
  423TIP3   OH222683   5.415   2.425  13.298 -0.3111 -0.3612  0.1011
  423TIP3    H122684   5.415   2.404  13.392  0.9113 -0.8377  0.0097
  423TIP3    H222685   5.322   2.427  13.275 -0.6101 -1.7140  1.0178
  424TIP3   OH222686   6.466   0.512  12.093  0.0287  0.0136  0.0523
  424TIP3    H122687   6.496   0.601  12.074 -2.5331  0.9049 -0.2203
  424TIP3    H222688   6.444   0.476  12.007 -2.4020  0.5096  0.4068
  425TIP3   OH222689   5.758   4.493  12.857 -0.4452  0.6656 -0.3288
  425TIP3    H122690   5.673   4.495  12.901 -0.4601 -1.6505 -0.1549
  425TIP3    H222691   5.820   4.471  12.927  0.0799  0.7321 -0.7704
  426TIP3   OH222692   4.175   3.583  15.595  0.2687  0.2465  0.1696
  426TIP3    H122693   4.164   3.500  15.547  0.9489  1.0867 -1.5307
  426TIP3    H222694   4.086   3.608  15.619 -0.0222 -0.5740 -0.0089
  427TIP3   OH222695   3.547   3.534   5.068  0.3781  0.1058 -0.7106
  427TIP3    H122696   3.474   3.593   5.085  0.8604  0.1724  1.3804
  427TIP3    H222697   3.516   3.479   4.995 -1.4105  0.6949 -0.4580
  428TIP3   OH222698   3.614   4.863  13.008 -0.9343  0.5060 -0.1231
  428TIP3    H122699   3.523   4.887  12.994 -0.7086  1.3152 -0.2630
  428TIP3    H222700   3.656   4.943  13.039  0.0046  0.5102 -1.3233
  429TIP3   OH222701   0.263   2.151   1.820 -0.4447  0.2429  0.2533
  429TIP3    H122702   0.304   2.235   1.844 -0.1348 -0.0197  0.6433
  429TIP3    H222703   0.310   2.086   1.871 -0.7621 -0.1616  0.0314
  430TIP3   OH222704   1.962   4.079   5.215  0.5462  0.1142 -0.3835
  430TIP3    H122705   1.926   4.016   5.277  1.0809 -1.8518 -1.9689
  430TIP3    H222706   2.055   4.057   5.209  1.0980  2.0912  0.1538
  431TIP3   OH222707   0.963   0.658  14.665 -0.4707 -0.2444 -0.4324
  431TIP3    H122708   0.877   0.620  14.647  0.6017 -3.3348  0.4578
  431TIP3    H222709   0.956   0.694  14.753 -0.4003 -2.1072  0.3677
  432TIP3   OH222710   5.946   2.294  11.781 -0.1480 -0.2304  0.1942
  432TIP3    H122711   5.922   2.228  11.845  2.0723  0.4409  1.8416
  432TIP3    H222712   5.925   2.378  11.822 -1.9368  0.1755 -1.4305
  433TIP3   OH222713   6.482   4.395  13.466 -0.5902  0.3986 -0.1764
  433TIP3    H122714   6.570   4.369  13.494 -1.1724  0.4974  1.9183
  433TIP3    H222715   6.494   4.480  13.423  0.3075  0.5405  0.3408
  434TIP3   OH222716   5.882   1.208   1.539  0.1436 -0.5395 -0.2438
  434TIP3    H122717   5.947   1.147   1.573  1.3704  1.1053  0.4971
  434TIP3    H222718   5.932   1.268   1.483 -0.8859  0.2601 -0.3401
  435TIP3   OH222719   6.422   0.098  17.137 -0.0108  0.0288 -0.2312
  435TIP3    H122720   6.396   0.121  17.048  0.4465 -0.6981 -0.5635
  435TIP3    H222721   6.475   0.019  17.127 -0.4016 -0.3757  0.7429
  436TIP3   OH222722   2.195   1.448  12.106  0.6293  0.3795 -0.4304
  436TIP3    H122723   2.121   1.444  12.046  1.0402  1.2540 -1.0119
  436TIP3    H222724   2.251   1.375  12.081  1.6953  1.7751 -2.3482
  437TIP3   OH222725   5.011   2.394   2.539 -0.0948 -0.4141 -0.9831
  437TIP3    H122726   5.089   2.420   2.491  0.8719 -1.5685 -0.0917
  437TIP3    H222727   4.991   2.306   2.507 -0.1754 -0.6927 -0.1826
  438TIP3   OH222728   5.580   5.197   6.392  0.0891 -0.1399  0.1580
  438TIP3    H122729   5.585   5.228   6.302 -0.0055  0.1440  0.2458
  438TIP3    H222730   5.530   5.266   6.437  0.4765 -0.0841  0.5099
  439TIP3   OH222731   3.250   2.045  13.625  0.3151 -0.5915 -0.0243
  439TIP3    H122732   3.213   1.959  13.649 -0.1700 -0.3942 -0.0581
  439TIP3    H222733   3.296   2.074  13.703 -0.1238 -0.5639  0.2281
  440TIP3   OH222734   4.129   4.404  10.426  0.3517 -0.6408 -0.0285
  440TIP3    H122735   4.088   4.422  10.511  1.2186 -1.9156  0.6942
  440TIP3    H222736   4.080   4.330  10.391 -2.0873  1.7342 -2.2034
  441TIP3   OH222737   1.762   0.687   1.220 -0.0061 -0.6519 -0.2320
  441TIP3    H122738   1.812   0.703   1.301 -0.2114 -0.6105 -0.1114
  441TIP3    H222739   1.678   0.730   1.236  1.2697  2.9492 -1.9928
  442TIP3   OH222740   0.430   5.969   2.625  0.2436  0.6063  0.2668
  442TIP3    H122741   0.446   5.894   2.567  0.1229  0.7093  0.1008
  442TIP3    H222742   0.368   6.023   2.578 -1.1110 -0.1031  1.1556
  443TIP3   OH222743   1.055   5.791  14.759 -0.1795 -0.0441  0.6443
  443TIP3    H122744   1.143   5.820  14.737  0.0413  0.3727  1.9869
  443TIP3    H222745   0.998   5.863  14.732 -0.1233 -0.3330 -0.2673
  444TIP3   OH222746   2.036   6.293   5.866  0.1562 -0.0339 -0.0265
  444TIP3    H122747   2.130   6.280   5.853  0.1594 -1.4838  1.2477
  444TIP3    H222748   2.029   6.383   5.898  1.1887 -0.1557  0.5756
  445TIP3   OH222749   1.079   0.987   3.139 -0.1778 -0.3310 -0.4341
  445TIP3    H122750   0.994   0.992   3.095 -0.1776 -1.9246 -0.6807
  445TIP3    H222751   1.064   1.028   3.225 -1.0917 -0.2732 -0.6093
  446TIP3   OH222752   3.700   3.449  14.086 -0.0064  0.0556 -0.0314
  446TIP3    H122753   3.611   3.459  14.053  0.5235 -0.7564 -1.8506
  446TIP3    H222754   3.745   3.528  14.057  0.3565 -0.4744 -0.9739
  447TIP3   OH222755   3.089   0.239  11.299 -0.3018  0.3088 -0.4523
  447TIP3    H122756   3.096   0.311  11.361 -1.5716  1.0070 -1.0852
  447TIP3    H222757   3.086   0.281  11.213  1.6344 -0.6418 -1.0510
  448TIP3   OH222758   6.012   6.619   2.320 -0.5796 -0.1785 -0.4104
  448TIP3    H122759   5.946   6.677   2.357 -1.1692 -1.2552  0.2912
  448TIP3    H222760   6.092   6.671   2.318 -0.4568 -0.1024  2.6265
  449TIP3   OH222761   2.007   2.350   5.252 -0.1643  0.4205  0.4213
  449TIP3    H122762   2.042   2.281   5.308 -4.3318  0.5886  3.6934
  449TIP3    H222763   2.049   2.430   5.285  0.6716  0.0395  0.2999
  450TIP3   OH222764   0.190   3.169   4.894 -0.5414  0.3509 -0.7968
  450TIP3    H122765   0.107   3.205   4.865 -0.0583  0.7313 -1.7754
  450TIP3    H222766   0.181   3.074   4.883 -0.3808  0.4847 -2.2368
  451TIP3   OH222767   2.664   0.800   5.269 -0.0665 -0.5534  0.6436
  451TIP3    H122768   2.656   0.809   5.174 -1.3406  1.0959  0.8531
  451TIP3    H222769   2.724   0.870   5.294 -0.3872 -0.4593  1.1434
  452TIP3   OH222770   1.112   1.011  16.540 -0.0756  0.2031 -0.7710
  452TIP3    H122771   1.036   1.006  16.597  0.8422  0.0544  0.4841
  452TIP3    H222772   1.182   1.045  16.596  0.3055  2.3427 -2.4044
  453TIP3   OH222773   6.629   3.867  11.365  0.3474 -0.2966 -0.1149
  453TIP3    H122774   6.665   3.798  11.421  0.8891  0.2480  0.2142
  453TIP3    H222775   6.535   3.849  11.362  0.6196 -1.7010 -0.9253
  454TIP3   OH222776   2.374   0.407  14.197  0.3528  0.1270 -0.2515
  454TIP3    H122777   2.322   0.396  14.117 -0.6348 -0.9168  0.5003
  454TIP3    H222778   2.447   0.463  14.171 -0.4436  0.5610 -1.6644
  455TIP3   OH222779   0.844   3.869   0.592 -0.5621 -0.2763 -0.3922
  455TIP3    H122780   0.792   3.949   0.597 -1.4477 -0.9112  2.3146
  455TIP3    H222781   0.900   3.881   0.515 -2.9873  1.4765 -2.0166
  456TIP3   OH222782   1.705   1.196   0.548 -0.0304  0.2566  0.5760
  456TIP3    H122783   1.780   1.255   0.549 -0.0616  0.2939  1.1654
  456TIP3    H222784   1.633   1.249   0.515  0.5193 -0.2045 -1.5485
  457TIP3   OH222785   3.762   2.383  12.774  0.0044  0.3023 -0.2122
  457TIP3    H122786   3.808   2.322  12.831  0.8468  1.5613  0.4969
  457TIP3    H222787   3.825   2.403  12.705 -0.2795  0.3580 -0.4588
  458TIP3   OH222788   2.765   0.824  14.846  0.8875 -0.1780 -0.5326
  458TIP3    H122789   2.773   0.769  14.924  1.5260 -1.1854 -1.2826
  458TIP3    H222790   2.680   0.801  14.809  0.2173  0.9027  0.2966
  459TIP3   OH222791   1.042   4.215  11.655  0.3802 -0.3218  0.4550
  459TIP3    H122792   1.119   4.223  11.598  0.2542 -0.4308  0.2661
  459TIP3    H222793   0.971   4.189  11.595  0.3341 -0.8220  0.7291
  460TIP3   OH222794   5.155   4.517   3.545  0.0735  0.0383 -0.2837
  460TIP3    H122795   5.179   4.469   3.625  0.2797  1.4808  0.5537
  460TIP3    H222796   5.070   4.482   3.520 -0.8526  0.7887  1.6158
  461TIP3   OH222797   5.602   6.627  13.163 -0.7385 -0.0309 -0.6881
  461TIP3    H122798   5.590   6.532  13.165 -1.4375  0.0577 -0.6230
  461TIP3    H222799   5.517   6.663  13.188 -1.2414  0.6588 -3.1529
  462TIP3   OH222800   2.730   2.290   4.920 -0.3720 -0.4708  0.4425
  462TIP3    H122801   2.722   2.334   4.835 -2.0831 -1.0813  0.2536
  462TIP3    H222802   2.721   2.197   4.900  0.9633 -0.7752  1.1150
  463TIP3   OH222803   1.842   3.537   3.879 -0.1511 -0.2936  0.1843
  463TIP3    H122804   1.759   3.573   3.911  0.1716 -0.2799  1.0338
  463TIP3    H222805   1.837   3.545   3.783 -1.7129 -1.5663  0.1272
  464TIP3   OH222806   1.749   2.897   5.925 -0.2265  0.3736 -0.2329
  464TIP3    H122807   1.779   2.935   6.007  0.0726 -0.0739 -0.1314
  464TIP3    H222808   1.808   2.823   5.910 -0.0255  0.6902 -1.0557
  465TIP3   OH222809   1.970   1.387  14.537 -0.3011 -0.0366  0.3325
  465TIP3    H122810   1.945   1.351  14.452  0.9387 -1.0087  0.3442
  465TIP3    H222811   1.944   1.320  14.600  1.8765 -0.9301  0.3745
  466TIP3   OH222812   5.177   2.162  15.086  0.4048  0.1132 -0.4310
  466TIP3    H122813   5.229   2.105  15.030 -1.8756  0.4123 -3.0488
  466TIP3    H222814   5.203   2.251  15.062 -0.5248  0.2443 -0.9905
  467TIP3   OH222815   5.663   2.141   0.921  0.0300 -0.1203  0.0841
  467TIP3    H122816   5.715   2.221   0.912 -1.3181  0.8252  0.5204
  467TIP3    H222817   5.648   2.112   0.831  1.6188 -0.6430 -0.0474
  468TIP3   OH222818   3.699   0.527  12.841 -0.4227  0.2960  0.0275
  468TIP3    H122819   3.727   0.443  12.806  1.8466  0.7527  0.5791
  468TIP3    H222820   3.780   0.571  12.866 -1.6795  1.6646  2.0190
  469TIP3   OH222821   0.178   4.904  16.779 -0.2077 -0.4790 -0.4050
  469TIP3    H122822   0.257   4.858  16.749 -0.3700 -1.1221  0.1452
  469TIP3    H222823   0.184   4.904  16.874  0.0667  1.1524 -0.3879
  470TIP3   OH222824   4.196   2.129  16.590  0.4788 -0.3740  0.0026
  470TIP3    H122825   4.287   2.105  16.578  0.8159  0.9023 -0.0891
  470TIP3    H222826   4.162   2.141  16.502 -0.4184 -2.9734 -0.0955
  471TIP3   OH222827   4.358   6.365  14.875 -0.2868 -0.7558  0.1389
  471TIP3    H122828   4.345   6.334  14.785 -3.1681 -1.5281  0.7187
  471TIP3    H222829   4.270   6.386  14.906  0.7020  0.1194  2.5858
  472TIP3   OH222830   3.587   5.307  17.244  0.5663  0.5344 -0.2426
  472TIP3    H122831   3.492   5.317  17.248  0.3526 -0.3497 -2.1871
  472TIP3    H222832   3.600   5.217  17.215  2.0991 -0.2900  2.6377
  473TIP3   OH222833   0.569   2.150  12.812 -0.4118 -0.0120 -0.7192
  473TIP3    H122834   0.637   2.195  12.862 -0.5938 -1.7090  1.2090
  473TIP3    H222835   0.488   2.170  12.859 -0.9681  0.3567 -1.8073
  474TIP3   OH222836   5.404   6.537   4.102  0.0782  0.5153  0.0339
  474TIP3    H122837   5.310   6.558   4.095 -0.1630 -0.6593 -0.5691
  474TIP3    H222838   5.421   6.478   4.028  0.6444 -1.4715  1.6439
  475TIP3   OH222839   3.291   4.544   1.253  0.0795  0.1113  0.0778
  475TIP3    H122840   3.370   4.503   1.288 -0.6477 -1.8789 -0.4310
  475TIP3    H222841   3.322   4.623   1.208  1.5450  0.2530  1.2876
  476TIP3   OH222842   0.955   3.723   3.819  0.7679 -0.2702  0.0121
  476TIP3    H122843   0.957   3.768   3.734  1.2985  1.7570  1.0381
  476TIP3    H222844   0.863   3.729   3.846  0.8882  0.4987  0.2752
  477TIP3   OH222845   5.791   6.359  10.118 -0.0358 -0.0217  0.2539
  477TIP3    H122846   5.807   6.279  10.166  1.3556 -0.2077 -0.4718
  477TIP3    H222847   5.846   6.425  10.161  1.1465 -0.1697 -0.9676
  478TIP3   OH222848   4.165   2.978   3.968  0.0822 -0.2814 -0.1195
  478TIP3    H122849   4.145   2.927   3.890  0.7997 -0.2546 -0.3314
  478TIP3    H222850   4.255   3.007   3.954 -0.4447  1.3910 -0.2001
  479TIP3   OH222851   1.769   2.866   2.310 -0.4428  0.1206 -0.0378
  479TIP3    H122852   1.732   2.787   2.270 -1.9770  1.9848 -2.6137
  479TIP3    H222853   1.717   2.880   2.389 -1.4560 -0.3984 -0.5939
  480TIP3   OH222854   2.815   2.432   3.159  0.3667 -0.3496 -0.3244
  480TIP3    H122855   2.741   2.421   3.218  0.2697 -0.1028 -0.3982
  480TIP3    H222856   2.892   2.429   3.216  0.2364  0.6635 -0.0776
  481TIP3   OH222857   2.587   1.584  12.772 -0.0269 -0.1015 -0.0499
  481TIP3    H122858   2.635   1.545  12.700 -1.3189 -2.0999  0.0949
  481TIP3    H222859   2.654   1.607  12.837  1.1931  2.0426 -1.9319
  482TIP3   OH222860   2.378   4.646  14.679 -0.1116  0.3938  0.0072
  482TIP3    H122861   2.414   4.733  14.694 -0.8020  0.5067  1.0694
  482TIP3    H222862   2.422   4.616  14.599  0.4583  1.5279 -0.1274
  483TIP3   OH222863   3.121   6.507   0.122  0.5647  0.1541  0.3209
  483TIP3    H122864   3.194   6.505   0.061  1.4709  1.1981  1.3191
  483TIP3    H222865   3.104   6.600   0.136 -1.2274 -0.0621 -0.1727
  484TIP3   OH222866   3.540   0.536  10.747  0.5976 -0.8812  0.6067
  484TIP3    H122867   3.539   0.446  10.714 -1.3207 -0.8723  0.5135
  484TIP3    H222868   3.553   0.527  10.841  4.2232 -0.9972  0.2396
  485TIP3   OH222869   0.632   1.657  16.756  0.4795  0.0285 -0.0936
  485TIP3    H122870   0.656   1.578  16.709  0.2932  0.6104 -1.2155
  485TIP3    H222871   0.691   1.724  16.721  1.5637  0.1488  1.7945
  486TIP3   OH222872   3.150   3.964   6.686  0.5970 -0.5500  0.4702
  486TIP3    H122873   3.122   4.048   6.723  0.1949 -0.0875 -0.8260
  486TIP3    H222874   3.111   3.899   6.744 -0.6592  0.1378  0.4478
  487TIP3   OH222875   3.783   6.277   0.859 -0.7679  1.0406 -0.6030
  487TIP3    H122876   3.694   6.262   0.825 -0.5308  0.8026 -1.1207
  487TIP3    H222877   3.833   6.202   0.830 -0.5374  0.8662  0.2293
  488TIP3   OH222878   1.848   4.397   3.751 -0.2115 -0.3067 -0.1471
  488TIP3    H122879   1.801   4.460   3.805  0.0250  0.0084 -0.3089
  488TIP3    H222880   1.924   4.445   3.717  0.9076 -1.1457  1.0777
  489TIP3   OH222881   3.733   6.008  10.437 -0.4382 -0.2842  0.5501
  489TIP3    H122882   3.644   6.045  10.430 -0.1146  0.3380 -0.4761
  489TIP3    H222883   3.733   5.934  10.378 -0.3504 -0.4596  0.7683
  490TIP3   OH222884   2.471   2.432  14.177 -0.4044 -0.2756  0.2943
  490TIP3    H122885   2.407   2.415  14.247  0.6550  0.9275  1.6205
  490TIP3    H222886   2.512   2.347  14.162 -1.9263 -0.9626 -0.2247
  491TIP3   OH222887   0.890   4.088   5.065  0.1400  0.0691 -0.2765
  491TIP3    H122888   0.981   4.115   5.059  0.8824 -1.9139  1.0378
  491TIP3    H222889   0.875   4.035   4.987  0.8229 -1.4274  0.5752
  492TIP3   OH222890   3.578   0.878   1.803  0.2204  0.1380 -0.0965
  492TIP3    H122891   3.513   0.850   1.868  0.3059 -0.8244 -0.4150
  492TIP3    H222892   3.656   0.827   1.822 -0.2730 -1.4713 -1.9786
  493TIP3   OH222893   4.383   6.769   6.416 -0.5891  0.4080  0.0891
  493TIP3    H122894   4.364   6.705   6.347  0.2577  0.3646 -0.1101
  493TIP3    H222895   4.315   6.836   6.406 -0.8237  0.1012 -0.4011
  494TIP3   OH222896   0.979   5.045   0.399  0.6873 -0.1211  0.6552
  494TIP3    H122897   0.971   5.126   0.349  0.0587  0.6613  1.9545
  494TIP3    H222898   1.065   5.012   0.377  1.6881  1.8277  1.3630
  495TIP3   OH222899   0.109   3.541  15.828  0.7608 -0.5739  0.2789
  495TIP3    H122900   0.091   3.635  15.831  2.4581 -0.1824 -0.3025
  495TIP3    H222901   0.205   3.535  15.834  0.6488 -2.2968  0.8295
  496TIP3   OH222902   3.903   1.398   6.283  0.3852 -0.1088  0.0183
  496TIP3    H122903   3.983   1.399   6.230  1.0219  0.5705  0.9499
  496TIP3    H222904   3.932   1.370   6.370 -0.5311 -0.5969  0.1734
  497TIP3   OH222905   4.320   6.025  16.076  0.0506 -0.3992 -0.4199
  497TIP3    H122906   4.288   6.018  16.166  0.0924 -0.1231 -0.3813
  497TIP3    H222907   4.299   5.941  16.037  2.6833 -1.7025  0.6840
  498TIP3   OH222908   2.232   1.992   4.148 -0.0853 -0.3706  1.1710
  498TIP3    H122909   2.305   1.947   4.104 -0.4294 -1.7798  1.9737
  498TIP3    H222910   2.266   2.080   4.166  0.1462  0.2383 -1.6621
  499TIP3   OH222911   1.518   6.590  12.027 -0.3371  0.4365  0.2190
  499TIP3    H122912   1.483   6.525  12.088  1.4158  0.3634  1.1928
  499TIP3    H222913   1.501   6.552  11.940  0.1020 -1.0457  0.7460
  500TIP3   OH222914   5.060   1.448   4.738  0.0286 -0.0568  0.2378
  500TIP3    H122915   5.095   1.530   4.774 -1.0216 -0.9438  3.6745
  500TIP3    H222916   4.974   1.472   4.705  0.0244  0.3767  0.5427
  501TIP3   OH222917   0.391   3.360  16.468  0.1915  1.1817  0.4045
  501TIP3    H122918   0.467   3.302  16.479 -0.3055  0.7317  1.7305
  501TIP3    H222919   0.344   3.353  16.551 -1.4736  1.2231 -0.4976
  502TIP3   OH222920   0.982   0.206   0.970 -0.5840 -0.8801 -0.0017
  502TIP3    H122921   1.039   0.199   1.047 -0.0228 -0.6647 -0.3887
  502TIP3    H222922   1.041   0.192   0.896 -0.1786  2.9368 -0.6388
  503TIP3   OH222923   6.270   6.307  14.575 -0.1585 -0.0022 -0.0815
  503TIP3    H122924   6.228   6.385  14.612 -1.1040  0.5302 -2.1268
  503TIP3    H222925   6.237   6.302  14.485  1.1545 -1.8470 -0.5283
  504TIP3   OH222926   3.452   2.731   0.107  0.4493 -0.3903  0.1890
  504TIP3    H122927   3.379   2.731   0.045  1.3083 -0.9667 -0.8534
  504TIP3    H222928   3.414   2.766   0.188 -0.3679  1.7498 -1.0276
  505TIP3   OH222929   6.049   0.204  13.485 -0.3352  1.1370 -0.1355
  505TIP3    H122930   5.992   0.229  13.412 -0.1346  0.4283 -0.5448
  505TIP3    H222931   6.133   0.183  13.445 -0.0971  1.1518  0.3467
  506TIP3   OH222932   2.168   6.249   2.283  0.1406  0.0173 -0.1885
  506TIP3    H122933   2.082   6.271   2.317 -0.0099  0.9056 -1.0855
  506TIP3    H222934   2.229   6.280   2.349 -0.1592  1.3629 -0.5140
  507TIP3   OH222935   0.409   5.191  15.526  0.3550  0.3821  0.5844
  507TIP3    H122936   0.486   5.149  15.488  0.4340  0.7882  0.2839
  507TIP3    H222937   0.436   5.281  15.541 -0.0842  0.5442  0.4137
  508TIP3   OH222938   1.685   1.841   3.608 -0.1513 -0.2664  0.6381
  508TIP3    H122939   1.657   1.891   3.532  1.2225  2.4752  1.8011
  508TIP3    H222940   1.605   1.827   3.658 -0.8585 -0.9702 -0.6401
  509TIP3   OH222941   3.400   0.846   4.865  0.1058  0.1988  0.4234
  509TIP3    H122942   3.392   0.750   4.865  2.0609 -0.0565 -2.1300
  509TIP3    H222943   3.416   0.868   4.957 -2.7362 -1.5997  1.4880
  510TIP3   OH222944   5.294   4.719   3.721 -0.1269 -0.3143  0.1698
  510TIP3    H122945   5.317   4.632   3.753  1.0868  0.3365  1.1432
  510TIP3    H222946   5.378   4.763   3.708 -0.7274  1.2441  1.2675
  511TIP3   OH222947   4.950   1.123  15.882  0.5029 -0.6372 -1.0915
  511TIP3    H122948   4.940   1.035  15.846 -3.1543 -1.4214  1.2684
  511TIP3    H222949   5.002   1.111  15.961 -2.5547 -1.4127  0.9490
  512TIP3   OH222950   3.021   3.157   2.075  0.4959 -0.4706 -0.4402
  512TIP3    H122951   2.952   3.133   2.014 -0.3688  1.6737 -0.4112
  512TIP3    H222952   3.004   3.250   2.094  2.2770 -0.3989  1.0339
  513TIP3   OH222953   0.021   5.344   6.217 -0.2824  0.3858 -0.0043
  513TIP3    H122954   0.059   5.378   6.137 -1.6905 -0.5401 -1.1130
  513TIP3    H222955  -0.067   5.381   6.220 -0.2226  0.4952  1.1875
  514TIP3   OH222956   4.788   1.479  15.630  0.8519  0.1128  0.0804
  514TIP3    H122957   4.721   1.435  15.577  1.8298  0.2564 -1.3229
  514TIP3    H222958   4.787   1.570  15.600  1.5571  0.1535  0.1597
  515TIP3   OH222959   2.138   6.356   0.078  0.5427  0.1233  0.9500
  515TIP3    H122960   2.074   6.425   0.093  0.5151  0.3871 -0.2590
  515TIP3    H222961   2.108   6.313  -0.003  1.5183 -0.1871  0.7384
  516TIP3   OH222962   4.495   0.228  16.703 -0.4491 -0.3462  0.1776
  516TIP3    H122963   4.503   0.210  16.609  1.3237  0.7637  0.0662
  516TIP3    H222964   4.412   0.276  16.711  0.2230  1.1411 -1.1376
  517TIP3   OH222965   4.387   4.003  13.014  0.3673  0.5295  0.1058
  517TIP3    H122966   4.307   4.055  13.023  1.1363  1.5582  1.3393
  517TIP3    H222967   4.374   3.954  12.933 -0.7647  1.9958 -0.6563
  518TIP3   OH222968   0.656   1.183   0.344  0.5305  0.1712  0.4611
  518TIP3    H122969   0.656   1.278   0.329  1.5344 -0.0944 -1.4222
  518TIP3    H222970   0.566   1.156   0.327  0.2982  0.7331  0.7539
  519TIP3   OH222971   3.957   4.799  10.507 -0.6079  0.4186  0.2267
  519TIP3    H122972   4.024   4.865  10.487 -1.5566  1.5275  0.5806
  519TIP3    H222973   4.006   4.718  10.520  0.8001  1.4622  1.7763
  520TIP3   OH222974   3.266   4.793  12.281 -0.2916  0.2165  0.2862
  520TIP3    H122975   3.248   4.712  12.235  1.1899 -0.9084  1.5635
  520TIP3    H222976   3.222   4.861  12.230 -0.1557 -1.1673 -1.7597
  521TIP3   OH222977   5.727   4.818   4.810  0.1157 -0.3806  0.5159
  521TIP3    H122978   5.636   4.802   4.785  0.5655  1.4003 -2.7344
  521TIP3    H222979   5.776   4.744   4.774  0.3436  0.4880 -1.0359
  522TIP3   OH222980   0.836   3.506   1.840 -0.0376 -0.4504  0.1476
  522TIP3    H122981   0.923   3.472   1.862  1.0279  2.3355  0.6176
  522TIP3    H222982   0.775   3.447   1.885  1.6357 -1.7082  0.8893
  523TIP3   OH222983   1.510   2.217   1.078  0.6972 -0.3536  0.0513
  523TIP3    H122984   1.558   2.265   1.145  0.8944 -3.8477  2.7175
  523TIP3    H222985   1.578   2.169   1.030  0.3783  0.5893 -1.4112
  524TIP3   OH222986   0.153   4.388   4.668  0.3940 -0.4277 -0.0376
  524TIP3    H122987   0.178   4.296   4.661  0.1731 -0.6293  1.5891
  524TIP3    H222988   0.162   4.409   4.760  0.5959  1.2488 -0.4091
  525TIP3   OH222989   3.338   5.072   5.571 -0.1063 -0.2079 -0.4773
  525TIP3    H122990   3.304   5.020   5.643  0.5242  0.2686  0.1875
  525TIP3    H222991   3.415   5.116   5.608 -0.4785  0.9958 -1.0830
  526TIP3   OH222992   1.263   5.629  15.549 -0.4976 -0.2452  0.0574
  526TIP3    H122993   1.191   5.683  15.516  0.1411 -0.1923 -1.3263
  526TIP3    H222994   1.337   5.650  15.491  0.1559 -1.5412  0.3862
  527TIP3   OH222995   2.850   1.085   6.089 -0.2822 -0.5657 -0.2611
  527TIP3    H122996   2.864   1.148   6.018  0.9006  0.5181  0.8758
  527TIP3    H222997   2.792   1.019   6.051  1.2846 -0.7236 -2.6623
  528TIP3   OH222998   4.135   6.331   2.992 -0.2886  0.3558  0.1355
  528TIP3    H122999   4.100   6.246   2.966  2.1775 -0.4293 -0.9271
  528TIP3    H223000   4.179   6.315   3.075 -0.8470  0.8997  0.5461
  529TIP3   OH223001   2.253   5.623   2.361 -0.4437 -0.1397 -0.0132
  529TIP3    H123002   2.343   5.623   2.392 -0.1964  1.3462 -0.6590
  529TIP3    H223003   2.259   5.615   2.266 -0.8599  1.8758 -0.2562
  530TIP3   OH223004   5.039   1.425  11.026  0.0338 -0.5057  0.6887
  530TIP3    H123005   5.071   1.362  10.962 -0.4952  0.9088 -1.0555
  530TIP3    H223006   4.953   1.451  10.993  0.2449  1.1254  1.3361
  531TIP3   OH223007   4.995   2.137   1.815  0.6230 -0.3600  0.2377
  531TIP3    H123008   4.932   2.139   1.887 -0.2610 -0.9619 -0.5078
  531TIP3    H223009   4.985   2.221   1.771  0.9876 -0.0931  0.6582
  532TIP3   OH223010   5.152   6.096   1.160  0.3344  0.4455  0.2929
  532TIP3    H123011   5.225   6.068   1.105  1.3030  3.6408 -0.2525
  532TIP3    H223012   5.160   6.044   1.240  1.2220 -1.5325 -1.0077
  533TIP3   OH223013   5.237   2.135  12.979 -0.4145 -0.3776  0.6009
  533TIP3    H123014   5.233   2.188  12.899 -1.1927 -0.1684  0.7760
  533TIP3    H223015   5.152   2.148  13.021  0.1207 -0.1903  1.6522
  534TIP3   OH223016   1.892   5.095   6.573 -0.1781 -0.4407  1.2302
  534TIP3    H123017   1.851   5.175   6.540  3.3530  1.5627  1.2227
  534TIP3    H223018   1.891   5.035   6.499 -1.3320  0.2084  0.6925
  535TIP3   OH223019   6.277   4.704  16.789  0.2362  0.5590  0.0329
  535TIP3    H123020   6.304   4.747  16.709  1.0884  1.1026  0.6017
  535TIP3    H223021   6.355   4.705  16.845 -0.7414  1.5050  1.4267
  536TIP3   OH223022   0.944   6.411  15.530 -0.2692 -0.3505  0.1486
  536TIP3    H123023   0.969   6.319  15.525  0.2317 -0.2039 -0.1175
  536TIP3    H223024   0.865   6.417  15.476 -0.6385 -0.7311  0.6335
  537TIP3   OH223025   0.959   4.121  13.711  0.3182  0.1579 -0.0919
  537TIP3    H123026   0.939   4.060  13.782 -0.7593 -0.6309 -1.0424
  537TIP3    H223027   0.879   4.173  13.702 -1.3010 -2.5357 -3.4499
  538TIP3   OH223028   6.381   4.927  13.369  0.4262  0.3533  0.4326
  538TIP3    H123029   6.294   4.907  13.403  0.5042  0.9706  0.9996
  538TIP3    H223030   6.421   4.841  13.353 -0.5886  0.0587 -0.6439
  539TIP3   OH223031   4.152   2.806  16.382 -0.2015 -0.2637  0.1451
  539TIP3    H123032   4.199   2.728  16.410 -0.0965  0.0785  0.9705
  539TIP3    H223033   4.098   2.778  16.308  1.7545 -0.5276 -1.2528
  540TIP3   OH223034   2.378   5.102   5.072 -0.2557  0.5265  0.3408
  540TIP3    H123035   2.415   5.105   5.160 -1.6023 -0.4335  0.9713
  540TIP3    H223036   2.294   5.147   5.079 -0.2501  0.6941 -0.5276
  541TIP3   OH223037   5.850   2.973  13.084  0.7114 -0.3565 -0.8008
  541TIP3    H123038   5.805   2.902  13.037  0.0785 -0.5709  0.0934
  541TIP3    H223039   5.916   2.928  13.138 -1.9970 -0.7670  2.5214
  542TIP3   OH223040   6.086   2.390   0.616  0.0934  0.3908 -0.2461
  542TIP3    H123041   6.107   2.305   0.578  0.7858  0.0228  0.9085
  542TIP3    H223042   6.018   2.426   0.559 -0.4592 -1.0873 -0.5517
  543TIP3   OH223043   1.204   6.421  14.065 -0.2514 -0.1503 -0.0767
  543TIP3    H123044   1.112   6.445  14.052 -0.9608  0.9191  4.8912
  543TIP3    H223045   1.206   6.326  14.052 -1.8964 -0.1226 -0.8411
  544TIP3   OH223046   4.095   2.369   0.227  0.8201  0.1506 -0.5113
  544TIP3    H123047   3.999   2.371   0.230  0.8327  1.3580  1.4659
  544TIP3    H223048   4.120   2.325   0.309  1.9557 -0.1471 -1.0067
  545TIP3   OH223049   1.764   5.405   0.286 -0.7707  0.5727  0.0871
  545TIP3    H123050   1.768   5.451   0.201  0.6125 -0.7593 -0.6132
  545TIP3    H223051   1.835   5.443   0.337  0.9399 -1.2696 -0.8021
  546TIP3   OH223052   1.396   0.298   3.001  0.0416 -0.0155 -0.2380
  546TIP3    H123053   1.397   0.222   2.943  0.2484  1.2045 -1.9154
  546TIP3    H223054   1.354   0.367   2.950  0.1879  1.1090  1.0896
  547TIP3   OH223055   0.925   6.658   1.435 -0.2468 -0.1859  0.4458
  547TIP3    H123056   0.922   6.563   1.444  0.1439 -0.3214 -0.7122
  547TIP3    H223057   1.008   6.676   1.391 -0.9683  0.5538 -0.6687
  548TIP3   OH223058   1.480   0.753   5.435  0.5444  0.1952 -0.0951
  548TIP3    H123059   1.477   0.667   5.393  1.0286  0.5469 -0.8619
  548TIP3    H223060   1.391   0.787   5.427  0.4834 -0.0010 -0.2635
  549TIP3   OH223061   0.474   0.256  13.895  0.2240  0.1003 -0.7827
  549TIP3    H123062   0.505   0.339  13.933 -1.0385 -0.6722  2.2274
  549TIP3    H223063   0.549   0.197  13.906  0.5723  0.4068 -1.4469
  550TIP3   OH223064   3.222   5.311  15.882 -0.2894 -0.0714 -0.0089
  550TIP3    H123065   3.210   5.266  15.798 -0.2606 -1.6057  0.7715
  550TIP3    H223066   3.133   5.337  15.907 -0.3215  0.2320 -0.4329
  551TIP3   OH223067   1.786   6.234  16.231  0.1040  0.0821 -0.6215
  551TIP3    H123068   1.834   6.174  16.174 -0.7478  0.3391 -1.6382
  551TIP3    H223069   1.758   6.180  16.305 -0.0433 -0.6121 -1.1773
  552TIP3   OH223070   1.882   1.207   4.793  0.4983  0.2225 -0.0755
  552TIP3    H123071   1.853   1.298   4.799  0.2229  0.1451 -0.2242
  552TIP3    H223072   1.969   1.207   4.834  0.5539  0.5763 -0.1880
  553TIP3   OH223073   6.240   5.694  14.234 -0.1190  0.3968  0.1139
  553TIP3    H123074   6.284   5.692  14.149  1.6757  1.6396  0.9390
  553TIP3    H223075   6.308   5.724  14.295 -1.5076  0.0906  1.8935
  554TIP3   OH223076   6.627   4.873  12.307  0.0351 -0.1231  0.0313
  554TIP3    H123077   6.708   4.902  12.350 -0.2382 -0.1600  0.5729
  554TIP3    H223078   6.637   4.778  12.300  0.3676 -0.0518 -0.5928
  555TIP3   OH223079   3.927   0.170  11.070 -0.1255 -0.5976  0.7290
  555TIP3    H123080   3.841   0.213  11.070  0.0087 -0.3234  0.3469
  555TIP3    H223081   3.907   0.077  11.076 -0.5099 -0.6274 -0.6821
  556TIP3   OH223082   3.867   0.023   1.104  0.5601 -0.0676 -0.1047
  556TIP3    H123083   3.891   0.052   1.192  0.9787  0.3548 -0.3543
  556TIP3    H223084   3.832   0.101   1.061  0.0746 -0.3412 -0.2164
  557TIP3   OH223085   2.285   0.072  12.516  0.8938 -0.0693  0.1571
  557TIP3    H123086   2.245   0.158  12.528 -0.1725 -0.6575  1.0769
  557TIP3    H223087   2.378   0.086  12.530  0.4624  0.5148  3.0045
  558TIP3   OH223088   2.333   0.280  14.645  0.2041  0.2558 -0.6826
  558TIP3    H123089   2.401   0.301  14.580  1.9112 -1.4704  0.4187
  558TIP3    H223090   2.381   0.273  14.728 -0.6550 -4.0156 -0.3287
  559TIP3   OH223091   2.495   1.169  12.756 -0.3387  0.6337 -0.6707
  559TIP3    H123092   2.576   1.216  12.777  0.0014  0.0684 -0.6983
  559TIP3    H223093   2.430   1.238  12.744  1.0226  1.4341 -4.9280
  560TIP3   OH223094   3.306   0.253   4.352  0.8261 -0.6720 -0.1722
  560TIP3    H123095   3.380   0.223   4.298  1.0611 -0.7257  0.1774
  560TIP3    H223096   3.253   0.305   4.292  1.5010 -0.0720 -0.2702
  561TIP3   OH223097   5.955   6.274  16.615  0.0072 -0.4489  0.2191
  561TIP3    H123098   5.920   6.357  16.649 -0.7416 -0.3510 -0.7582
  561TIP3    H223099   6.015   6.300  16.545  1.6720 -0.6448  1.5140
  562TIP3   OH223100   4.375   3.466   4.655  0.0012  0.1601 -0.3322
  562TIP3    H123101   4.337   3.548   4.686 -1.9708 -1.1817  1.0303
  562TIP3    H223102   4.362   3.404   4.727  1.9087 -1.2465 -1.1093
  563TIP3   OH223103   3.090   0.948   3.144  0.6202 -0.5074  0.2082
  563TIP3    H123104   3.018   0.926   3.204  1.1987 -1.9493  0.4180
  563TIP3    H223105   3.093   1.044   3.144  0.2274 -0.4593  2.0498
  564TIP3   OH223106   1.360   3.956  13.669  0.9397  0.1378 -0.4185
  564TIP3    H123107   1.414   3.945  13.747  1.1256  1.9045 -0.2577
  564TIP3    H223108   1.413   3.920  13.598  1.1788 -0.6017  0.1271
  565TIP3   OH223109   1.883   6.164  11.533 -0.2947 -0.0990  0.0172
  565TIP3    H123110   1.850   6.252  11.519 -0.6047  0.3242  2.8063
  565TIP3    H223111   1.817   6.107  11.493 -2.7043  0.8401  2.3217
  566TIP3   OH223112   4.148   5.476  12.924 -0.2684 -0.1782  0.9280
  566TIP3    H123113   4.202   5.452  13.000 -0.5583  2.1225  1.9409
  566TIP3    H223114   4.204   5.457  12.849  1.5445  1.0404  1.8952
  567TIP3   OH223115   3.332   2.409   2.276  0.1884  0.7141 -0.6569
  567TIP3    H123116   3.426   2.424   2.265  0.2220  0.5477 -0.5899
  567TIP3    H223117   3.292   2.450   2.199  0.3555  0.3192 -0.9511
  568TIP3   OH223118   3.882   5.823  11.908 -0.0904  0.2142  0.0183
  568TIP3    H123119   3.794   5.830  11.943 -0.0684  1.4505 -0.1257
  568TIP3    H223120   3.885   5.736  11.867 -1.7791  0.7748 -1.4055
  569TIP3   OH223121   4.359   2.867  11.491  0.1916  0.2325 -0.1036
  569TIP3    H123122   4.383   2.789  11.441  0.0373  1.0376 -1.4987
  569TIP3    H223123   4.440   2.918  11.496  0.6112 -0.5596  1.9079
  570TIP3   OH223124   1.588   0.546  14.881 -0.6105  0.2055  0.3438
  570TIP3    H123125   1.493   0.549  14.871 -0.4487  0.9405 -1.1553
  570TIP3    H223126   1.601   0.531  14.975 -2.1932  0.6908  0.6790
  571TIP3   OH223127   6.755   0.124  15.088  0.3683 -0.1845  0.2660
  571TIP3    H123128   6.751   0.214  15.057 -0.2627 -0.4402 -0.4253
  571TIP3    H223129   6.839   0.091  15.054 -0.4401 -0.5525 -1.5211
  572TIP3   OH223130   2.902   0.398   4.785  0.0654  0.3323  0.0399
  572TIP3    H123131   2.809   0.379   4.793 -0.0418  0.3348 -1.0977
  572TIP3    H223132   2.915   0.417   4.692  0.8125  2.4286  0.5158
  573TIP3   OH223133   5.459   1.195  15.215 -0.0856 -0.1516 -0.6655
  573TIP3    H123134   5.478   1.102  15.228  0.2593 -0.1266 -0.9655
  573TIP3    H223135   5.545   1.238  15.222 -0.4042  0.3051  0.7913
  574TIP3   OH223136   4.268   4.782   4.056 -0.4328  0.8897 -0.0193
  574TIP3    H123137   4.186   4.821   4.086 -0.7858 -1.0419  1.7919
  574TIP3    H223138   4.249   4.688   4.052  1.2612  0.5545 -1.0776
  575TIP3   OH223139   4.380   4.862  13.768  0.4555 -0.1680 -0.0583
  575TIP3    H123140   4.405   4.770  13.760 -0.6488 -0.3379 -2.0046
  575TIP3    H223141   4.341   4.868  13.855  1.9608 -1.1409  0.7446
  576TIP3   OH223142   6.312   1.993   3.638  0.2673 -0.0579  0.0610
  576TIP3    H123143   6.334   2.061   3.574  0.7542 -0.5675 -0.3198
  576TIP3    H223144   6.395   1.949   3.656 -0.4677 -2.5381 -2.0053
  577TIP3   OH223145   5.214   2.954   2.162 -0.1823  0.2689  0.3312
  577TIP3    H123146   5.178   2.866   2.161  1.6234 -0.5424 -1.6599
  577TIP3    H223147   5.288   2.950   2.223  0.2626  0.2213 -0.2023
  578TIP3   OH223148   5.360   4.761  16.338 -0.1551  0.4134  0.5542
  578TIP3    H123149   5.273   4.798  16.352 -0.5346 -0.0372 -0.5217
  578TIP3    H223150   5.401   4.762  16.424 -1.0284  1.1212  0.9758
  579TIP3   OH223151   6.155   3.095  12.946  0.6874 -0.0771  0.9818
  579TIP3    H123152   6.155   3.042  12.866 -2.5784 -0.7948  1.3218
  579TIP3    H223153   6.230   3.062  12.996  0.5136 -2.3443 -0.1291
  580TIP3   OH223154   5.732   3.370   3.185 -0.2706 -0.5371  0.0392
  580TIP3    H123155   5.665   3.339   3.248  1.3247 -0.8313  1.6780
  580TIP3    H223156   5.712   3.463   3.173 -0.3394 -0.3566  1.3706
  581TIP3   OH223157   4.228   6.761  16.879  0.3233  0.7899 -0.6387
  581TIP3    H123158   4.176   6.815  16.819 -0.0830  0.0779 -0.9331
  581TIP3    H223159   4.276   6.701  16.823 -1.6073 -1.2766 -0.2059
  582TIP3   OH223160   4.626   0.879   3.303 -0.1535  0.1390 -0.0475
  582TIP3    H123161   4.541   0.859   3.341  0.8253 -0.8860  1.7101
  582TIP3    H223162   4.681   0.902   3.377  0.7737  2.1816 -1.2855
  583TIP3   OH223163   0.522   3.558   1.744  0.2255  0.1353  0.3762
  583TIP3    H123164   0.518   3.557   1.648 -1.5234 -0.5480  0.4191
  583TIP3    H223165   0.610   3.527   1.765  0.8005  0.7649 -1.0046
  584TIP3   OH223166   3.018   5.590  13.624 -0.2053  0.4977  0.6291
  584TIP3    H123167   3.065   5.543  13.693 -2.4732  0.4196  2.2234
  584TIP3    H223168   3.016   5.681  13.654 -0.0347  0.7323 -0.0459
  585TIP3   OH223169   5.033   2.875  11.822  1.1857 -0.6428 -0.6076
  585TIP3    H123170   5.000   2.954  11.780  0.9926  1.2410  2.7040
  585TIP3    H223171   5.095   2.839  11.759  1.9863  2.6725 -1.9720
  586TIP3   OH223172   1.826   2.147  12.053  0.1672 -0.2376  0.2904
  586TIP3    H123173   1.886   2.217  12.026  2.0202 -1.5207  0.9361
  586TIP3    H223174   1.882   2.079  12.089 -1.5870 -2.0349 -0.1772
  587TIP3   OH223175   5.038   6.401  11.407  0.0319  0.0755 -0.0302
  587TIP3    H123176   5.020   6.485  11.364  0.3257  1.8403  3.0296
  587TIP3    H223177   4.952   6.360  11.415 -0.6714  1.7202  1.4707
  588TIP3   OH223178   5.984   3.537   0.743  0.0800 -0.2826  0.0364
  588TIP3    H123179   5.895   3.571   0.748 -0.8551 -2.6783  0.7745
  588TIP3    H223180   5.978   3.447   0.774  2.2578 -1.4727 -2.5973
  589TIP3   OH223181   1.999   1.678  12.945  0.4005 -0.2250 -0.5941
  589TIP3    H123182   1.935   1.712  13.008 -0.0440  0.4925 -1.4173
  589TIP3    H223183   1.952   1.678  12.861  0.7650 -1.7870 -0.8283
  590TIP3   OH223184   3.336   0.831   3.960  0.2738 -0.1616 -0.0205
  590TIP3    H123185   3.296   0.865   4.041 -0.3828 -0.4210 -0.2331
  590TIP3    H223186   3.350   0.738   3.978  0.9870 -0.0253  0.1321
  591TIP3   OH223187   6.079   2.149  12.960  0.2875 -0.0200  0.4627
  591TIP3    H123188   6.080   2.211  13.033  0.4282 -0.8527  1.1825
  591TIP3    H223189   6.096   2.064  13.001 -1.1386 -0.7136 -0.3337
  592TIP3   OH223190   2.727   3.675   4.176  0.1852 -0.2387 -0.1223
  592TIP3    H123191   2.680   3.647   4.098 -2.0934  2.0352  0.3097
  592TIP3    H223192   2.783   3.746   4.147 -1.2617  1.1593  0.3521
  593TIP3   OH223193   3.305   2.119  11.313 -0.7215 -0.1096  0.3757
  593TIP3    H123194   3.365   2.050  11.286  0.4303  0.1252  2.2024
  593TIP3    H223195   3.316   2.188  11.248  0.5865 -0.2963  0.3854
  594TIP3   OH223196   0.883   4.645   4.330 -0.0054  0.1318 -0.6598
  594TIP3    H123197   0.850   4.594   4.257 -0.1427  1.4375 -1.5462
  594TIP3    H223198   0.958   4.595   4.362 -0.8214 -1.1886 -0.7423
  595TIP3   OH223199   5.483   3.041  16.155 -0.1019 -0.6060  0.3764
  595TIP3    H123200   5.494   2.946  16.154  2.2172 -0.5035  2.9533
  595TIP3    H223201   5.569   3.075  16.127 -0.5399  0.7206  0.5799
  596TIP3   OH223202   4.457   4.157  14.384  0.1595 -0.5079 -0.0090
  596TIP3    H123203   4.454   4.075  14.433 -0.2553 -0.6809 -0.3088
  596TIP3    H223204   4.430   4.132  14.295 -0.0903 -0.0240 -0.0704
  597TIP3   OH223205   5.875   1.648   2.452 -0.2714 -0.3835  0.1044
  597TIP3    H123206   5.790   1.620   2.419 -0.7999 -1.3345  2.1233
  597TIP3    H223207   5.930   1.571   2.446  0.5522  0.2728 -1.3493
  598TIP3   OH223208   2.573   4.680  15.926  0.2218  0.1395  0.0681
  598TIP3    H123209   2.501   4.632  15.968 -1.7714  2.4685 -0.4873
  598TIP3    H223210   2.551   4.680  15.833  1.7003 -0.2183 -0.3191
  599TIP3   OH223211   3.732   4.376  12.253 -0.2143 -0.5653 -0.2948
  599TIP3    H123212   3.820   4.386  12.288  0.0062  0.6353 -1.1166
  599TIP3    H223213   3.674   4.405  12.323  0.1292  0.0834 -0.2738
  600TIP3   OH223214   0.623   2.209   0.563 -0.1905 -0.3439  0.3084
  600TIP3    H123215   0.601   2.298   0.591  0.7589 -0.5068  1.6662
  600TIP3    H223216   0.621   2.157   0.644  0.9306 -1.2071 -0.1866
  601TIP3   OH223217   6.346   2.809  16.273  0.3613 -0.2541 -0.2352
  601TIP3    H123218   6.362   2.754  16.197  0.6290  0.5931 -0.8050
  601TIP3    H223219   6.356   2.898  16.240 -2.5895  0.2673  0.0336
  602TIP3   OH223220   3.558   6.692  13.757  0.5225 -0.0978  0.5802
  602TIP3    H123221   3.476   6.704  13.806 -0.5350 -1.9955 -0.5983
  602TIP3    H223222   3.626   6.691  13.824 -0.5166  0.6099  1.6850
  603TIP3   OH223223   0.147   1.555   1.468  0.4986 -0.0110  0.1426
  603TIP3    H123224   0.073   1.558   1.407  2.4185 -0.7552 -2.3871
  603TIP3    H223225   0.162   1.646   1.492 -0.0600  0.3466 -0.8179
  604TIP3   OH223226   2.473   6.156  14.152  0.7279 -0.3665 -0.2761
  604TIP3    H123227   2.562   6.192  14.147  0.1677  1.2054  0.5544
  604TIP3    H223228   2.432   6.204  14.224 -1.3527  0.1516 -1.7338
  605TIP3   OH223229   1.278   2.636   3.028  0.0488  0.6849  0.1463
  605TIP3    H123230   1.330   2.613   2.950 -0.5297  0.7170 -0.2530
  605TIP3    H223231   1.261   2.729   3.019  2.3030  1.3410  1.7193
  606TIP3   OH223232   6.502   4.053   3.863  0.5849  0.4461  0.0575
  606TIP3    H123233   6.585   4.034   3.820  1.3268 -2.8709  2.5065
  606TIP3    H223234   6.436   4.011   3.807  0.6762  1.7816 -1.0996
  607TIP3   OH223235   3.168   3.268  17.194 -0.5860  0.7468  0.7600
  607TIP3    H123236   3.164   3.173  17.198 -0.4703  0.6694 -0.6528
  607TIP3    H223237   3.192   3.295  17.283 -0.6679 -0.5285  1.1815
  608TIP3   OH223238   4.773   3.578  13.279  0.6071  0.5276 -0.7728
  608TIP3    H123239   4.703   3.528  13.321  1.6692 -2.6019 -2.3962
  608TIP3    H223240   4.728   3.650  13.236 -0.8854  1.8942  2.6425
  609TIP3   OH223241   5.689   2.597  15.545  0.1225  0.8576 -0.1325
  609TIP3    H123242   5.760   2.650  15.509 -0.9971  2.7246  0.3048
  609TIP3    H223243   5.637   2.658  15.598 -1.7167 -0.4704 -0.3012
  610TIP3   OH223244   3.349   2.492   3.740 -1.0142  0.3527 -0.1430
  610TIP3    H123245   3.427   2.480   3.795 -0.5644 -1.1357 -1.0527
  610TIP3    H223246   3.332   2.586   3.742  1.1236  0.7829 -0.3580
  611TIP3   OH223247   1.985   2.388   4.135  0.1304 -0.1380  0.6112
  611TIP3    H123248   2.067   2.339   4.137 -0.3217 -0.8956  2.6282
  611TIP3    H223249   1.920   2.324   4.105 -0.2733 -0.5158  2.2149
  612TIP3   OH223250   5.857   3.843   3.818  0.3604 -0.1458  0.1407
  612TIP3    H123251   5.816   3.907   3.760 -0.1541  0.6871  1.3825
  612TIP3    H223252   5.879   3.893   3.897  0.3831 -1.3986  0.9520
  613TIP3   OH223253   5.059   2.062   4.888  0.6776  0.2287 -0.1582
  613TIP3    H123254   5.083   2.143   4.843  0.8413  0.4248  0.2745
  613TIP3    H223255   5.130   2.001   4.868 -0.0000 -0.1831 -1.4224
  614TIP3   OH223256   5.768   1.646  11.129  0.1526  0.3387  0.1367
  614TIP3    H123257   5.792   1.574  11.187 -1.9675 -2.3660 -2.1163
  614TIP3    H223258   5.846   1.659  11.074  0.1684 -1.0223 -0.1791
  615TIP3   OH223259   0.074   1.026  13.651  0.5007 -0.5240  0.0996
  615TIP3    H123260  -0.014   1.016  13.685  0.6853  0.9057  1.0967
  615TIP3    H223261   0.125   1.061  13.725  1.7733 -0.8178 -0.6024
  616TIP3   OH223262   6.635   0.983   1.777  0.0916 -0.4981  0.2524
  616TIP3    H123263   6.723   0.948   1.762  0.9148  1.2728  0.6849
  616TIP3    H223264   6.647   1.053   1.840 -1.3162  1.1156 -1.1508
  617TIP3   OH223265   2.445   0.754   4.732  0.3044  0.6731 -0.0479
  617TIP3    H123266   2.522   0.715   4.691  0.9884  0.4669  1.3504
  617TIP3    H223267   2.480   0.824   4.787 -0.1613 -1.0695  2.6410
  618TIP3   OH223268   6.731   0.115   4.923 -0.2108 -0.0963  0.4095
  618TIP3    H123269   6.728   0.159   4.838  0.1517  0.0872  0.4902
  618TIP3    H223270   6.654   0.058   4.923 -0.7883  0.6638  0.3803
  619TIP3   OH223271   2.369   1.670  11.287  0.0024 -0.2310 -0.2665
  619TIP3    H123272   2.310   1.729  11.333 -2.4873 -2.3342 -0.5535
  619TIP3    H223273   2.437   1.650  11.350 -1.2700 -0.1117  1.1900
  620TIP3   OH223274   3.690   5.975   0.567 -0.0284  0.2252 -0.0700
  620TIP3    H123275   3.750   6.046   0.543  1.9266 -1.3601 -0.1585
  620TIP3    H223276   3.716   5.951   0.656 -0.5328 -0.5213 -0.1153
  621TIP3   OH223277   3.246   0.344  11.728 -0.3035 -0.3753 -0.1700
  621TIP3    H123278   3.300   0.413  11.689 -1.1589  0.1802 -0.4078
  621TIP3    H223279   3.288   0.262  11.701 -0.7380 -0.0181 -2.1359
  622TIP3   OH223280   3.548   0.982  14.596 -0.0865 -0.1722  0.1483
  622TIP3    H123281   3.592   1.061  14.627  1.1727 -0.2825 -1.2214
  622TIP3    H223282   3.539   0.996  14.502 -1.5214 -0.8813  0.1642
  623TIP3   OH223283   3.019   0.092   3.839  0.4500 -0.4188  0.3470
  623TIP3    H123284   2.927   0.072   3.820 -0.0631  1.7058  0.4106
  623TIP3    H223285   3.065   0.009   3.823 -1.1624 -0.9848 -1.7643
  624TIP3   OH223286   0.310   1.872   2.453  0.1582  0.1046 -0.2439
  624TIP3    H123287   0.356   1.955   2.461 -0.6540  0.4457  1.4595
  624TIP3    H223288   0.377   1.809   2.424  1.3028  0.9013  0.6030
  625TIP3   OH223289   5.019   3.113  17.101 -0.3376 -0.2328 -0.5560
  625TIP3    H123290   4.941   3.117  17.156  0.1178 -0.7193  0.1374
  625TIP3    H223291   4.985   3.100  17.013 -1.1092  1.2658 -0.5209
  626TIP3   OH223292   2.076   3.608   1.782 -0.2996 -0.3961 -0.2462
  626TIP3    H123293   2.063   3.675   1.714  1.5174 -0.5735 -0.8169
  626TIP3    H223294   1.988   3.574   1.799 -0.7868 -0.5412 -2.7155
  627TIP3   OH223295   1.212   4.084  12.464  0.7540 -0.0396 -0.7081
  627TIP3    H123296   1.288   4.039  12.428  0.6792 -0.6009 -0.1823
  627TIP3    H223297   1.144   4.073  12.398  0.8997 -0.2204 -0.8289
  628TIP3   OH223298   3.329   1.894   3.673 -0.2661 -0.2851 -0.8492
  628TIP3    H123299   3.394   1.958   3.702 -1.4422  0.5597  0.0463
  628TIP3    H223300   3.353   1.813   3.720  0.9529 -0.3935 -1.6274
  629TIP3   OH223301   0.736   6.693  11.577 -0.2738 -0.4663 -0.2597
  629TIP3    H123302   0.831   6.691  11.567 -0.2203 -2.0267  0.2491
  629TIP3    H223303   0.712   6.785  11.562  1.3578  0.0560  0.1004
  630TIP3   OH223304   2.133   6.428   1.273 -0.1055 -0.1971  0.2973
  630TIP3    H123305   2.138   6.498   1.208  0.8220 -1.1443 -0.6861
  630TIP3    H223306   2.059   6.374   1.244  0.5308 -0.8182 -0.1948
  631TIP3   OH223307   3.830   0.908  13.749  0.0065  0.2811  0.0964
  631TIP3    H123308   3.834   0.912  13.844 -1.2258 -0.2146  0.1825
  631TIP3    H223309   3.921   0.919  13.721  0.3950  0.3551  1.3216
  632TIP3   OH223310   2.704   0.762  16.201  0.3220 -0.5542  0.4069
  632TIP3    H123311   2.735   0.757  16.110 -0.3478 -0.3796  0.1600
  632TIP3    H223312   2.616   0.725  16.197  0.0091  0.1372  0.8499
  633TIP3   OH223313   6.528   1.203   3.463 -0.1368 -0.3479  0.0406
  633TIP3    H123314   6.587   1.131   3.487 -0.8012 -0.5654  1.0738
  633TIP3    H223315   6.585   1.280   3.461  0.4939 -0.8146 -0.6111
  634TIP3   OH223316   6.152   0.118  12.726 -0.2349 -0.5557  0.0002
  634TIP3    H123317   6.083   0.094  12.787 -0.4163  0.5318  0.2414
  634TIP3    H223318   6.153   0.214  12.726  0.0932 -0.5302 -1.3331
  635TIP3   OH223319   0.220   3.263   3.294  0.4082 -0.3181 -0.4094
  635TIP3    H123320   0.216   3.349   3.334  1.2381 -0.6008  0.3258
  635TIP3    H223321   0.229   3.202   3.368 -2.4083 -1.2821 -0.7154
  636TIP3   OH223322   5.633   1.431  12.012  0.0269 -0.1944  0.0565
  636TIP3    H123323   5.643   1.410  11.920 -0.6120  3.6443 -1.0490
  636TIP3    H223324   5.703   1.494  12.030 -0.1601 -0.4917  2.1276
  637TIP3   OH223325   4.376   2.071   6.126 -0.3676 -0.0836 -0.0348
  637TIP3    H123326   4.285   2.101   6.125 -0.8738 -1.5367  0.3583
  637TIP3    H223327   4.393   2.043   6.037 -0.6127 -0.6568  0.0935
  638TIP3   OH223328   2.374   5.253   0.586 -0.0074 -0.1866  0.0212
  638TIP3    H123329   2.421   5.309   0.646 -0.0612  1.7823 -1.6576
  638TIP3    H223330   2.325   5.313   0.530 -2.4675 -2.0239 -0.0009
  639TIP3   OH223331   4.480   0.806  12.444 -0.6921  0.0359  0.2939
  639TIP3    H123332   4.531   0.872  12.492 -0.7876 -0.0549  0.5208
  639TIP3    H223333   4.402   0.792  12.497 -1.6889  1.2660 -0.8012
  640TIP3   OH223334   2.801   4.363  16.988 -0.3227  0.0700 -0.8952
  640TIP3    H123335   2.859   4.428  16.946  2.1108 -1.8123 -0.6541
  640TIP3    H223336   2.771   4.308  16.915  0.4654 -0.6192 -0.7153
  641TIP3   OH223337   4.836   5.355  16.866  0.3303  0.1051 -0.1284
  641TIP3    H123338   4.815   5.300  16.941 -0.6501 -2.4882 -2.1406
  641TIP3    H223339   4.796   5.439  16.886 -0.3740 -0.6597  1.9894
  642TIP3   OH223340   2.216   1.453  17.381  0.1666  0.0821  0.1000
  642TIP3    H123341   2.270   1.512  17.328  1.0912 -1.8270 -1.2175
  642TIP3    H223342   2.129   1.458  17.341  0.0777  0.9459  0.3697
  643TIP3   OH223343   6.593   5.136   0.711  0.1749 -0.1090  0.7186
  643TIP3    H123344   6.670   5.114   0.657  1.2945  0.6583  1.9378
  643TIP3    H223345   6.627   5.197   0.777 -1.6733  0.9030  0.7983
  644TIP3   OH223346   3.162   1.491  16.409  0.1312 -0.5715 -0.1181
  644TIP3    H123347   3.142   1.582  16.387 -0.8974 -0.3800  1.4347
  644TIP3    H223348   3.257   1.491  16.425  0.7334 -0.4832 -3.0702
  645TIP3   OH223349   5.260   5.156   6.078 -0.0799 -0.4191 -0.0551
  645TIP3    H123350   5.284   5.247   6.062  1.9475 -0.8945  0.0208
  645TIP3    H223351   5.229   5.154   6.169 -0.9797  0.3127 -0.3265
  646TIP3   OH223352   1.224   5.645   3.288  0.8801 -0.2363  0.2977
  646TIP3    H123353   1.219   5.741   3.291  3.0637 -0.0842  0.4349
  646TIP3    H223354   1.207   5.623   3.196 -0.1043  0.2081  0.3530
  647TIP3   OH223355   3.157   5.825  14.724  0.2136  0.3923 -0.2221
  647TIP3    H123356   3.147   5.867  14.639  0.3131  2.4215  0.7060
  647TIP3    H223357   3.245   5.851  14.754 -0.2437  0.6590  0.9585
  648TIP3   OH223358   5.699   0.327  13.239 -0.3173 -0.0776  0.4812
  648TIP3    H123359   5.752   0.397  13.201  1.1973 -1.1277  0.5689
  648TIP3    H223360   5.670   0.362  13.323 -1.6280  1.3320 -0.5101
  649TIP3   OH223361   2.251   0.218  13.258  0.1305  0.0433 -0.6272
  649TIP3    H123362   2.186   0.154  13.227 -1.0775 -0.1320  2.0063
  649TIP3    H223363   2.332   0.167  13.265  0.4770  0.0875 -3.2578
  650TIP3   OH223364   2.554   5.577  16.081 -0.0667 -0.0678  0.2904
  650TIP3    H123365   2.643   5.557  16.051 -0.5431 -0.9693 -0.5723
  650TIP3    H223366   2.535   5.512  16.147 -0.2677 -0.1970  0.1093
  651TIP3   OH223367   6.692   5.345   5.098  0.1780  0.0435 -0.3885
  651TIP3    H123368   6.700   5.362   5.191 -1.9429  0.0187 -0.1549
  651TIP3    H223369   6.721   5.254   5.087  0.6407  0.1154  0.1957
  652TIP3   OH223370   0.407   5.191   6.115  0.0897  0.6416 -0.0778
  652TIP3    H123371   0.379   5.261   6.173 -0.9094  1.1541 -1.1458
  652TIP3    H223372   0.425   5.234   6.032 -1.0434 -0.4125 -0.9115
  653TIP3   OH223373   2.427   2.132   0.951  0.0222  0.2288  0.0712
  653TIP3    H123374   2.439   2.082   0.870 -0.0058 -0.5481  0.5340
  653TIP3    H223375   2.387   2.070   1.012  2.8326 -0.2028  1.6803
  654TIP3   OH223376   4.910   3.923  15.812 -0.1100  0.5379  0.3949
  654TIP3    H123377   4.834   3.869  15.834  0.4077 -0.3206  0.1220
  654TIP3    H223378   4.957   3.932  15.895 -0.6701  1.3349  0.6293
  655TIP3   OH223379   6.414   6.563  14.575  0.4461 -0.3543 -0.3566
  655TIP3    H123380   6.464   6.497  14.527  0.0373 -0.3981 -0.7239
  655TIP3    H223381   6.400   6.633  14.511 -0.0343 -0.3789 -0.2794
  656TIP3   OH223382   1.916   4.852   2.557  0.2851  0.0730  0.0253
  656TIP3    H123383   1.824   4.828   2.569  0.4279 -1.4349 -1.4652
  656TIP3    H223384   1.930   4.924   2.618 -1.5372 -0.4908  1.2005
  657TIP3   OH223385   6.104   4.395   2.360  0.4180 -0.0448 -0.1293
  657TIP3    H123386   6.189   4.413   2.320  0.9767  0.0263  1.0435
  657TIP3    H223387   6.123   4.328   2.427 -0.4781 -0.1625  0.0165
  658TIP3   OH223388   5.757   4.536  14.743  0.2449 -0.3907 -0.6133
  658TIP3    H123389   5.726   4.530  14.833  0.5638  0.0017 -0.4704
  658TIP3    H223390   5.703   4.605  14.703 -0.4825 -1.1581 -0.9808
  659TIP3   OH223391   5.602   0.941   1.627  0.4667  0.4495  0.3117
  659TIP3    H123392   5.698   0.943   1.632  0.5020  0.2634 -0.2419
  659TIP3    H223393   5.581   0.849   1.610  0.3202  0.8428 -1.8628
  660TIP3   OH223394   4.034   4.856   3.054  0.5469 -0.1461 -0.0351
  660TIP3    H123395   4.059   4.884   2.966 -1.0569  0.7340 -0.2394
  660TIP3    H223396   4.016   4.762   3.044 -1.3043  0.2573 -1.0981
  661TIP3   OH223397   1.616   5.685  17.379  0.0256 -0.5240  0.5171
  661TIP3    H123398   1.527   5.669  17.347  0.3515  1.4061 -1.6217
  661TIP3    H223399   1.613   5.772  17.418  1.0415 -0.3009  0.1274
  662TIP3   OH223400   3.130   4.668   4.973  0.7542  0.2067  0.1280
  662TIP3    H123401   3.170   4.654   4.887 -2.2038 -0.1825 -1.3037
  662TIP3    H223402   3.122   4.763   4.981 -1.0789  0.2161 -1.1825
  663TIP3   OH223403   1.578   0.054   4.635  0.4861 -0.9400 -0.0167
  663TIP3    H123404   1.610   0.120   4.697 -0.5778 -0.3662 -0.0489
  663TIP3    H223405   1.483   0.061   4.639  0.3661 -2.0594 -0.4899
  664TIP3   OH223406   3.764   3.353  12.727 -0.5933 -0.0194  0.4105
  664TIP3    H123407   3.777   3.329  12.635  0.2334  1.5678  0.0721
  664TIP3    H223408   3.851   3.374  12.759 -0.9727  0.1839  1.3472
  665TIP3   OH223409   2.157   6.704   2.363 -0.1815 -0.0454 -0.4439
  665TIP3    H123410   2.233   6.659   2.400 -0.7411  0.4745  1.5073
  665TIP3    H223411   2.154   6.677   2.272  2.2638 -0.1565 -0.5494
  666TIP3   OH223412   2.684   5.027   0.116  0.3363 -1.1236  0.1041
  666TIP3    H123413   2.732   5.004   0.195  0.1016  1.0209  0.9475
  666TIP3    H223414   2.742   5.087   0.069 -0.6931 -0.0428  0.1596
  667TIP3   OH223415   4.596   0.776   2.475  0.2527  0.9334  0.0106
  667TIP3    H123416   4.565   0.701   2.526  1.0098  0.3495 -0.3667
  667TIP3    H223417   4.656   0.738   2.411  1.0157  1.9213  0.1186
  668TIP3   OH223418   0.802   2.445   0.735  0.5330  1.0096 -0.3776
  668TIP3    H123419   0.895   2.428   0.720  0.2978 -0.5539 -0.2059
  668TIP3    H223420   0.792   2.442   0.830  0.5168  2.4798 -0.3078
  669TIP3   OH223421   4.825   5.209   2.494 -0.0964  0.2162  0.3014
  669TIP3    H123422   4.771   5.130   2.501  1.0319 -0.6685 -0.5961
  669TIP3    H223423   4.877   5.209   2.574  0.4688 -0.4031 -0.0562
  670TIP3   OH223424   5.572   4.844   4.306 -0.4506 -0.0751 -0.3507
  670TIP3    H123425   5.558   4.882   4.220 -0.2825  0.0850 -0.3080
  670TIP3    H223426   5.590   4.752   4.289  0.1814  0.0778 -0.5331
  671TIP3   OH223427   6.167   0.254   0.777  0.1697 -0.3684 -0.3913
  671TIP3    H123428   6.153   0.324   0.841  0.2736 -0.9519  0.2746
  671TIP3    H223429   6.214   0.297   0.705  0.9862  0.0718  0.3814
  672TIP3   OH223430   2.493   6.383  10.459 -0.1339  0.0645  0.0747
  672TIP3    H123431   2.401   6.404  10.474 -0.2419 -1.0793  1.1468
  672TIP3    H223432   2.529   6.462  10.418 -1.6104  0.4766 -0.5035
  673TIP3   OH223433   1.629   2.200   2.901 -0.0661  0.2102 -0.4173
  673TIP3    H123434   1.593   2.172   2.985 -0.2081  0.6084 -0.3466
  673TIP3    H223435   1.672   2.121   2.866 -3.0253 -1.0171 -1.6466
  674TIP3   OH223436   4.332   4.706  14.083 -0.2297  0.0885 -0.1916
  674TIP3    H123437   4.365   4.796  14.089 -0.9724  0.4460 -1.2054
  674TIP3    H223438   4.250   4.708  14.132 -0.2813 -0.0335 -0.2754
  675TIP3   OH223439   1.995   5.341   6.099  0.2307  0.5117 -0.3028
  675TIP3    H123440   1.947   5.259   6.110 -0.3050  0.9913  1.0402
  675TIP3    H223441   2.047   5.350   6.178  1.1893  0.9053 -0.9538
  676TIP3   OH223442   4.091   2.998   2.737 -0.5213 -0.0544  0.0996
  676TIP3    H123443   4.070   3.087   2.764 -1.1764 -0.2693  0.3020
  676TIP3    H223444   4.048   2.988   2.652  0.6538  0.2613 -0.5555
  677TIP3   OH223445   4.528   1.595   4.815 -0.0076  0.4659  0.3427
  677TIP3    H123446   4.545   1.501   4.809  1.9224  0.8824 -2.0268
  677TIP3    H223447   4.522   1.611   4.909 -1.0855 -2.1003  0.8081
  678TIP3   OH223448   6.154   6.246  16.255 -0.4665 -0.3377 -0.2480
  678TIP3    H123449   6.088   6.312  16.235 -0.1270 -0.0813 -0.5217
  678TIP3    H223450   6.139   6.176  16.191 -0.4820 -0.2855 -0.3013
  679TIP3   OH223451   5.299   0.475  12.815 -0.4498 -0.5161  0.5627
  679TIP3    H123452   5.320   0.399  12.761 -1.2176 -0.7006  0.5117
  679TIP3    H223453   5.243   0.441  12.884 -2.2720  0.2766 -0.4495
  680TIP3   OH223454   1.820   2.005  15.160 -0.5637  0.0770  0.5579
  680TIP3    H123455   1.866   2.081  15.195 -0.5633 -0.1360  1.0308
  680TIP3    H223456   1.887   1.956  15.112 -0.8183  0.9696 -0.7476
  681TIP3   OH223457   3.309   2.361   4.264  0.0962 -0.0152  0.2196
  681TIP3    H123458   3.236   2.300   4.271  0.3998 -0.4616 -0.4406
  681TIP3    H223459   3.382   2.309   4.230  0.6522  0.4806  0.6259
  682TIP3   OH223460   3.012   4.955  13.773 -0.2919  0.2344 -0.3083
  682TIP3    H123461   3.100   4.942  13.739  0.4439  1.4316  1.0215
  682TIP3    H223462   3.003   4.889  13.842  0.2195  1.1652  0.6771
  683TIP3   OH223463   6.551   5.521  11.858  0.5494  0.3094  0.0567
  683TIP3    H123464   6.643   5.520  11.832  0.1736  1.6647 -1.4600
  683TIP3    H223465   6.549   5.575  11.937  1.2656 -1.1825  1.1429
  684TIP3   OH223466   4.917   3.852  14.753  0.2916  0.0139 -0.0095
  684TIP3    H123467   4.916   3.948  14.745  0.7313  0.0307  0.1036
  684TIP3    H223468   4.976   3.835  14.827  1.6530 -0.4117 -1.1545
  685TIP3   OH223469   4.461   4.883   2.388  0.0970 -0.1704 -0.1877
  685TIP3    H123470   4.425   4.800   2.356 -0.1705 -0.6801  1.3369
  685TIP3    H223471   4.545   4.892   2.343  1.1680 -2.4046  1.1897
  686TIP3   OH223472   5.081   6.397  15.673 -0.3524  0.2361  1.0969
  686TIP3    H123473   5.044   6.475  15.631 -0.4118  0.1510  0.9904
  686TIP3    H223474   5.126   6.431  15.750 -0.2122  0.3988  0.9459
  687TIP3   OH223475   1.475   2.476   2.338 -0.1899  0.0235 -0.2971
  687TIP3    H123476   1.487   2.381   2.328  0.7087  0.0339  0.5737
  687TIP3    H223477   1.547   2.514   2.287 -0.5865  0.2443 -0.6958
  688TIP3   OH223478   5.359   0.418   3.124 -0.1368 -0.7292 -0.6618
  688TIP3    H123479   5.264   0.409   3.117 -0.2723 -0.3415  0.4701
  688TIP3    H223480   5.375   0.511   3.105 -0.0846 -0.5924  0.0376
  689TIP3   OH223481   4.300   1.609   6.049  0.6962  0.0452  0.5738
  689TIP3    H123482   4.240   1.682   6.032  0.6390 -0.3363 -1.0819
  689TIP3    H223483   4.301   1.600   6.144 -0.3480  1.3220  0.7374
  690TIP3   OH223484   2.032   5.027  10.947  0.1960 -0.1485 -0.7488
  690TIP3    H123485   1.966   5.013  11.015 -1.2672 -0.8961 -2.2499
  690TIP3    H223486   1.992   4.992  10.867  2.1633 -0.0252 -1.8546
  691TIP3   OH223487   6.213   1.283  12.820 -0.7048 -0.5716 -0.1364
  691TIP3    H123488   6.257   1.281  12.905  2.0548  0.2139 -1.4382
  691TIP3    H223489   6.160   1.362  12.823  0.9552  0.5723  0.1613
  692TIP3   OH223490   2.787   0.630  13.441  0.1127  0.5506  0.0540
  692TIP3    H123491   2.824   0.611  13.528 -0.4628  1.1314  0.4354
  692TIP3    H223492   2.726   0.702  13.456 -1.7025 -0.7986 -0.4065
  693TIP3   OH223493   6.493   2.002  10.502 -0.1719 -0.0811  0.9453
  693TIP3    H123494   6.542   2.049  10.569 -1.3287  1.1895  0.9524
  693TIP3    H223495   6.526   2.037  10.419 -1.3739  1.1752  0.9585
  694TIP3   OH223496   2.736   4.998   3.579 -0.1187 -0.4470  0.4237
  694TIP3    H123497   2.799   4.928   3.592  0.4803 -0.0627 -0.3368
  694TIP3    H223498   2.651   4.957   3.596  0.3368 -0.8957  1.7224
  695TIP3   OH223499   6.753   2.134   1.846  0.1774 -0.5507  0.1522
  695TIP3    H123500   6.724   2.046   1.822 -0.9695  0.1173 -1.0478
  695TIP3    H223501   6.848   2.133   1.832  0.1656 -1.5774  0.0917
  696TIP3   OH223502   4.052   1.804   5.513  0.3827 -0.4207 -0.5715
  696TIP3    H123503   4.055   1.709   5.528  1.3852 -0.3085  0.0385
  696TIP3    H223504   4.134   1.836   5.549  0.0120  0.7032 -0.6990
  697TIP3   OH223505   0.258   2.706  15.541 -0.8401 -0.1197 -0.3835
  697TIP3    H123506   0.271   2.621  15.583  0.4147  0.2548  0.0327
  697TIP3    H223507   0.183   2.693  15.482 -1.5731 -1.1180  0.7149
  698TIP3   OH223508   5.408   0.813   6.111  0.0369  0.0149 -0.2148
  698TIP3    H123509   5.344   0.799   6.042  0.4246  0.3235 -0.6395
  698TIP3    H223510   5.358   0.851   6.183 -0.8036 -2.2740  0.5087
  699TIP3   OH223511   2.962   0.717   0.045 -0.0855 -0.2092 -0.3357
  699TIP3    H123512   3.021   0.709  -0.030 -0.2163  0.3780 -0.5090
  699TIP3    H223513   2.909   0.638   0.043  2.1477 -1.8559  1.1158
  700TIP3   OH223514   0.327   1.365   1.074 -0.1694 -0.0598  0.3950
  700TIP3    H123515   0.239   1.366   1.112  0.1325 -0.1137  1.1064
  700TIP3    H223516   0.385   1.349   1.148  0.6545  2.4666  0.4044
  701TIP3   OH223517   3.979   4.551   4.255 -0.5387  0.1935 -0.3140
  701TIP3    H123518   3.995   4.511   4.341  0.6992 -0.3588 -0.7821
  701TIP3    H223519   3.908   4.613   4.271 -0.0065  0.4644  1.2214
  702TIP3   OH223520   3.696   0.686  14.863 -0.0163  0.2759 -0.0221
  702TIP3    H123521   3.697   0.781  14.877  0.5571  0.2331  0.2293
  702TIP3    H223522   3.662   0.676  14.774 -1.2141  0.6565  0.3707
  703TIP3   OH223523   3.529   4.023   2.091  0.1154 -0.2802  0.2227
  703TIP3    H123524   3.467   4.087   2.126 -0.2502 -0.7448  0.4425
  703TIP3    H223525   3.475   3.950   2.061  0.5614 -0.8006  0.6420
  704TIP3   OH223526   5.199   5.931   1.361  0.7643 -0.0330  0.2059
  704TIP3    H123527   5.201   5.954   1.454  1.0506 -1.1810  0.4975
  704TIP3    H223528   5.285   5.893   1.344  0.2953 -0.9118 -0.2367
  705TIP3   OH223529   1.035   6.446  12.696 -0.3066 -0.1616  0.0559
  705TIP3    H123530   0.946   6.430  12.663 -0.8811 -1.5878  2.1162
  705TIP3    H223531   1.026   6.448  12.791  1.7018  0.9704  0.2777
  706TIP3   OH223532   1.013   0.335   6.505  0.1630  0.2211  0.2347
  706TIP3    H123533   1.063   0.255   6.485 -2.8233 -1.4599 -1.0595
  706TIP3    H223534   1.012   0.384   6.423  0.4689  0.7516  0.5380
  707TIP3   OH223535   0.963   6.021   1.411 -0.2626  0.1111  0.3599
  707TIP3    H123536   0.961   5.935   1.452 -3.2026  0.3436  0.9429
  707TIP3    H223537   0.974   6.082   1.484 -1.2069  0.3240  0.3435
  708TIP3   OH223538   5.637   0.712  16.237 -0.1354 -0.0584 -0.6845
  708TIP3    H123539   5.685   0.639  16.276 -0.8152  0.9799  2.3931
  708TIP3    H223540   5.704   0.773  16.208  0.4293 -1.6288 -2.8737
  709TIP3   OH223541   5.343   5.081   4.398 -0.2989  0.5088 -0.2022
  709TIP3    H123542   5.430   5.116   4.377 -0.7875  1.0327 -1.3707
  709TIP3    H223543   5.342   4.994   4.359  0.5275 -0.4853  1.8132
  710TIP3   OH223544   6.549   0.906   0.114  0.1449 -0.4650 -0.0004
  710TIP3    H123545   6.632   0.956   0.113  2.1111 -3.3826  2.1337
  710TIP3    H223546   6.489   0.962   0.164  1.0450  1.3201 -0.7880
  711TIP3   OH223547   5.311   5.954   4.676 -0.0370  0.7690 -0.5369
  711TIP3    H123548   5.405   5.940   4.687 -0.5469 -1.4954  1.7956
  711TIP3    H223549   5.305   6.031   4.619  3.2352  2.3740  1.0058
  712TIP3   OH223550   4.627   0.210  14.116  0.2602  0.0928 -0.4784
  712TIP3    H123551   4.714   0.229  14.080  0.7206 -0.2048  0.4361
  712TIP3    H223552   4.576   0.289  14.100  1.6176  1.5062  1.7173
  713TIP3   OH223553   3.634   1.024  12.514  0.5798  0.0589  0.2661
  713TIP3    H123554   3.547   0.999  12.545  0.3566  0.4806  0.0041
  713TIP3    H223555   3.643   1.116  12.541  1.3088 -0.2361  1.0664
  714TIP3   OH223556   0.387   1.318  13.878  0.1074 -0.4931  0.2134
  714TIP3    H123557   0.309   1.373  13.869 -0.9758 -2.1009 -0.7566
  714TIP3    H223558   0.355   1.236  13.915  1.2580 -1.3342 -0.5757
  715TIP3   OH223559   1.067   2.131  12.090 -0.3229  0.2494  0.3346
  715TIP3    H123560   0.983   2.140  12.045  0.5023  3.5245 -0.8164
  715TIP3    H223561   1.061   2.191  12.164  1.6818  2.2716 -1.0201
  716TIP3   OH223562   4.569   5.255   6.178 -0.5426  0.3318 -0.1460
  716TIP3    H123563   4.656   5.296   6.174 -0.3318  0.0220  0.9879
  716TIP3    H223564   4.586   5.166   6.208 -1.0986 -0.3037 -1.6483
  717TIP3   OH223565   0.552   5.075   0.880 -0.4027 -0.4833 -0.3940
  717TIP3    H123566   0.509   5.140   0.823 -0.7747 -0.9640 -0.6719
  717TIP3    H223567   0.599   5.128   0.945  0.2769  0.0882 -1.3195
  718TIP3   OH223568   3.973   1.248  13.305  0.8234 -0.1834  0.2898
  718TIP3    H123569   4.014   1.177  13.255 -0.0242 -0.6279  0.2125
  718TIP3    H223570   3.989   1.326  13.253  0.0528 -0.6223 -0.6258
  719TIP3   OH223571   4.194   2.631  12.111 -0.0097 -0.2817  0.0676
  719TIP3    H123572   4.278   2.671  12.089  0.0044 -0.4187 -0.1296
  719TIP3    H223573   4.199   2.542  12.076 -0.4899 -0.0775 -0.5442
  720TIP3   OH223574   0.120   2.883  10.673 -0.2462 -0.4465 -0.3503
  720TIP3    H123575   0.082   2.877  10.761  0.0541  1.7369 -0.0173
  720TIP3    H223576   0.047   2.904  10.616  0.0340  1.4448 -0.0683
  721TIP3   OH223577   3.310   1.617  11.926 -0.5686 -0.1904  0.7509
  721TIP3    H123578   3.312   1.711  11.908  0.2680 -0.3622 -0.1853
  721TIP3    H223579   3.374   1.580  11.865  0.1906 -1.2055  2.1198
  722TIP3   OH223580   5.112   5.625  12.454 -0.2048 -0.5263  0.2038
  722TIP3    H123581   5.103   5.584  12.540  1.2385  0.6913  0.9846
  722TIP3    H223582   5.205   5.646  12.447 -0.2916 -0.6223 -1.6920
  723TIP3   OH223583   2.206   1.419  14.022  0.1695 -0.4377 -0.2637
  723TIP3    H123584   2.258   1.427  13.941 -0.3326 -0.3567 -0.5846
  723TIP3    H223585   2.264   1.373  14.083  1.0787  0.7459 -0.2011
  724TIP3   OH223586   4.415   2.439   0.396 -0.3450 -0.0042  0.2738
  724TIP3    H123587   4.447   2.528   0.414  1.8058 -0.8629  0.9362
  724TIP3    H223588   4.327   2.438   0.433 -0.7581  2.0839 -0.4711
  725TIP3   OH223589   2.983   1.259   3.933 -0.5964  0.2402  0.5057
  725TIP3    H123590   3.004   1.183   3.987  1.9138  1.1977  0.9989
  725TIP3    H223591   2.939   1.320   3.992  1.3259  0.9108  1.3200
  726TIP3   OH223592   2.462   4.815  13.552  0.0350 -0.0163  0.2621
  726TIP3    H123593   2.409   4.835  13.629 -0.4230 -1.8915  0.4772
  726TIP3    H223594   2.551   4.804  13.585 -0.1794 -0.9238  0.5780
  727TIP3   OH223595   6.026   4.471  11.087 -0.3317 -0.0123  0.2441
  727TIP3    H123596   6.070   4.507  11.011 -0.6794  0.2830  0.1784
  727TIP3    H223597   6.080   4.397  11.114 -1.2393 -1.3983 -1.4955
  728TIP3   OH223598   5.719   0.281   4.010  0.4507 -0.7379 -0.4803
  728TIP3    H123599   5.777   0.212   3.978  0.0859 -0.4366 -1.8472
  728TIP3    H223600   5.688   0.249   4.095  2.0630 -1.2090 -0.0278
  729TIP3   OH223601   0.573   0.015   6.360 -0.1705 -0.8595 -0.2855
  729TIP3    H123602   0.551   0.102   6.395 -2.6919 -1.6455  0.3228
  729TIP3    H223603   0.509   0.001   6.290 -0.6234 -2.7136  0.4541
  730TIP3   OH223604   2.044   0.227   3.309  0.3311 -0.3728 -0.6752
  730TIP3    H123605   1.958   0.200   3.341  0.1722  1.6209  0.7812
  730TIP3    H223606   2.030   0.247   3.216 -1.2038  1.4263 -0.1066
  731TIP3   OH223607   2.849   5.369   2.453  0.2142 -0.0166 -0.3215
  731TIP3    H123608   2.762   5.378   2.492 -0.0890 -1.7178 -0.5209
  731TIP3    H223609   2.865   5.275   2.452  2.1834  0.2739 -0.0588
  732TIP3   OH223610   4.327   4.497   5.456  0.4254 -0.4401  0.3742
  732TIP3    H123611   4.410   4.539   5.436  0.5561  0.4660  2.5991
  732TIP3    H223612   4.266   4.531   5.390  1.9815 -1.9885 -2.0201
  733TIP3   OH223613   3.388   5.636  12.152  0.2623  0.2317 -0.4204
  733TIP3    H123614   3.411   5.543  12.148 -0.7379 -0.0120 -0.8217
  733TIP3    H223615   3.466   5.682  12.122  0.6042 -0.5106 -0.6802
  734TIP3   OH223616   3.893   0.569   3.252 -0.2307 -0.2607  0.2443
  734TIP3    H123617   3.940   0.602   3.175  0.5704 -1.9226 -0.0325
  734TIP3    H223618   3.921   0.626   3.324  1.4247 -0.5507 -0.1238
  735TIP3   OH223619   5.370   5.449  14.825  0.4226 -0.5920 -0.1965
  735TIP3    H123620   5.411   5.490  14.749 -2.3890  2.1693 -0.4139
  735TIP3    H223621   5.327   5.522  14.871 -0.0719 -2.5382  2.6917
  736TIP3   OH223622   0.871   1.123   2.191  0.0050  0.1814  0.2781
  736TIP3    H123623   0.929   1.131   2.115 -0.2144  0.1494  0.1040
  736TIP3    H223624   0.797   1.180   2.171 -0.4690 -0.4940  0.0688
  737TIP3   OH223625   4.250   5.402   5.202  0.4796  0.0234  0.2424
  737TIP3    H123626   4.231   5.400   5.296 -2.0226 -0.6202 -0.1973
  737TIP3    H223627   4.269   5.312   5.180  0.9120  0.1486  0.1106
  738TIP3   OH223628   0.264   3.556   6.032 -0.2325 -0.0628  0.1642
  738TIP3    H123629   0.352   3.534   6.001  0.3075  2.4107 -0.2990
  738TIP3    H223630   0.221   3.472   6.045  0.7476 -1.3947 -3.7605
  739TIP3   OH223631   5.616   0.248  11.437 -0.0017 -0.3042 -0.2511
  739TIP3    H123632   5.611   0.233  11.531  1.7897 -1.4444 -0.2933
  739TIP3    H223633   5.556   0.183  11.399 -4.1339  2.8838  0.1540
  740TIP3   OH223634   5.094   4.709  16.408 -0.1860 -0.9346 -0.0061
  740TIP3    H123635   5.100   4.665  16.493 -0.8310 -1.1523 -0.0688
  740TIP3    H223636   5.053   4.793  16.428 -3.5004 -2.2573 -0.4816
  741TIP3   OH223637   5.391   0.001   3.804  0.1379 -0.5847 -0.0566
  741TIP3    H123638   5.418   0.040   3.887  0.0539  0.7942 -0.6526
  741TIP3    H223639   5.299  -0.023   3.818 -0.5337  1.5488 -0.3517
  742TIP3   OH223640   2.514   4.897   3.680 -0.7734  0.2929  0.3887
  742TIP3    H123641   2.445   4.838   3.650  0.0208 -0.0468 -0.8222
  742TIP3    H223642   2.545   4.857   3.761 -1.3690 -0.0524  0.4549
  743TIP3   OH223643   2.735   0.235   1.079 -0.2348  0.0649 -0.9062
  743TIP3    H123644   2.747   0.142   1.100  0.0158  0.4021  0.5128
  743TIP3    H223645   2.791   0.282   1.141 -0.2746  1.1697 -1.6777
  744TIP3   OH223646   2.620   5.892  13.523  1.2160 -0.3104 -0.0692
  744TIP3    H123647   2.650   5.807  13.556 -1.5199 -1.5596 -0.4704
  744TIP3    H223648   2.577   5.872  13.440 -2.4166  0.7842  1.3273
  745TIP3   OH223649   6.461   0.273   1.192  0.0683 -0.5792  0.4720
  745TIP3    H123650   6.406   0.303   1.119 -0.6116 -0.4420  1.0278
  745TIP3    H223651   6.469   0.178   1.178  0.3027 -0.4906 -0.0169
  746TIP3   OH223652   5.159   3.217  12.723 -0.1856 -0.1123 -0.6791
  746TIP3    H123653   5.129   3.127  12.737  0.8314 -0.2726  0.6104
  746TIP3    H223654   5.227   3.209  12.656  0.6693 -0.4704  0.2114
  747TIP3   OH223655   5.461   5.858   1.265 -0.4429  0.0574  0.0819
  747TIP3    H123656   5.532   5.916   1.236 -2.1648  1.0418 -2.5534
  747TIP3    H223657   5.467   5.782   1.208 -1.3931  0.0850 -0.0679
  748TIP3   OH223658   2.814   5.188  11.265  0.0410  0.3210  0.6670
  748TIP3    H123659   2.819   5.123  11.335  0.2375  1.0511  1.3436
  748TIP3    H223660   2.857   5.146  11.191 -0.0526 -0.4184  1.0157
  749TIP3   OH223661   3.171   0.401   3.846  0.2264 -0.6546  0.3441
  749TIP3    H123662   3.121   0.483   3.854  0.2201 -0.7001  0.7862
  749TIP3    H223663   3.136   0.360   3.767 -0.1334 -0.4741  0.4038
  750TIP3   OH223664   2.807   4.748  12.988  0.1179 -0.1152 -0.2968
  750TIP3    H123665   2.814   4.844  12.985 -0.6438 -0.0115  0.6405
  750TIP3    H223666   2.896   4.717  12.971  1.1612  0.8778  2.6824
  751TIP3   OH223667   6.336   2.361  17.184  0.0361  0.0798 -0.2832
  751TIP3    H123668   6.242   2.348  17.174 -0.2851  1.0565  1.0383
  751TIP3    H223669   6.370   2.276  17.211 -0.2102 -0.6362 -2.0812
  752TIP3   OH223670   3.665   6.330   0.089  0.2163  0.1511  0.6326
  752TIP3    H123671   3.609   6.275   0.145 -0.5918  1.1609  0.8328
  752TIP3    H223672   3.641   6.306  -0.000  0.8851 -0.8361  0.7039
  753TIP3   OH223673   6.258   0.120   2.683 -0.1262 -0.3588  0.4734
  753TIP3    H123674   6.342   0.083   2.656  0.2474  0.5420  0.3488
  753TIP3    H223675   6.192   0.060   2.647  0.3875  0.0990 -1.3626
  754TIP3   OH223676   0.007   0.253  14.003 -0.0609  0.6883 -0.5450
  754TIP3    H123677   0.020   0.168  13.961 -1.3463  1.0388 -1.7226
  754TIP3    H223678   0.067   0.311  13.957  1.0834  0.3712  0.5041
  755TIP3   OH223679   4.169   0.503   4.293 -0.3990 -0.0098 -0.3903
  755TIP3    H123680   4.244   0.485   4.238 -0.9257 -2.2374 -0.4687
  755TIP3    H223681   4.184   0.591   4.327  1.6392  0.0414 -1.3261
  756TIP3   OH223682   1.172   6.173  13.961 -0.0666  0.1347 -0.5946
  756TIP3    H123683   1.089   6.136  13.931 -0.4859  1.1098 -0.6624
  756TIP3    H223684   1.216   6.100  14.004 -0.7726 -0.5040 -0.9240
  757TIP3   OH223685   4.491   5.307   0.523  0.1972  0.0699  0.0863
  757TIP3    H123686   4.542   5.262   0.590 -0.1509  0.4932  0.6474
  757TIP3    H223687   4.550   5.373   0.488  0.7269 -0.8355 -0.7764
  758TIP3   OH223688   1.813   2.550   3.673  0.0350 -0.0320 -0.2523
  758TIP3    H123689   1.802   2.639   3.708 -0.0024  0.4300 -1.4053
  758TIP3    H223690   1.907   2.543   3.656 -0.1693  0.3710 -1.6328
  759TIP3   OH223691   0.018   0.137  12.200 -0.0988 -0.3238 -0.3006
  759TIP3    H123692  -0.041   0.124  12.126 -0.1719  2.5430 -0.8375
  759TIP3    H223693   0.105   0.121  12.164 -0.1182  1.2488 -1.1295
  760TIP3   OH223694   0.316   1.379   5.327  0.2037  0.1706  0.0541
  760TIP3    H123695   0.304   1.470   5.300  0.0455  0.1254 -0.0288
  760TIP3    H223696   0.351   1.335   5.250 -0.9237 -0.1121 -0.3061
  761TIP3   OH223697   5.450   2.588   5.051  0.1454 -0.1813  0.1163
  761TIP3    H123698   5.454   2.682   5.064 -2.7426  0.2519 -1.2690
  761TIP3    H223699   5.411   2.554   5.132 -2.6143  0.4432 -0.8219
  762TIP3   OH223700   0.880   4.496  14.249  0.5924 -0.4815  0.5077
  762TIP3    H123701   0.819   4.496  14.175 -2.7563 -1.9511  3.0102
  762TIP3    H223702   0.938   4.422  14.232 -0.8560 -1.5096 -0.1694
  763TIP3   OH223703   5.598   6.273  14.767  0.2083  0.0314  0.4822
  763TIP3    H123704   5.654   6.338  14.727 -1.2612  2.0850  1.5785
  763TIP3    H223705   5.510   6.293  14.733  0.0259 -3.2856 -1.4600
  764TIP3   OH223706   3.413   3.365   1.192  0.0444  0.0669 -0.9640
  764TIP3    H123707   3.465   3.333   1.118  0.8342 -0.9495 -0.0029
  764TIP3    H223708   3.400   3.458   1.174 -0.6121 -0.3468 -2.8485
  765TIP3   OH223709   0.482   5.311   1.690  0.3758  0.0756 -0.0642
  765TIP3    H123710   0.456   5.328   1.599  0.7596  0.5302 -0.0894
  765TIP3    H223711   0.400   5.293   1.735 -0.0598  1.9076 -0.0449
  766TIP3   OH223712   4.600   1.056   0.853 -0.4340 -0.3885 -0.2793
  766TIP3    H123713   4.564   0.975   0.819  0.7367 -1.6709  1.3567
  766TIP3    H223714   4.664   1.028   0.919 -0.4233  1.8696  0.7664
  767TIP3   OH223715   2.476   2.568  17.341  0.0223  0.2820  0.0499
  767TIP3    H123716   2.555   2.535  17.297 -0.0561  0.5188 -0.2725
  767TIP3    H223717   2.410   2.572  17.272 -0.3990 -0.3277  0.4113
  768TIP3   OH223718   4.207   0.773  16.294 -0.5076 -0.1990 -0.1590
  768TIP3    H123719   4.253   0.849  16.259 -1.8115  0.9594  0.4991
  768TIP3    H223720   4.269   0.701  16.286  1.1554  1.1311  0.1006
  769TIP3   OH223721   3.113   4.913  12.986  0.1402 -0.3446  0.1692
  769TIP3    H123722   3.070   4.917  12.900 -0.2525  1.0935  0.3925
  769TIP3    H223723   3.108   4.821  13.011 -0.4970 -0.6470 -0.9726
  770TIP3   OH223724   0.427   3.320  12.910  0.2282  0.3817 -0.5768
  770TIP3    H123725   0.480   3.246  12.939  0.0050 -0.0148 -1.1622
  770TIP3    H223726   0.427   3.380  12.984  1.4457  0.3651 -0.5413
  771TIP3   OH223727   4.917   6.131  14.272  0.1442  0.0661  0.2382
  771TIP3    H123728   4.864   6.210  14.277  2.2114  1.4481  1.4265
  771TIP3    H223729   5.005   6.159  14.293  1.2717 -2.2829 -0.9330
  772TIP3   OH223730   6.087   0.567   2.225 -0.7435  0.1402 -0.6925
  772TIP3    H123731   6.031   0.494   2.252  0.3122 -1.6456 -2.9675
  772TIP3    H223732   6.043   0.604   2.149 -0.6221  1.0889 -0.3171
  773TIP3   OH223733   0.473   0.723   3.196  0.0959 -0.2786  0.4111
  773TIP3    H123734   0.492   0.756   3.284 -1.0852 -1.9539  1.3687
  773TIP3    H223735   0.539   0.656   3.181  0.6549  0.4063 -0.2567
  774TIP3   OH223736   2.266   3.731   1.331 -0.0853 -0.4754 -0.6114
  774TIP3    H123737   2.345   3.785   1.328  0.1006 -0.7729 -1.3338
  774TIP3    H223738   2.291   3.650   1.287 -0.1305 -1.4719  1.1118
  775TIP3   OH223739   4.265   2.481   5.312  0.3048  0.1964 -0.3450
  775TIP3    H123740   4.239   2.570   5.334  0.6588 -0.3360  2.6311
  775TIP3    H223741   4.183   2.435   5.295 -0.3682  0.0998  2.5751
  776TIP3   OH223742   1.890   2.257  12.659 -0.7236 -0.0085  0.1875
  776TIP3    H123743   1.879   2.226  12.749  0.3791  0.1972  0.4109
  776TIP3    H223744   1.964   2.207  12.625 -0.1680  0.9822 -0.1007
  777TIP3   OH223745   0.666   5.211   0.613 -0.3694  0.3334  0.1506
  777TIP3    H123746   0.625   5.289   0.651  1.1431  1.3468 -0.1797
  777TIP3    H223747   0.731   5.246   0.551  1.8471 -1.1045  1.5066
  778TIP3   OH223748   0.206   3.627   4.288  0.3241  0.9881 -0.3557
  778TIP3    H123749   0.133   3.572   4.260  0.8695 -0.8529  1.5606
  778TIP3    H223750   0.166   3.710   4.313 -0.8976  0.5745 -0.8634
  779TIP3   OH223751   5.546   0.874  13.805  0.3059  0.2473 -0.0678
  779TIP3    H123752   5.509   0.907  13.723 -0.7570  1.1750  0.7433
  779TIP3    H223753   5.639   0.894  13.799  0.3342 -0.2049 -1.2808
  780TIP3   OH223754   1.383   3.433   4.269 -0.1807 -0.2956  0.0776
  780TIP3    H123755   1.395   3.345   4.233  0.1013  0.1568 -0.9845
  780TIP3    H223756   1.291   3.454   4.253 -0.3327 -0.5247  0.6388
  781TIP3   OH223757   4.227   3.328  12.836 -0.1941 -0.2534 -0.1708
  781TIP3    H123758   4.287   3.256  12.815 -0.9643 -1.1195  0.5069
  781TIP3    H223759   4.172   3.293  12.906  0.0361  1.3350  0.8499
  782TIP3   OH223760   3.702   3.891   5.375  0.1488 -0.0320 -0.3016
  782TIP3    H123761   3.706   3.799   5.401 -0.3227 -0.3209 -1.2139
  782TIP3    H223762   3.689   3.889   5.280  0.3084  0.9764 -0.3567
  783TIP3   OH223763   2.013   4.467  11.143  0.0108 -0.0042 -0.0580
  783TIP3    H123764   2.031   4.374  11.128 -2.9120 -0.7833  0.6057
  783TIP3    H223765   1.989   4.501  11.057 -0.1487 -0.2018 -0.0925
  784TIP3   OH223766   3.827   0.347   3.055 -0.0793 -0.1760 -0.3253
  784TIP3    H123767   3.877   0.419   3.092 -0.7925  0.7240 -1.0672
  784TIP3    H223768   3.893   0.287   3.020  0.5381  1.6414 -2.5234
  785TIP3   OH223769   0.110   0.020  13.909  0.0744  0.5316 -0.1173
  785TIP3    H123770   0.086  -0.070  13.886 -0.1984  0.4772  0.3524
  785TIP3    H223771   0.195   0.034  13.868  0.6435 -0.3217  0.7210
  786TIP3   OH223772   6.326   1.639   6.621 -0.2405  0.5033  0.0668
  786TIP3    H123773   6.369   1.575   6.564  1.5266  0.7357  1.0830
  786TIP3    H223774   6.397   1.685   6.665 -1.5151  0.3660  2.4636
  787TIP3   OH223775   5.631   2.618   0.462 -0.3575 -0.2834 -0.2703
  787TIP3    H123776   5.558   2.615   0.400  0.5093 -2.4416 -1.2605
  787TIP3    H223777   5.674   2.702   0.444 -0.5916 -0.5072 -2.0648
  788TIP3   OH223778   1.301   4.702  16.594 -0.6787 -0.0399 -0.5564
  788TIP3    H123779   1.366   4.770  16.612 -1.1893  0.2890  0.1043
  788TIP3    H223780   1.221   4.751  16.572 -1.2400 -0.4056  0.6037
  789TIP3   OH223781   3.247   0.416   4.095 -0.5338  0.0313  0.1277
  789TIP3    H123782   3.232   0.381   4.007 -0.5001  0.2568  0.0307
  789TIP3    H223783   3.163   0.457   4.119 -0.1203  1.2466 -0.3928
  790TIP3   OH223784   1.449   0.678   2.437 -0.2748 -0.4230  0.4025
  790TIP3    H123785   1.503   0.722   2.372  0.4192 -1.8816 -0.0415
  790TIP3    H223786   1.477   0.587   2.435 -3.5880 -1.5506 -0.7352
  791TIP3   OH223787   1.737   0.877  15.218  0.0599 -0.2804  0.3045
  791TIP3    H123788   1.706   0.874  15.127  0.2194 -1.5471  0.2782
  791TIP3    H223789   1.809   0.814  15.221  0.2841  0.0080  1.2325
  792TIP3   OH223790   0.283   2.357  15.898  0.2255  0.2773  0.0450
  792TIP3    H123791   0.295   2.281  15.841  1.6966  0.0528  0.6158
  792TIP3    H223792   0.199   2.394  15.871  0.1233 -0.7631 -1.1547
  793TIP3   OH223793   0.449   4.585   2.151 -0.3176  0.3746  0.6625
  793TIP3    H123794   0.360   4.573   2.119  0.0812 -0.6835 -0.1051
  793TIP3    H223795   0.490   4.643   2.086  0.0710 -0.6233 -0.0154
  794TIP3   OH223796   0.269   0.203  17.399 -0.3588  0.1955 -0.0528
  794TIP3    H123797   0.336   0.150  17.354  0.5792  1.8141 -0.6783
  794TIP3    H223798   0.318   0.251  17.466 -0.9783  0.9563 -0.1246
  795TIP3   OH223799   5.786   5.528   3.478 -0.3938  0.2014 -0.1096
  795TIP3    H123800   5.745   5.450   3.516 -0.2068 -0.4119 -1.1360
  795TIP3    H223801   5.726   5.599   3.499 -0.4664 -0.1712  1.0286
  796TIP3   OH223802   1.983   3.119   5.417 -0.3367  0.2764  0.5314
  796TIP3    H123803   1.926   3.196   5.409 -0.3680  0.1863 -0.1949
  796TIP3    H223804   2.070   3.151   5.394 -0.2134  0.2589  0.9652
  797TIP3   OH223805   4.056   1.495   4.228  0.6725  0.0205 -0.2886
  797TIP3    H123806   4.047   1.573   4.173 -2.5383 -1.5036 -2.2774
  797TIP3    H223807   3.995   1.510   4.300  0.7359 -0.2554 -0.1762
  798TIP3   OH223808   1.672   6.580  10.867 -0.0540 -0.1705  0.4006
  798TIP3    H123809   1.652   6.674  10.868  0.1035 -0.1363  0.3031
  798TIP3    H223810   1.681   6.558  10.774  1.1250 -0.0276  0.4674
  799TIP3   OH223811   0.740   5.801  15.085 -0.1369 -0.0602  0.1947
  799TIP3    H123812   0.708   5.834  15.170  0.1914 -1.7851  1.0265
  799TIP3    H223813   0.723   5.707  15.088 -0.0017 -0.1725 -1.6327
  800TIP3   OH223814   2.003   0.282   4.353  0.3821  0.4188  0.2585
  800TIP3    H123815   1.952   0.223   4.409 -0.0270 -0.6874 -1.2149
  800TIP3    H223816   1.946   0.300   4.279  0.6298  2.4658  0.5141
  801TIP3   OH223817   5.393   6.573   2.722 -0.3223 -0.2917  0.2735
  801TIP3    H123818   5.399   6.606   2.812 -2.3305  0.9283  0.0339
  801TIP3    H223819   5.483   6.573   2.690  0.2471  0.8333  1.7557
  802TIP3   OH223820   2.101   6.651  14.347 -0.4738 -0.6901  0.7436
  802TIP3    H123821   2.159   6.725  14.332 -1.7125  0.2909  0.6028
  802TIP3    H223822   2.015   6.681  14.317 -1.5802 -1.2116  3.0782
  803TIP3   OH223823   6.157   2.270   0.075 -0.5207 -0.0008 -0.3992
  803TIP3    H123824   6.224   2.208   0.048  0.4558  0.9083 -0.1118
  803TIP3    H223825   6.114   2.228   0.150  1.2743  0.3806  0.8953
  804TIP3   OH223826   4.322   0.134  10.856 -0.7882  0.1571 -0.4820
  804TIP3    H123827   4.261   0.063  10.833 -0.1870 -0.1367 -1.2002
  804TIP3    H223828   4.337   0.122  10.950 -1.7622  0.1813 -0.3094
  805TIP3   OH223829   4.254   2.588  15.827 -0.3031 -0.2728  0.3591
  805TIP3    H123830   4.314   2.599  15.754  2.1420  1.8875  2.5401
  805TIP3    H223831   4.276   2.502  15.864 -0.0751 -0.4199 -0.1178
  806TIP3   OH223832   6.402   6.260  11.397  0.1775 -0.0456  0.6866
  806TIP3    H123833   6.307   6.271  11.395  0.2206  0.2989  0.3872
  806TIP3    H223834   6.433   6.306  11.319  0.7190  1.3067  1.6415
  807TIP3   OH223835   3.860   1.713  15.578  0.3116 -0.5464 -0.3371
  807TIP3    H123836   3.846   1.624  15.612  0.5050  0.1282  1.5981
  807TIP3    H223837   3.824   1.710  15.489 -1.2239 -2.1013  0.2781
  808TIP3   OH223838   0.435   2.379   1.348  0.2390  0.2876 -0.1623
  808TIP3    H123839   0.471   2.292   1.365 -1.6676 -0.4493  0.3770
  808TIP3    H223840   0.352   2.362   1.304 -0.8797  1.7639  1.2622
  809TIP3   OH223841   2.404   2.230   5.145 -0.1997  0.6562 -0.1423
  809TIP3    H123842   2.395   2.275   5.061  1.4756  1.0292 -0.1631
  809TIP3    H223843   2.488   2.261   5.180 -1.1113  0.9435  1.9366
  810TIP3   OH223844   6.538   4.012  17.388 -0.4369 -0.5298 -0.0804
  810TIP3    H123845   6.584   3.935  17.421  0.1139 -0.0105  0.3891
  810TIP3    H223846   6.604   4.059  17.337 -0.8341 -0.4842 -0.5550
  811TIP3   OH223847   4.148   6.245  13.742  0.2138 -0.0896 -0.4912
  811TIP3    H123848   4.128   6.231  13.834 -0.1233 -0.2953 -0.5926
  811TIP3    H223849   4.227   6.193  13.727  3.8044  4.2807  1.0289
  812TIP3   OH223850   2.300   1.315   0.555 -0.4441 -0.1567 -0.4305
  812TIP3    H123851   2.225   1.261   0.576  0.1911 -0.8086  0.1906
  812TIP3    H223852   2.267   1.405   0.558 -1.3112 -0.4601 -0.6818
  813TIP3   OH223853   5.554   5.705   3.516  0.4374  0.3408  0.2456
  813TIP3    H123854   5.499   5.642   3.468  0.0557  0.7415  0.1493
  813TIP3    H223855   5.497   5.737   3.586  1.2689 -0.9388  1.5917
  814TIP3   OH223856   5.996   2.636   5.455 -0.0255  0.2743 -0.3275
  814TIP3    H123857   6.017   2.549   5.420 -1.1523 -1.3153  2.5574
  814TIP3    H223858   6.058   2.648   5.527 -1.2853  0.8074  0.7162
  815TIP3   OH223859   3.479   0.160   4.806 -0.2537  0.3904 -0.4405
  815TIP3    H123860   3.543   0.225   4.780 -0.5283  0.3648 -1.2334
  815TIP3    H223861   3.407   0.172   4.744 -0.5951 -0.2149 -0.1705
  816TIP3   OH223862   6.490   4.866   4.262 -0.3849  0.0743  0.6365
  816TIP3    H123863   6.411   4.886   4.213  1.2612 -0.5702 -2.5509
  816TIP3    H223864   6.503   4.772   4.251  1.4703  0.3631 -0.1407
  817TIP3   OH223865   4.111   4.494   1.491  0.3686 -0.0866 -0.4697
  817TIP3    H123866   4.165   4.416   1.504  1.0613  0.5708  0.7442
  817TIP3    H223867   4.062   4.503   1.572 -0.0262  0.4975 -0.7666
  818TIP3   OH223868   5.622   6.559  16.282  0.0292  0.2167 -0.0242
  818TIP3    H123869   5.571   6.569  16.362  0.2916 -1.7276  0.4457
  818TIP3    H223870   5.579   6.486  16.236  1.3882 -0.3793 -0.3915
  819TIP3   OH223871   1.327   3.780   6.117 -0.2074 -0.4172 -0.6739
  819TIP3    H123872   1.272   3.704   6.095  0.1341 -1.1096  0.7496
  819TIP3    H223873   1.328   3.781   6.213 -0.9058  1.9151 -0.6365
  820TIP3   OH223874   1.228   4.311   5.171  0.0074  0.1997  0.4950
  820TIP3    H123875   1.207   4.287   5.081  1.1375 -1.6056  0.6668
  820TIP3    H223876   1.303   4.369   5.164 -0.9687  1.4647  0.2150
  821TIP3   OH223877   3.270   4.613  11.209  0.3538  0.1000  0.5392
  821TIP3    H123878   3.223   4.537  11.176 -1.6068  1.2344  0.5476
  821TIP3    H223879   3.280   4.670  11.133  1.7907 -0.1352  0.5351
  822TIP3   OH223880   3.258   4.562  13.540  0.3320  0.6400  0.3601
  822TIP3    H123881   3.264   4.494  13.473 -0.8242  1.9469 -1.1537
  822TIP3    H223882   3.294   4.640  13.498 -0.2580  1.4541  1.3173
  823TIP3   OH223883   1.003   5.435   3.109 -0.1802 -0.7739 -0.0457
  823TIP3    H123884   1.051   5.357   3.081 -0.2370 -0.7129 -0.3162
  823TIP3    H223885   1.060   5.508   3.083  0.7641 -0.7577  1.8556
  824TIP3   OH223886   6.690   0.221   2.176 -0.0299  0.0140 -0.3845
  824TIP3    H123887   6.666   0.283   2.107  2.1372  0.5074 -0.7648
  824TIP3    H223888   6.655   0.137   2.146 -2.1678  0.8073 -0.3340
  825TIP3   OH223889   0.318   5.562  12.849  0.2094  0.0008 -0.1867
  825TIP3    H123890   0.281   5.638  12.893  1.2529  0.0134  0.7302
  825TIP3    H223891   0.270   5.487  12.886  1.6600 -0.0715  1.7380
  826TIP3   OH223892   6.350   4.905  12.712 -0.3748 -0.0727  0.2556
  826TIP3    H123893   6.387   4.918  12.624 -1.5110  0.0548 -0.2156
  826TIP3    H223894   6.361   4.989  12.755 -2.0006  0.6323 -0.6215
  827TIP3   OH223895   5.824   0.696  11.488  0.5329 -0.0331 -0.1103
  827TIP3    H123896   5.857   0.693  11.398  0.1683  0.6196 -0.2724
  827TIP3    H223897   5.745   0.750  11.482 -0.6346 -1.6143  0.2469
  828TIP3   OH223898   6.282   4.136  17.353  0.1875 -0.3388 -0.0322
  828TIP3    H123899   6.270   4.225  17.319 -0.3765 -0.7994 -1.0988
  828TIP3    H223900   6.367   4.108  17.319  0.9946  0.2434  1.4024
  829TIP3   OH223901   3.964   6.035  11.149 -0.4148 -0.4439 -0.2707
  829TIP3    H123902   4.000   6.003  11.066  2.5822 -0.0743  0.7705
  829TIP3    H223903   3.914   6.113  11.125  0.6707 -0.1448 -1.7216
  830TIP3   OH223904   1.923   3.271   3.943  0.0140 -0.3951  0.2569
  830TIP3    H123905   1.892   3.360   3.930  1.4751  0.1078  0.0850
  830TIP3    H223906   1.892   3.247   4.030 -0.7813  0.0927  0.1224
  831TIP3   OH223907   0.722   5.467   3.174 -0.2988  0.4603 -0.3331
  831TIP3    H123908   0.732   5.561   3.157 -2.4070  0.7459 -0.1824
  831TIP3    H223909   0.812   5.434   3.178  0.5281  2.6629  0.7717
  832TIP3   OH223910   2.285   1.774  16.714  0.0746 -0.1567  0.1490
  832TIP3    H123911   2.220   1.843  16.700  0.5267  0.4580  1.0160
  832TIP3    H223912   2.245   1.714  16.776  1.1968  1.5272  2.6870
  833TIP3   OH223913   1.915   4.392  17.165  0.6313  0.7776  0.3302
  833TIP3    H123914   1.983   4.429  17.221  0.5253 -1.2350  1.8872
  833TIP3    H223915   1.911   4.299  17.189 -2.5904  0.7814  0.2801
  834TIP3   OH223916   1.598   2.049  14.493 -0.5789 -0.0708 -0.6276
  834TIP3    H123917   1.508   2.053  14.462 -0.3341 -0.4095 -1.4166
  834TIP3    H223918   1.604   2.117  14.560 -1.0663  0.8344 -1.4871
  835TIP3   OH223919   6.204   4.182  12.856  0.1434  0.3455 -0.5415
  835TIP3    H123920   6.233   4.218  12.939  0.5962 -0.9860 -0.0976
  835TIP3    H223921   6.111   4.161  12.870  0.5113 -0.9803  0.0466
  836TIP3   OH223922   5.904   3.889  12.867 -0.1908 -0.2031 -0.3555
  836TIP3    H123923   5.884   3.903  12.774 -0.8174  0.9143 -0.0768
  836TIP3    H223924   5.950   3.969  12.893 -0.0494 -0.4975  0.3010
  837TIP3   OH223925   5.166   5.579   3.945  0.3521  0.8305 -0.7637
  837TIP3    H123926   5.143   5.666   3.978 -0.4105 -0.1956  1.6596
  837TIP3    H223927   5.248   5.558   3.990 -1.2506 -1.0342  1.6029
  838TIP3   OH223928   4.441   5.083  12.210  0.1227  0.1898  0.2857
  838TIP3    H123929   4.468   4.993  12.194 -0.2714  0.1256 -0.0373
  838TIP3    H223930   4.427   5.088  12.305 -0.6276 -0.3107  0.2094
  839TIP3   OH223931   1.095   0.111  11.072  0.0997  0.5359 -0.0306
  839TIP3    H123932   1.036   0.038  11.083 -0.5728  1.3081  1.8852
  839TIP3    H223933   1.041   0.180  11.032  0.7051  0.0860 -1.7395
  840TIP3   OH223934   1.293   0.634  14.839  0.1788 -0.3203 -0.5252
  840TIP3    H123935   1.278   0.727  14.821 -0.1498 -0.4674 -1.0419
  840TIP3    H223936   1.233   0.613  14.911 -0.8071 -0.4715 -1.3723
  841TIP3   OH223937   2.040   1.179   2.599 -0.2736  0.5117  0.3142
  841TIP3    H123938   2.048   1.274   2.592  2.4339  0.6521  3.0186
  841TIP3    H223939   1.990   1.165   2.679  1.8967 -0.1805  1.6417
  842TIP3   OH223940   1.164   1.128   1.712  0.2214 -0.0774 -0.3555
  842TIP3    H123941   1.160   1.033   1.721  1.8521 -0.2194 -0.8019
  842TIP3    H223942   1.104   1.148   1.640  0.2393 -0.8270 -0.5825
  843TIP3   OH223943   2.306   2.514   0.501 -0.2796  0.4211  0.5357
  843TIP3    H123944   2.258   2.431   0.496  1.3415 -0.5932  0.9769
  843TIP3    H223945   2.320   2.527   0.595  3.2399 -1.1597  0.3793
  844TIP3   OH223946   2.841   6.688  16.298 -0.1400 -0.4206 -0.7630
  844TIP3    H123947   2.829   6.609  16.245 -0.6112 -0.9625  0.1280
  844TIP3    H223948   2.770   6.745  16.272 -0.5454 -0.8049 -0.5159
  845TIP3   OH223949   2.970   3.320  14.635  0.3184  0.1645  0.0349
  845TIP3    H123950   2.913   3.388  14.600  0.3733  1.2878  1.9505
  845TIP3    H223951   2.956   3.323  14.730 -0.0285 -2.8576  0.1910
  846TIP3   OH223952   3.250   0.746  13.781 -0.1790 -0.6058  0.2886
  846TIP3    H123953   3.259   0.789  13.866 -1.6088  0.9038 -0.2604
  846TIP3    H223954   3.213   0.813  13.724 -1.6515 -2.3198 -0.8885
  847TIP3   OH223955   3.539   6.361   2.466 -0.3310 -0.2342  0.0702
  847TIP3    H123956   3.454   6.365   2.510  0.0659 -2.1212  1.1075
  847TIP3    H223957   3.598   6.321   2.530  1.1561  0.2731 -0.9206
  848TIP3   OH223958   0.195   4.431  16.350  0.6096  0.2025 -0.1441
  848TIP3    H123959   0.130   4.467  16.290  0.6509  0.4850 -0.0235
  848TIP3    H223960   0.196   4.337  16.333  1.0419  0.3562 -1.0006
  849TIP3   OH223961   0.380   4.593  13.365  0.2888  0.1790  0.4258
  849TIP3    H123962   0.402   4.596  13.272 -0.3654 -0.0977  0.2517
  849TIP3    H223963   0.412   4.676  13.400 -0.0144  0.5602 -0.1770
  850TIP3   OH223964   6.150   6.114   2.992  0.4349 -0.2421  0.5465
  850TIP3    H123965   6.228   6.094   2.940  0.0989 -2.2262  0.7449
  850TIP3    H223966   6.180   6.113   3.082  0.7578  1.9996  0.5300
  851TIP3   OH223967   4.612   3.334  14.754  0.5801 -0.2921 -0.3653
  851TIP3    H123968   4.597   3.240  14.767  2.4700 -0.4041  1.4363
  851TIP3    H223969   4.679   3.357  14.818 -0.9898  2.6696  0.3968
  852TIP3   OH223970   6.669   6.044  14.074  0.5766 -0.1404 -0.1179
  852TIP3    H123971   6.634   5.982  14.138 -0.8903  0.2530 -0.4965
  852TIP3    H223972   6.737   6.092  14.121  2.6547 -2.8354 -0.1725
  853TIP3   OH223973   2.959   2.343   3.518 -0.4291  0.3155 -0.1741
  853TIP3    H123974   3.023   2.279   3.551  1.4712  1.7814 -0.8268
  853TIP3    H223975   2.976   2.347   3.423 -1.9017  0.3431 -0.4599
  854TIP3   OH223976   6.167   0.896  13.426 -0.7169  0.0472 -0.1095
  854TIP3    H123977   6.208   0.973  13.387  2.2883 -2.1121 -1.5927
  854TIP3    H223978   6.082   0.890  13.382 -0.1494  1.3747 -1.4681
  855TIP3   OH223979   4.317   0.316  17.407 -0.1402  0.3247  0.1576
  855TIP3    H123980   4.302   0.410  17.416  2.4487  0.9998 -1.2978
  855TIP3    H223981   4.377   0.294  17.478  1.3778  0.4225 -1.0442
  856TIP3   OH223982   6.417   5.861  12.390  0.3286 -0.0493  0.5982
  856TIP3    H123983   6.435   5.816  12.472  2.9860 -1.3638 -0.5755
  856TIP3    H223984   6.451   5.802  12.323 -2.2484  0.6953 -1.5563
  857TIP3   OH223985   1.938   3.943  12.441 -0.2269  0.2413  0.0430
  857TIP3    H123986   1.969   3.862  12.481 -0.5426  0.6966  1.2253
  857TIP3    H223987   1.854   3.921  12.402  1.2967 -0.9484 -2.9758
  858TIP3   OH223988   0.293   3.758  13.432  0.4598 -0.3005  0.1175
  858TIP3    H123989   0.254   3.714  13.357  2.0682 -0.8838 -0.4079
  858TIP3    H223990   0.355   3.695  13.468  0.6294  0.4391  1.1835
  859TIP3   OH223991   3.817   0.188  14.266 -0.1703  0.3458 -0.3478
  859TIP3    H123992   3.838   0.097  14.244  2.4351  0.2755  1.8417
  859TIP3    H223993   3.728   0.184  14.301 -0.7639 -1.0095 -1.8867
  860TIP3   OH223994   3.236   5.770   0.572 -0.3925  0.4403 -0.6585
  860TIP3    H123995   3.209   5.743   0.484  1.7681 -0.6627 -1.0440
  860TIP3    H223996   3.315   5.823   0.558  0.8201 -0.9302  0.6445
  861TIP3   OH223997   4.934   4.917   0.251  0.4065 -0.4836  0.1051
  861TIP3    H123998   4.993   4.978   0.294  0.6453  0.0556 -0.9605
  861TIP3    H223999   4.961   4.918   0.159 -0.7166 -0.8648 -0.2426
  862TIP3   OH224000   1.780   3.912  17.254  0.3597  0.5027 -0.3077
  862TIP3    H124001   1.756   3.848  17.187 -0.2954  0.8787 -0.4399
  862TIP3    H224002   1.784   3.861  17.335  0.9257  0.0903 -0.5909
  863TIP3   OH224003   5.733   5.648   3.814 -0.0582  0.3563 -0.3717
  863TIP3    H124004   5.721   5.554   3.818  0.3115  0.0180 -3.9442
  863TIP3    H224005   5.817   5.664   3.857  0.1903 -1.0356 -0.3100
  864TIP3   OH224006   6.122   5.149   1.958  0.4925  0.1984  0.1812
  864TIP3    H124007   6.073   5.210   1.903  0.6587  0.4300  0.2891
  864TIP3    H224008   6.188   5.112   1.900  0.1864 -0.1284  0.0301
  865TIP3   OH224009   0.613   1.114   1.631  0.4911  0.0945  0.5826
  865TIP3    H124010   0.586   1.074   1.549  1.3011 -0.2239  0.4616
  865TIP3    H224011   0.539   1.100   1.690  0.5477 -1.1512  0.3940
  866TIP3   OH224012   6.145   4.488   0.023  0.6557 -0.3791 -0.4633
  866TIP3    H124013   6.196   4.565   0.050  0.2132 -0.6777  1.3834
  866TIP3    H224014   6.134   4.499  -0.072  0.3678  1.9799 -0.2327
  867TIP3   OH224015   5.474   1.540   2.790 -0.0155  0.5413  0.0792
  867TIP3    H124016   5.528   1.602   2.840  1.2771  1.5908 -2.4156
  867TIP3    H224017   5.417   1.596   2.737 -0.8894 -0.5125 -0.1352
  868TIP3   OH224018   1.622   3.541   0.821 -1.1187  0.0195 -0.0246
  868TIP3    H124019   1.584   3.534   0.909 -1.9028  1.8255 -0.1769
  868TIP3    H224020   1.547   3.541   0.762 -1.1267  4.2383 -0.2984
  869TIP3   OH224021   2.521   2.909   0.194  0.0816 -0.1926 -0.3160
  869TIP3    H124022   2.530   2.866   0.279 -0.8094  0.4354  0.1105
  869TIP3    H224023   2.432   2.889   0.166 -0.0840  0.7192 -0.4694
  870TIP3   OH224024   3.163   2.826  14.763  0.4046 -0.0759  0.2001
  870TIP3    H124025   3.170   2.851  14.855  1.2051  0.6267 -0.0388
  870TIP3    H224026   3.216   2.747  14.755 -0.5533 -0.7662  0.5604
  871TIP3   OH224027   2.393   1.473   5.798 -0.4978 -0.8442 -0.4164
  871TIP3    H124028   2.364   1.411   5.865  0.1415 -0.6047  0.0877
  871TIP3    H224029   2.342   1.552   5.815 -0.7710 -0.9761 -0.5979
  872TIP3   OH224030   2.105   5.855  12.169 -0.0195  0.3444  0.0688
  872TIP3    H124031   2.082   5.808  12.089 -0.3987  0.7528 -0.0608
  872TIP3    H224032   2.194   5.888  12.152  0.6602 -1.1379  0.5333
  873TIP3   OH224033   6.675   3.442   1.476 -0.1928 -0.1347  0.1617
  873TIP3    H124034   6.660   3.381   1.404  2.2575 -0.1321 -0.4309
  873TIP3    H224035   6.594   3.439   1.527 -1.1972 -1.7311 -1.4079
  874TIP3   OH224036   5.054   4.782   4.277  0.4361 -0.5879 -0.9891
  874TIP3    H124037   4.962   4.760   4.265  0.2966 -0.0236 -0.9627
  874TIP3    H224038   5.058   4.877   4.267  0.7479 -0.3963  0.6390
  875TIP3   OH224039   1.901   5.546   3.894 -0.0315  0.0416 -0.2528
  875TIP3    H124040   1.806   5.539   3.899  0.0249 -0.0403  1.1616
  875TIP3    H224041   1.933   5.489   3.964  1.1418 -1.4670 -1.9070
  876TIP3   OH224042   4.420   4.718   1.617  0.5579 -0.3196 -0.2617
  876TIP3    H124043   4.388   4.682   1.534  0.1836 -0.3738 -0.0989
  876TIP3    H224044   4.494   4.662   1.640  0.4907 -0.4769 -0.4195
  877TIP3   OH224045   5.654   5.723   2.266  0.3153 -0.1514  0.2386
  877TIP3    H124046   5.597   5.797   2.289 -0.9330 -1.1024  0.3280
  877TIP3    H224047   5.647   5.716   2.171 -0.0223 -0.4833  0.2823
  878TIP3   OH224048   6.332   4.350  16.993 -0.0335  0.6524 -0.0584
  878TIP3    H124049   6.387   4.278  16.963 -1.4447 -0.5232  0.0402
  878TIP3    H224050   6.277   4.372  16.918 -1.3289 -0.1106  0.6097
  879TIP3   OH224051   5.094   1.711   4.805  0.3735 -0.1858 -0.1544
  879TIP3    H124052   5.056   1.793   4.774 -0.8219 -0.6966 -0.0803
  879TIP3    H224053   5.116   1.728   4.897  1.0735  0.3574 -0.4126
  880TIP3   OH224054   6.125   0.379  13.902  0.3178  0.0062  0.1042
  880TIP3    H124055   6.213   0.342  13.907  0.0638 -1.5504 -3.4872
  880TIP3    H224056   6.126   0.433  13.823 -1.6667  0.7750  0.5401
  881TIP3   OH224057   1.455   2.499  14.120 -0.6035 -0.2540  0.2794
  881TIP3    H124058   1.432   2.576  14.172  1.7223  0.2124  0.7466
  881TIP3    H224059   1.405   2.428  14.160  0.5144  0.2294  2.7341
  882TIP3   OH224060   1.210   3.724  14.048 -0.0786  0.3312  0.1718
  882TIP3    H124061   1.130   3.696  14.002  0.7611  0.4092 -1.3971
  882TIP3    H224062   1.237   3.647  14.097  0.6755 -0.8277 -1.9294
  883TIP3   OH224063   2.317   5.460   3.700  0.4643 -0.0630  0.3487
  883TIP3    H124064   2.328   5.392   3.767  0.5067 -0.8702 -0.4621
  883TIP3    H224065   2.224   5.457   3.679  0.3156  0.6713  0.8523
  884TIP3   OH224066   2.539   2.934   1.517  0.3660  0.2142  0.5721
  884TIP3    H124067   2.495   3.004   1.566  2.3705  1.9531  0.0108
  884TIP3    H224068   2.549   2.968   1.429  3.9349  0.5314  0.9587
  885TIP3   OH224069   3.517   4.187  17.165  0.0856  0.8731 -0.4391
  885TIP3    H124070   3.452   4.202  17.234 -0.6925  0.5814 -1.0872
  885TIP3    H224071   3.527   4.272  17.122  2.6342  1.8136  1.6924
  886TIP3   OH224072   2.227   2.667  15.338 -0.5450 -0.4685 -0.0233
  886TIP3    H124073   2.163   2.597  15.354 -1.5141  0.5209  0.5413
  886TIP3    H224074   2.302   2.644  15.394 -1.2359 -0.5668  0.8835
  887TIP3   OH224075   6.181   2.856   3.202  0.1631 -0.5048 -0.5617
  887TIP3    H124076   6.258   2.839   3.148  1.3427  1.8884  0.2042
  887TIP3    H224077   6.111   2.874   3.140  0.3426 -2.0651 -1.2669
  888TIP3   OH224078   2.123   6.093  15.861  0.1197  0.2753 -0.5568
  888TIP3    H124079   2.149   6.138  15.781  1.5338  1.7380  0.6632
  888TIP3    H224080   2.029   6.109  15.868  0.4168  2.2875 -0.6559
  889TIP3   OH224081   4.651   4.026   2.316  0.3087 -0.4009 -0.1692
  889TIP3    H124082   4.649   3.968   2.392 -0.6336 -0.0043  0.1130
  889TIP3    H224083   4.677   4.111   2.351 -0.5808 -0.1072 -0.2133
  890TIP3   OH224084   2.586   3.166  11.378  0.4834  0.2883 -0.0225
  890TIP3    H124085   2.526   3.096  11.405 -1.2077  1.5929 -0.2792
  890TIP3    H224086   2.646   3.176  11.453 -0.3906 -0.1938  0.7585
  891TIP3   OH224087   2.753   4.134   0.437  0.8094 -0.4707  0.0628
  891TIP3    H124088   2.755   4.185   0.518 -2.0386  1.2317 -0.7890
  891TIP3    H224089   2.822   4.173   0.383 -0.8483  2.2174 -0.3071
  892TIP3   OH224090   2.122   2.805  11.188  0.0700  0.4518 -0.7267
  892TIP3    H124091   2.161   2.844  11.110  3.3118 -1.1572 -0.0576
  892TIP3    H224092   2.064   2.737  11.155 -1.4648  2.1279 -1.7205
  893TIP3   OH224093   2.862   4.577  11.827 -0.3501 -0.3778 -0.1390
  893TIP3    H124094   2.810   4.654  11.803 -1.0738 -0.7763  0.1023
  893TIP3    H224095   2.835   4.509  11.765  0.2808 -0.4424 -0.3507
  894TIP3   OH224096   5.811   5.429  17.170  0.0015 -0.8527 -0.6013
  894TIP3    H124097   5.776   5.421  17.081  0.3152 -3.2725 -0.5814
  894TIP3    H224098   5.894   5.382  17.167  1.8013  2.0322  0.1671
  895TIP3   OH224099   3.885   4.032   2.679 -0.1842  1.1777  0.1940
  895TIP3    H124100   3.951   4.054   2.613 -1.2914  0.3549 -1.2609
  895TIP3    H224101   3.857   4.116   2.715  2.0388  1.5266  1.3021
  896TIP3   OH224102   0.725   3.065  11.527 -0.6155  0.1741  0.6723
  896TIP3    H124103   0.735   3.000  11.596 -2.1961  0.0987  0.8589
  896TIP3    H224104   0.636   3.099  11.538 -0.0462  1.9368  0.1979
  897TIP3   OH224105   5.016   2.727  14.375  0.7324 -0.7854  0.8464
  897TIP3    H124106   4.924   2.717  14.354  1.1379 -0.2003 -1.4081
  897TIP3    H224107   5.050   2.637  14.378  0.5070 -0.9169 -0.3798
  898TIP3   OH224108   2.949   1.062  10.855 -0.3097 -0.0034 -0.2850
  898TIP3    H124109   3.015   1.002  10.890  0.9023  0.8247 -1.0278
  898TIP3    H224110   2.955   1.050  10.760 -2.8273 -1.4994 -0.3531
  899TIP3   OH224111   5.172   2.873  14.132 -0.2716  0.0583  0.2467
  899TIP3    H124112   5.100   2.864  14.070 -0.9392  0.5021  0.9413
  899TIP3    H224113   5.135   2.922  14.205  0.4267 -0.6936  1.1246
  900TIP3   OH224114   3.741   2.061   5.436 -0.0270 -0.4061  0.2532
  900TIP3    H124115   3.776   2.052   5.525  1.4641  0.4261 -0.2171
  900TIP3    H224116   3.646   2.068   5.448  0.0839 -1.0497  1.7127
  901TIP3   OH224117   4.393   0.516  12.161  0.0504  0.0286 -0.6509
  901TIP3    H124118   4.351   0.433  12.138 -0.0059 -0.0590 -0.2385
  901TIP3    H224119   4.421   0.505  12.252  0.2880  0.3631 -0.6815
  902TIP3   OH224120   2.725   1.300   0.931 -0.9926  0.3866 -0.7540
  902TIP3    H124121   2.672   1.250   0.868 -1.8088  0.0995  0.1436
  902TIP3    H224122   2.795   1.338   0.878 -0.9949 -0.7989 -1.6428
  903TIP3   OH224123   6.157   0.807   3.795 -0.1722  0.0356 -0.0573
  903TIP3    H124124   6.098   0.845   3.860 -0.4223  0.5645 -0.5882
  903TIP3    H224125   6.194   0.882   3.749  1.1337 -0.2771  0.4411
  904TIP3   OH224126   0.491   4.742  14.556  0.3356 -0.2926  0.7529
  904TIP3    H124127   0.501   4.652  14.524  0.7340 -0.4654  1.3382
  904TIP3    H224128   0.450   4.789  14.484 -0.2480 -1.0417  0.5863
  905TIP3   OH224129   2.025   0.765  12.207 -0.1279 -0.6162 -0.5175
  905TIP3    H124130   2.024   0.859  12.226  0.0445 -1.0634  2.1984
  905TIP3    H224131   2.114   0.746  12.180  0.2254 -0.1904  0.3050
  906TIP3   OH224132   6.435   6.742  14.360 -0.0921 -0.5216  0.1611
  906TIP3    H124133   6.512   6.789  14.327  1.1296 -2.5410  0.0083
  906TIP3    H224134   6.399   6.697  14.283 -0.8170 -0.4321  0.4371
  907TIP3   OH224135   0.759   4.376  15.577 -0.2844 -0.8974 -0.0554
  907TIP3    H124136   0.699   4.336  15.514 -0.5991 -4.5707  2.3324
  907TIP3    H224137   0.702   4.422  15.638 -0.1211  0.6668 -1.0038
  908TIP3   OH224138   4.447   1.705   0.050  0.1598 -0.5742  0.1000
  908TIP3    H124139   4.354   1.683   0.061  0.2491 -0.5158  0.9865
  908TIP3    H224140   4.446   1.794   0.016 -0.1292 -0.9619 -0.9547
  909TIP3   OH224141   3.189   2.271   3.902 -0.5980 -0.2237  0.1369
  909TIP3    H124142   3.173   2.342   3.964 -0.5552  1.3109 -1.5154
  909TIP3    H224143   3.190   2.314   3.817  2.3861 -1.7614 -0.7306
  910TIP3   OH224144   0.226   4.317   1.921 -0.3730  0.0952 -0.7344
  910TIP3    H124145   0.315   4.352   1.916 -0.9993  2.3533  1.5928
  910TIP3    H224146   0.170   4.390   1.891 -1.5217 -0.7317 -0.6611
  911TIP3   OH224147   0.847   2.366   3.224  0.1007 -0.1454  0.1537
  911TIP3    H124148   0.754   2.365   3.246  0.0301  1.3130 -0.0137
  911TIP3    H224149   0.849   2.367   3.128  0.2908 -0.1373  0.1573
  912TIP3   OH224150   5.301   2.500  15.867  0.1371 -0.4032  0.1085
  912TIP3    H124151   5.289   2.525  15.775 -0.1235 -0.4176  0.1376
  912TIP3    H224152   5.212   2.482  15.898  0.0428  1.2512  0.8483
  913TIP3   OH224153   3.860   4.020  16.201 -0.2207 -0.0615 -0.2828
  913TIP3    H124154   3.870   3.926  16.219 -1.6360 -0.5607 -1.8085
  913TIP3    H224155   3.949   4.050  16.184  0.1486 -1.4090 -0.9057
  914TIP3   OH224156   6.758   5.234  15.290 -0.2657  0.3370  0.5525
  914TIP3    H124157   6.790   5.160  15.342 -0.0541  0.4701  0.6117
  914TIP3    H224158   6.821   5.242  15.218  0.1856  0.9950  1.0173
  915TIP3   OH224159   3.473   1.437   3.628 -0.2893 -0.1621 -0.0725
  915TIP3    H124160   3.499   1.387   3.705  2.7939  0.7291 -0.3807
  915TIP3    H224161   3.449   1.371   3.563 -1.0505 -0.9844  1.0089
  916TIP3   OH224162   4.341   2.950  16.950  0.5476  0.0231 -0.3171
  916TIP3    H124163   4.294   2.953  16.867 -0.4237  0.1749  0.2218
  916TIP3    H224164   4.433   2.946  16.925  0.3594  1.5752 -1.3812
  917TIP3   OH224165   5.069   6.663  15.631 -0.2804  0.1529 -0.3750
  917TIP3    H124166   5.104   6.699  15.712 -3.1229 -0.8216  1.4325
  917TIP3    H224167   5.018   6.735  15.594  0.1464  0.2615 -0.7652
  918TIP3   OH224168   5.224   5.124  15.826 -0.1158  0.1708  0.2742
  918TIP3    H124169   5.241   5.096  15.916  2.8176 -0.3545 -0.3506
  918TIP3    H224170   5.237   5.045  15.774  0.8374  1.0355 -0.8364
  919TIP3   OH224171   5.349   1.025  11.959  0.0142 -0.1260  0.2092
  919TIP3    H124172   5.408   1.063  12.023 -0.5516  0.9073  0.1391
  919TIP3    H224173   5.402   1.015  11.880 -0.0077  1.2903 -0.0145
  920TIP3   OH224174   2.236   2.796  13.809 -0.2145  0.2357  0.5680
  920TIP3    H124175   2.163   2.857  13.799 -0.2451  0.3517  1.4411
  920TIP3    H224176   2.314   2.850  13.795 -0.2543  0.3923  0.9499
  921TIP3   OH224177   2.993   3.399   0.594 -0.2036  0.5845  0.3735
  921TIP3    H124178   2.974   3.346   0.671 -0.0838  0.1213  0.0948
  921TIP3    H224179   3.086   3.383   0.577 -0.2142  0.7344  0.1709
  922TIP3   OH224180   0.462   0.928  11.886 -0.0531  0.3341 -0.0044
  922TIP3    H124181   0.450   0.840  11.849  1.4354 -0.6525  1.7067
  922TIP3    H224182   0.556   0.945  11.877 -0.5065  2.4748 -1.7026
  923TIP3   OH224183   1.691   2.630   1.333 -0.1424 -0.2253 -0.1235
  923TIP3    H124184   1.781   2.643   1.363 -0.4403 -1.2238  1.2815
  923TIP3    H224185   1.666   2.716   1.299  1.6632 -0.1820 -1.5172
  924TIP3   OH224186   6.706   2.119  16.159 -0.1534 -0.9923 -0.2390
  924TIP3    H124187   6.693   2.152  16.248 -1.2317  0.6863 -0.9839
  924TIP3    H224188   6.709   2.024  16.169  0.3519 -0.8188  1.6523
  925TIP3   OH224189   4.457   2.983  14.529  0.7998 -0.3082 -0.4759
  925TIP3    H124190   4.448   3.071  14.493  1.7907 -0.0280 -0.0837
  925TIP3    H224191   4.403   2.928  14.472 -2.5625  0.9978  1.2135
  926TIP3   OH224192   1.122   4.127   3.103 -0.1935  0.4495  0.0407
  926TIP3    H124193   1.150   4.037   3.116  0.6203  0.9917  2.6578
  926TIP3    H224194   1.029   4.127   3.127 -0.1952  0.3122  0.0351
  927TIP3   OH224195   3.968   5.607   3.959  0.1471 -0.2449 -0.4044
  927TIP3    H124196   3.901   5.552   3.918 -0.5964 -0.0103  0.4756
  927TIP3    H224197   3.961   5.588   4.052  2.2300 -1.2217 -0.3806
  928TIP3   OH224198   0.219   4.710   1.691  0.0394  0.0154 -0.0912
  928TIP3    H124199   0.171   4.658   1.756 -1.7607  1.0635 -0.4950
  928TIP3    H224200   0.197   4.669   1.607  0.8387 -0.1987 -0.2057
  929TIP3   OH224201   2.335   6.012  12.609  0.5071 -0.3965 -0.0377
  929TIP3    H124202   2.420   6.047  12.635  0.4819 -0.7737  0.5633
  929TIP3    H224203   2.279   6.021  12.686 -1.0570  2.9883 -1.3876
  930TIP3   OH224204   4.182   1.039  15.427  0.5078 -0.1438 -0.3698
  930TIP3    H124205   4.117   0.969  15.417 -0.5669  0.8224 -0.3778
  930TIP3    H224206   4.242   1.025  15.355 -0.6977 -0.0274 -1.4356
  931TIP3   OH224207   1.538   5.510   1.910 -0.1051  0.3521 -0.2909
  931TIP3    H124208   1.572   5.425   1.938  1.0817  0.5289 -1.1059
  931TIP3    H224209   1.452   5.490   1.872 -0.6599 -0.2052  1.1777
  932TIP3   OH224210   6.441   1.360  13.539 -0.1812 -0.2585 -0.5241
  932TIP3    H124211   6.488   1.293  13.589  0.6301  0.2400 -0.5997
  932TIP3    H224212   6.404   1.418  13.606  0.3103  0.0109 -0.4811
  933TIP3   OH224213   4.474   3.980   3.682  0.3986  0.1497 -0.3056
  933TIP3    H124214   4.567   3.994   3.667 -0.0669  2.3831 -1.5899
  933TIP3    H224215   4.461   4.001   3.774  1.5478 -2.9183  0.6550
  934TIP3   OH224216   5.471   2.036  10.547  0.1267  0.2945  0.0206
  934TIP3    H124217   5.443   2.002  10.632 -2.1952 -0.4530 -0.9800
  934TIP3    H224218   5.540   2.099  10.569  1.6513 -1.9394  2.2367
  935TIP3   OH224219   3.629   4.505   3.801 -0.2438  0.0081  0.3465
  935TIP3    H124220   3.583   4.489   3.719 -0.8532  0.3125  0.6309
  935TIP3    H224221   3.561   4.503   3.869 -0.0713  1.8989  0.6070
  936TIP3   OH224222   4.787   3.057   3.647  0.1728 -0.5607 -0.2087
  936TIP3    H124223   4.878   3.027   3.643 -0.5279 -2.9596 -0.1677
  936TIP3    H224224   4.740   3.001   3.585 -1.2930  0.5777 -0.1900
  937TIP3   OH224225   3.741   1.805  10.877  0.0949  0.0232 -0.9296
  937TIP3    H124226   3.751   1.712  10.900  0.5131 -0.4665 -2.9338
  937TIP3    H224227   3.814   1.848  10.923 -0.1977 -0.5880  0.1517
  938TIP3   OH224228   4.054   1.863   2.446  0.1560 -0.0484 -0.0715
  938TIP3    H124229   3.985   1.930   2.451  2.3032  2.2081  2.5352
  938TIP3    H224230   4.091   1.874   2.358 -0.6145  1.0773 -0.2862
  939TIP3   OH224231   4.991   5.193   2.726  0.2328 -1.0926  0.1057
  939TIP3    H124232   4.992   5.104   2.761 -3.0066 -2.2321 -2.2375
  939TIP3    H224233   4.918   5.235   2.771 -1.7039 -1.4632 -2.4546
  940TIP3   OH224234   0.453   1.412   0.331  0.5489  0.0611  0.0262
  940TIP3    H124235   0.415   1.431   0.416  1.7397 -0.1897  0.6314
  940TIP3    H224236   0.379   1.382   0.277 -0.0197 -0.9028  1.3057
  941TIP3   OH224237   3.358   4.772   0.103 -0.3244 -0.3813  0.2695
  941TIP3    H124238   3.293   4.803   0.039  0.9666  2.8044  0.3136
  941TIP3    H224239   3.392   4.691   0.066 -0.7272  0.5524 -2.3404
  942TIP3   OH224240   3.471   4.326   5.240  0.0171 -0.2287 -0.3515
  942TIP3    H124241   3.470   4.398   5.302 -1.6489  0.8932 -1.5979
  942TIP3    H224242   3.559   4.328   5.202 -0.2788  1.7919 -1.0450
  943TIP3   OH224243   4.949   6.346  10.281 -0.3068 -0.4302 -0.4047
  943TIP3    H124244   4.883   6.277  10.292  1.2373 -1.7572  1.0884
  943TIP3    H224245   5.032   6.302  10.294  0.8331  1.4544 -0.9353
  944TIP3   OH224246   0.857   2.251   1.974 -0.4035 -0.2028 -0.5443
  944TIP3    H124247   0.913   2.196   1.918  0.0663  0.7831 -1.0672
  944TIP3    H224248   0.855   2.336   1.930 -0.3725  0.4785  0.7270
  945TIP3   OH224249   6.583   1.031   0.713 -0.4978 -0.1058 -0.3022
  945TIP3    H124250   6.649   1.073   0.658 -1.8065  0.3677 -1.5782
  945TIP3    H224251   6.541   1.103   0.760 -1.3073 -0.2082 -0.8602
  946TIP3   OH224252   1.554   3.101   3.344 -0.6584 -0.0507 -0.1861
  946TIP3    H124253   1.533   3.154   3.268  0.7425  1.2000  0.2357
  946TIP3    H224254   1.481   3.040   3.353 -0.4871 -0.8030 -2.9921
  947TIP3   OH224255   1.888   2.919  11.661 -0.2001 -0.0911 -0.2179
  947TIP3    H124256   1.796   2.943  11.654 -0.3633  0.3219  2.4393
  947TIP3    H224257   1.918   2.962  11.741  1.6237 -2.2587  0.3545
  948TIP3   OH224258   4.965   5.974  15.830 -0.0056 -0.0644  0.0987
  948TIP3    H124259   4.986   6.025  15.909  0.6012  0.4637 -0.3916
  948TIP3    H224260   4.881   5.933  15.850  0.6538 -0.8446  1.4674
  949TIP3   OH224261   0.881   3.801   1.891 -0.0404 -0.1190 -0.5189
  949TIP3    H124262   0.851   3.737   1.826  0.4984 -0.3977 -0.5027
  949TIP3    H224263   0.801   3.836   1.929 -0.3400 -1.3987  0.0738
  950TIP3   OH224264   3.957   3.208  17.291  0.3396 -0.0403 -0.0529
  950TIP3    H124265   3.955   3.266  17.214 -1.1618  1.3291  0.9426
  950TIP3    H224266   3.978   3.267  17.363 -0.7704 -0.8227  0.9352
  951TIP3   OH224267   5.400   0.494  17.094 -0.1412  0.3254 -1.0071
  951TIP3    H124268   5.428   0.577  17.054 -0.3797 -0.1699 -2.2311
  951TIP3    H224269   5.478   0.438  17.088 -0.2219  0.2008 -0.8902
  952TIP3   OH224270   4.833   5.240  13.311 -0.2600  0.9135 -0.2361
  952TIP3    H124271   4.844   5.171  13.246 -0.2726  0.0175  0.7056
  952TIP3    H224272   4.872   5.318  13.270 -0.3177  0.3818 -1.3329
  953TIP3   OH224273   0.867   0.024   3.162  0.0829  0.0550  0.0266
  953TIP3    H124274   0.814   0.092   3.120 -1.7657 -1.1843  0.2436
  953TIP3    H224275   0.905  -0.026   3.089  0.7938  0.7971 -0.1282
  954TIP3   OH224276   1.399   5.892  16.610 -0.1298  0.1368  0.3748
  954TIP3    H124277   1.338   5.864  16.679  0.9843 -1.2828  0.8381
  954TIP3    H224278   1.463   5.947  16.655 -0.0577  0.1665  0.2383
  955TIP3   OH224279   0.556   3.540   3.091 -0.3904 -0.0743 -0.1757
  955TIP3    H124280   0.536   3.562   3.182  0.6299  0.1677 -0.0036
  955TIP3    H224281   0.516   3.611   3.041 -0.5585  0.0360  0.1108
  956TIP3   OH224282   3.688   0.081  13.582 -0.0072  0.3727 -0.6615
  956TIP3    H124283   3.624   0.016  13.611  1.1500  0.3832  2.2243
  956TIP3    H224284   3.663   0.100  13.492 -1.6893 -2.4657 -0.9238
  957TIP3   OH224285   2.622   1.347  15.873 -0.0529 -0.0622 -0.0313
  957TIP3    H124286   2.569   1.321  15.948 -0.0487 -0.8136 -0.2714
  957TIP3    H224287   2.607   1.278  15.808  1.5084 -0.5293  0.0403
  958TIP3   OH224288   4.147   2.207  11.664 -0.1176  0.1770 -0.6817
  958TIP3    H124289   4.195   2.216  11.746 -2.2946  0.6151  0.6068
  958TIP3    H224290   4.127   2.296  11.637  1.2342  0.0889 -2.1727
  959TIP3   OH224291   4.219   5.459   0.633 -0.2587 -0.3730  0.5200
  959TIP3    H124292   4.311   5.470   0.610 -0.3943  0.2973  0.2741
  959TIP3    H224293   4.199   5.368   0.608  0.1690 -0.3249 -0.0204
  960TIP3   OH224294   4.731   2.312   0.020 -0.5192 -0.1063 -0.2575
  960TIP3    H124295   4.659   2.271   0.068 -0.1219  0.6737  1.0351
  960TIP3    H224296   4.720   2.281  -0.070 -1.9634 -0.6733  0.0896
  961TIP3   OH224297   0.047   6.731   0.588 -0.1166  0.8499  0.4686
  961TIP3    H124298   0.125   6.736   0.643  0.5445  0.7693 -0.4242
  961TIP3    H224299   0.031   6.821   0.561 -0.8056  0.9775  1.2663
  962TIP3   OH224300   1.399   4.639   4.836  0.2463  0.1281  0.0273
  962TIP3    H124301   1.438   4.562   4.879 -0.8065  0.7999  2.3352
  962TIP3    H224302   1.461   4.710   4.853  1.6200 -0.2571 -2.7854
  963TIP3   OH224303   2.769   4.892   2.118  0.1257 -0.2682 -0.2536
  963TIP3    H124304   2.690   4.844   2.093 -0.9573  1.2763 -0.0007
  963TIP3    H224305   2.763   4.974   2.068  0.2291  0.9551  1.6261
  964TIP3   OH224306   4.192   1.148  12.395 -0.5425 -0.0209 -0.1150
  964TIP3    H124307   4.255   1.087  12.356 -1.0301  0.0300 -1.0040
  964TIP3    H224308   4.144   1.184  12.321 -2.4682 -0.9517  0.6107
  965TIP3   OH224309   3.983   1.691   4.008 -0.6249 -0.0668 -0.8260
  965TIP3    H124310   4.057   1.750   3.991 -1.7830  1.4707 -0.7424
  965TIP3    H224311   3.919   1.746   4.054 -0.9709 -1.9241  1.0358
  966TIP3   OH224312   3.947   5.898   4.163 -0.7358 -0.1098 -0.4443
  966TIP3    H124313   3.888   5.969   4.141 -0.1206  0.4946 -0.1756
  966TIP3    H224314   3.924   5.874   4.253  0.4725  1.2178  0.2565
  967TIP3   OH224315   3.566   1.988   0.140 -0.1432 -0.2437 -1.0716
  967TIP3    H124316   3.471   1.982   0.130  0.0012 -1.0998 -2.0705
  967TIP3    H224317   3.600   1.919   0.083  1.0764  0.0197 -0.6749
  968TIP3   OH224318   1.598   2.542   4.537  0.2897  0.3856  0.3902
  968TIP3    H124319   1.628   2.612   4.478  0.4216 -0.0210 -0.0268
  968TIP3    H224320   1.528   2.498   4.489  0.3068  0.1371  0.5926
  969TIP3   OH224321   5.226   2.146  10.490  0.4855 -0.3013  0.2041
  969TIP3    H124322   5.311   2.102  10.493  1.3327  1.1959 -0.2734
  969TIP3    H224323   5.213   2.180  10.578  0.3976 -0.5098  0.2706
  970TIP3   OH224324   6.756   0.484   4.177 -0.2885 -0.5518 -0.0621
  970TIP3    H124325   6.662   0.465   4.176 -0.1340 -1.3346 -0.5114
  970TIP3    H224326   6.784   0.469   4.087  0.0909  0.6386 -0.1586
  971TIP3   OH224327   2.411   6.124  15.854  0.3319 -0.1933 -0.3915
  971TIP3    H124328   2.378   6.185  15.788  1.0412  1.6751  0.8983
  971TIP3    H224329   2.483   6.171  15.896  0.5054 -1.6947  1.0794
  972TIP3   OH224330   1.655   3.420  11.442 -0.9430 -0.1618 -0.0136
  972TIP3    H124331   1.668   3.371  11.360 -0.5896 -2.4596  1.3208
  972TIP3    H224332   1.569   3.392  11.473 -1.0063  0.5743  0.4960
  973TIP3   OH224333   2.977   6.545  12.394 -0.3128 -0.5313  0.2559
  973TIP3    H124334   2.887   6.550  12.427  0.3269  2.6196  1.9092
  973TIP3    H224335   2.972   6.577  12.304 -0.7404  0.5206  0.6430
  974TIP3   OH224336   5.520   6.724   0.428 -0.2234  0.1686 -0.8293
  974TIP3    H124337   5.457   6.772   0.482 -0.6890 -0.6308 -0.6457
  974TIP3    H224338   5.472   6.698   0.350 -0.4863 -1.4381 -0.1783
  975TIP3   OH224339   2.223   0.600   2.283 -0.2778  0.0579 -0.5642
  975TIP3    H124340   2.226   0.517   2.236  1.7761  0.6744 -1.6216
  975TIP3    H224341   2.152   0.649   2.240  1.4474  0.5580 -3.0765
  976TIP3   OH224342   1.328   1.423   1.316 -0.2480 -0.1814  0.0641
  976TIP3    H124343   1.326   1.481   1.239  0.9913 -0.7503 -0.4399
  976TIP3    H224344   1.325   1.335   1.279  1.3676 -0.4897  0.5679
  977TIP3   OH224345   4.715   0.156   2.049  0.0380 -0.5018  0.0721
  977TIP3    H124346   4.771   0.119   2.117  1.7389  1.1977 -0.2877
  977TIP3    H224347   4.660   0.219   2.095  2.2348  1.7734 -0.1803
  978TIP3   OH224348   5.108   4.282   5.243 -0.8112 -0.6896 -0.5553
  978TIP3    H124349   5.050   4.263   5.316  0.8783 -3.4226  0.2436
  978TIP3    H224350   5.140   4.197   5.215 -1.0363  0.2750 -4.2855
  979TIP3   OH224351   3.429   1.008  12.082 -0.1828 -0.1579 -0.0933
  979TIP3    H124352   3.356   1.058  12.120  0.5383  0.3243  0.6802
  979TIP3    H224353   3.386   0.939  12.031 -1.1941  0.9182 -0.7469
  980TIP3   OH224354   1.674   0.329   5.038  0.0436  0.3100 -0.5974
  980TIP3    H124355   1.600   0.271   5.056  0.2894  0.4040  0.7551
  980TIP3    H224356   1.745   0.295   5.092  1.7313 -1.1280 -3.4762
  981TIP3   OH224357   1.775   0.967   1.162 -0.2114  0.4640 -0.2394
  981TIP3    H124358   1.700   1.024   1.178  0.3866  0.9332  1.0227
  981TIP3    H224359   1.738   0.880   1.154 -0.9473  0.7716 -0.2667
  982TIP3   OH224360   2.647   0.372   4.724  0.6170 -0.2299  0.4998
  982TIP3    H124361   2.567   0.392   4.773  0.1583  0.0952 -0.3713
  982TIP3    H224362   2.639   0.280   4.700  0.2210 -0.0416 -0.1004
  983TIP3   OH224363   2.048   3.054  15.266 -0.5691 -0.0005 -0.0992
  983TIP3    H124364   1.961   3.029  15.297 -1.5924  1.0556 -1.9147
  983TIP3    H224365   2.045   3.149  15.259  0.9435  0.1060  0.3333
  984TIP3   OH224366   1.093   5.007   2.238 -0.3936 -0.7652  0.1183
  984TIP3    H124367   1.020   5.059   2.273 -0.2735 -0.0217 -0.7140
  984TIP3    H224368   1.055   4.961   2.163  0.7603  2.4172 -2.6610
  985TIP3   OH224369   2.297   5.283  11.741 -0.1518  0.4474 -0.0752
  985TIP3    H124370   2.284   5.247  11.829  1.5486 -0.9443 -0.3299
  985TIP3    H224371   2.219   5.336  11.725  0.1299  1.9603  2.8186
  986TIP3   OH224372   2.485   1.396  17.128  0.0915 -0.0803 -0.1475
  986TIP3    H124373   2.564   1.428  17.086  1.9966 -0.4971  2.8122
  986TIP3    H224374   2.463   1.464  17.192 -0.3574 -1.1745  0.8972
  987TIP3   OH224375   0.528   6.350  13.750 -0.1763 -0.0506  0.3264
  987TIP3    H124376   0.470   6.395  13.688  1.0408  3.0693  1.2191
  987TIP3    H224377   0.609   6.335  13.701 -0.0853  0.0798  0.4346
  988TIP3   OH224378   4.145   4.654  11.128 -0.1705 -0.0670  0.4146
  988TIP3    H124379   4.118   4.674  11.038 -0.0348 -0.5217  0.2700
  988TIP3    H224380   4.168   4.739  11.165 -1.6383  0.3208  0.4995
  989TIP3   OH224381   3.610   2.078   6.569 -0.1890 -0.6106  0.5567
  989TIP3    H124382   3.638   2.014   6.634 -0.1834 -0.7701  0.3985
  989TIP3    H224383   3.613   2.031   6.486 -0.5788 -0.5254  0.4923
  990TIP3   OH224384   0.998   1.791   1.874 -0.2063 -0.1167 -0.3495
  990TIP3    H124385   1.068   1.769   1.813  0.8698 -0.2551  0.8884
  990TIP3    H224386   0.950   1.861   1.831  0.5304 -0.2014 -1.3450
  991TIP3   OH224387   5.660   0.811  15.490  0.1217 -0.0899 -0.0231
  991TIP3    H124388   5.564   0.811  15.492  0.1035 -0.5445 -0.4716
  991TIP3    H224389   5.685   0.900  15.513 -0.3333 -0.5686  2.5852
  992TIP3   OH224390   3.368   5.230  16.134  0.0769 -0.6497 -0.2323
  992TIP3    H124391   3.348   5.221  16.041 -0.0615 -0.3307 -0.2347
  992TIP3    H224392   3.293   5.193  16.179 -1.2906  1.8863 -0.2219
  993TIP3   OH224393   1.157   5.006   0.069 -0.7996 -0.2515  0.0178
  993TIP3    H124394   1.157   5.087   0.019 -0.8543 -0.1856  0.1239
  993TIP3    H224395   1.172   4.937   0.004  3.3433  0.1035  0.3296
  994TIP3   OH224396   2.344   4.272  14.250  0.4474 -0.5460  0.1330
  994TIP3    H124397   2.371   4.315  14.331  2.0152 -0.7540 -0.2563
  994TIP3    H224398   2.385   4.186  14.253 -0.9915 -1.2651 -0.0498
  995TIP3   OH224399   0.917   4.746  16.492 -0.3685 -0.1171 -0.1421
  995TIP3    H124400   0.935   4.696  16.572  0.0729  0.2190 -0.0254
  995TIP3    H224401   0.979   4.819  16.495 -0.3744 -0.0796 -0.7764
  996TIP3   OH224402   0.734   0.526  15.916 -0.4656  0.0313  0.0168
  996TIP3    H124403   0.742   0.489  15.828 -2.6007  0.7578 -0.5506
  996TIP3    H224404   0.641   0.524  15.934 -0.0493 -0.3185  2.4113
  997TIP3   OH224405   0.045   4.111   2.459  0.9175  0.1842  0.4840
  997TIP3    H124406  -0.036   4.063   2.472  0.3299  0.9038 -0.3422
  997TIP3    H224407   0.098   4.055   2.403 -0.0866  0.7783 -1.1443
  998TIP3   OH224408   4.183   4.351   2.248  0.5724  0.2130  0.2523
  998TIP3    H124409   4.168   4.281   2.184 -0.8782 -0.7014  1.5103
  998TIP3    H224410   4.278   4.354   2.260  0.7449 -0.6508 -0.7724
  999TIP3   OH224411   4.786   5.378   1.534 -0.2832  0.5232 -0.2583
  999TIP3    H124412   4.734   5.373   1.615  0.6308 -0.1682  0.2957
  999TIP3    H224413   4.721   5.397   1.466 -1.0300  1.4491  0.6718
 1000TIP3   OH224414   5.321   1.256   0.891 -0.1784 -0.2861  0.4842
 1000TIP3    H124415   5.385   1.220   0.829  0.2205  2.9206 -1.1766
 1000TIP3    H224416   5.238   1.256   0.843  0.1601  2.3443 -0.2873
 1001TIP3   OH224417   2.229   3.006  13.567 -0.1547  0.3612 -0.0255
 1001TIP3    H124418   2.290   2.995  13.641 -1.1305  0.2775  0.7806
 1001TIP3    H224419   2.284   2.994  13.489  1.1888  1.8755  0.6434
 1002TIP3   OH224420   6.255   2.702  11.368 -0.6242  0.0112  0.6134
 1002TIP3    H124421   6.196   2.688  11.441  0.4745 -1.6840  1.2342
 1002TIP3    H224422   6.324   2.758  11.403 -0.6794  0.1277  0.5378
 1003TIP3   OH224423   1.418   2.684   3.482  0.3846  0.4336  0.0694
 1003TIP3    H124424   1.345   2.650   3.431  0.9360  0.4545 -0.7568
 1003TIP3    H224425   1.396   2.663   3.572 -0.5629  0.3002 -0.1807
 1004TIP3   OH224426   5.126   6.254  12.040 -0.1464  0.0984  0.2198
 1004TIP3    H124427   5.102   6.232  11.949 -0.1599 -0.0655  0.2620
 1004TIP3    H224428   5.046   6.288  12.078 -0.3221 -0.4666  0.3655
 1005TIP3   OH224429   4.753   0.098   2.841  0.2526 -0.4844 -0.0728
 1005TIP3    H124430   4.735   0.009   2.809 -0.3975  0.0164 -1.1369
 1005TIP3    H224431   4.748   0.090   2.937 -0.9603 -1.3666 -0.1864
 1006TIP3   OH224432   5.954   1.749   0.669 -0.0892 -0.3088  0.1413
 1006TIP3    H124433   5.994   1.663   0.683 -0.8561 -1.0927 -1.9668
 1006TIP3    H224434   5.873   1.746   0.720 -0.1290 -0.8588  0.0572
 1007TIP3   OH224435   5.400   1.414   4.999  0.1093  0.1645 -0.0574
 1007TIP3    H124436   5.398   1.508   4.978 -0.5721  0.3836  0.9252
 1007TIP3    H224437   5.357   1.372   4.925 -1.9780  0.8891  0.6697
 1008TIP3   OH224438   3.585   1.293   2.843 -0.0930 -0.4279 -0.8443
 1008TIP3    H124439   3.668   1.324   2.881 -0.1651 -0.6090 -0.5396
 1008TIP3    H224440   3.608   1.268   2.753  0.1380 -0.2666 -0.8310
 1009TIP3   OH224441   4.517   3.019   0.179  0.1413  0.0657  0.2300
 1009TIP3    H124442   4.595   2.964   0.181 -0.7199 -1.2055  0.4951
 1009TIP3    H224443   4.444   2.956   0.175 -0.9291  1.1710  1.6073
 1010TIP3   OH224444   3.288   2.088   4.534  0.7515 -0.3432  0.2460
 1010TIP3    H124445   3.243   2.129   4.460  2.5399  0.7811 -0.3055
 1010TIP3    H224446   3.301   2.160   4.596  2.4081 -0.4052  0.0294
 1011TIP3   OH224447   5.950   5.699  13.865 -0.1433  0.1919 -0.5329
 1011TIP3    H124448   5.977   5.696  13.957 -1.4474 -0.8432 -0.1693
 1011TIP3    H224449   5.900   5.780  13.858 -1.8602 -0.7606  0.2188
 1012TIP3   OH224450   6.064   3.521  16.787  0.1284 -0.1605  0.9195
 1012TIP3    H124451   6.060   3.598  16.845 -2.5079  0.1039  0.4956
 1012TIP3    H224452   5.976   3.514  16.751  1.7487  0.2120 -3.8065
 1013TIP3   OH224453   5.517   5.659  12.746 -0.0353 -0.0166  0.6415
 1013TIP3    H124454   5.425   5.682  12.744 -0.0643 -0.1585 -0.4769
 1013TIP3    H224455   5.535   5.636  12.837 -1.6850 -2.2941  0.4755
 1014TIP3   OH224456   3.796   3.371   4.439 -0.0998 -0.1960 -0.5156
 1014TIP3    H124457   3.828   3.461   4.442 -4.4806  1.6029  2.4371
 1014TIP3    H224458   3.844   3.326   4.508  0.1132  0.7399 -0.0373
 1015TIP3   OH224459   3.349   3.120  15.183 -0.1739  0.1082  0.3398
 1015TIP3    H124460   3.278   3.178  15.212 -0.6357 -0.1326 -0.2798
 1015TIP3    H224461   3.357   3.055  15.252 -1.0776 -0.3028  0.0721
 1016TIP3   OH224462   3.312   0.348  10.757 -0.1617 -0.0468  0.6593
 1016TIP3    H124463   3.386   0.315  10.706 -0.7613 -1.1442  0.4750
 1016TIP3    H224464   3.336   0.438  10.778  0.1074  0.4691 -1.5664
 1017TIP3   OH224465   0.966   2.314  13.972 -0.0217 -0.1056  0.5431
 1017TIP3    H124466   1.036   2.328  14.036 -0.8238  2.5188  0.9490
 1017TIP3    H224467   1.011   2.315  13.888  0.7105 -0.9282  0.9055
 1018TIP3   OH224468   0.448   6.108  17.093  0.3892 -0.6137  0.2659
 1018TIP3    H124469   0.482   6.176  17.036  0.2991  1.1316  2.1767
 1018TIP3    H224470   0.513   6.099  17.162  0.3015 -2.3702  0.1818
 1019TIP3   OH224471   4.628   0.390  13.103  0.2786  0.3297  0.1194
 1019TIP3    H124472   4.704   0.415  13.155  0.3663  0.5941 -0.1326
 1019TIP3    H224473   4.581   0.472  13.087 -0.3485  0.0943  0.7232
 1020TIP3   OH224474   0.181   2.722   4.405  0.4478 -0.3280 -0.1464
 1020TIP3    H124475   0.213   2.810   4.385  0.4062  0.1413  1.6710
 1020TIP3    H224476   0.089   2.734   4.427  0.2902 -0.9335 -0.4418
 1021TIP3   OH224477   5.437   2.748  16.579 -0.3015  0.1982 -0.1754
 1021TIP3    H124478   5.370   2.717  16.640 -0.9946  0.6859 -0.6736
 1021TIP3    H224479   5.403   2.832  16.547  0.0075 -0.0746 -1.2770
 1022TIP3   OH224480   4.785   1.016   2.602 -0.7808 -0.0617  0.0864
 1022TIP3    H124481   4.801   0.981   2.690  0.9918  2.8606  1.0606
 1022TIP3    H224482   4.696   1.051   2.605 -0.0341  1.8789  1.4931
 1023TIP3   OH224483   2.814   1.496   0.361 -0.1765  0.2783 -0.0871
 1023TIP3    H124484   2.745   1.508   0.296  1.5484 -1.5438 -2.3854
 1023TIP3    H224485   2.767   1.492   0.445 -2.6349  0.9601 -1.3483
 1024TIP3   OH224486   3.242   5.654  15.313  0.1028 -0.2010  0.3053
 1024TIP3    H124487   3.280   5.638  15.400 -0.4181 -0.8483  0.4235
 1024TIP3    H224488   3.318   5.671  15.257  0.3919  1.3733  1.0976
 1025TIP3   OH224489   1.409   3.872   5.884  0.2956  0.2409 -0.4692
 1025TIP3    H124490   1.376   3.829   5.962 -0.2901 -0.7956 -1.2628
 1025TIP3    H224491   1.496   3.833   5.869 -0.1703 -0.5751 -1.1012
 1026TIP3   OH224492   0.217   4.688  13.832 -0.2097 -0.2276 -0.1614
 1026TIP3    H124493   0.278   4.734  13.774  0.3295  0.8294  1.1880
 1026TIP3    H224494   0.131   4.703  13.793 -0.0945  2.2093  0.3453
 1027TIP3   OH224495   3.429   5.417   0.336  0.9630  0.4093 -0.1829
 1027TIP3    H124496   3.378   5.456   0.265  0.5624 -1.1139 -0.7866
 1027TIP3    H224497   3.518   5.409   0.300  0.8718  0.0927 -0.3452
 1028TIP3   OH224498   3.597   4.855   4.756  0.0010  0.3813  0.5693
 1028TIP3    H124499   3.567   4.789   4.694  0.2367  1.0723 -0.3052
 1028TIP3    H224500   3.693   4.847   4.756 -0.0504 -0.4773  1.8339
 1029TIP3   OH224501   1.494   2.412   1.824 -0.6905 -0.3932 -0.2553
 1029TIP3    H124502   1.509   2.318   1.825  1.0967 -0.1693  1.0518
 1029TIP3    H224503   1.418   2.425   1.881  0.4614 -0.9114  1.4727
 1030TIP3   OH224504   3.470   2.164  15.033 -0.0006  0.2601 -0.8019
 1030TIP3    H124505   3.481   2.094  15.097  0.2301 -0.0015 -1.1214
 1030TIP3    H224506   3.430   2.121  14.957  1.2398  0.2170 -1.4528
 1031TIP3   OH224507   1.210   5.269  11.877  0.8973  0.3801 -0.2004
 1031TIP3    H124508   1.242   5.359  11.878 -0.1757  0.8538 -2.5704
 1031TIP3    H224509   1.289   5.217  11.862  1.3558  1.0008 -0.0134
 1032TIP3   OH224510   0.376   4.186  13.672 -0.0359  0.7842  0.3100
 1032TIP3    H124511   0.468   4.210  13.681  0.1724  0.6385 -1.1610
 1032TIP3    H224512   0.375   4.119  13.604 -1.2092  0.5772  0.4962
 1033TIP3   OH224513   3.411   5.539   3.068  0.1769  0.0427 -0.2269
 1033TIP3    H124514   3.391   5.631   3.051  0.1305 -0.3565 -2.7208
 1033TIP3    H224515   3.395   5.527   3.162  0.2290  2.5643  0.1547
 1034TIP3   OH224516   4.507   3.471  17.214 -0.3950 -0.1022 -0.0772
 1034TIP3    H124517   4.598   3.472  17.186 -0.6465  1.4228 -0.9334
 1034TIP3    H224518   4.512   3.487  17.309  0.3036 -2.5496  0.3885
 1035TIP3   OH224519   3.833   1.692   0.875  0.1881  0.1763 -0.3684
 1035TIP3    H124520   3.839   1.622   0.810 -1.1803  0.4899 -0.8578
 1035TIP3    H224521   3.860   1.771   0.828  1.8876 -0.0092  0.2274
 1036TIP3   OH224522   4.485   0.020   0.288 -0.4231  0.0538  0.8184
 1036TIP3    H124523   4.420   0.062   0.345 -2.3020  0.0209 -1.1543
 1036TIP3    H224524   4.528   0.093   0.244 -0.5323  0.0421  0.6891
 1037TIP3   OH224525   2.152   3.583   3.887 -0.5020  0.1968 -0.1294
 1037TIP3    H124526   2.071   3.551   3.848 -1.1293 -0.6565  1.7245
 1037TIP3    H224527   2.124   3.651   3.949  0.1194 -0.3899  0.8324
 1038TIP3   OH224528   6.329   3.706   2.529 -0.4769 -0.0975  0.1691
 1038TIP3    H124529   6.243   3.665   2.537 -0.2591 -0.4668  0.6545
 1038TIP3    H224530   6.317   3.774   2.462 -0.8386 -0.9337 -0.6278
 1039TIP3   OH224531   5.146   4.570  10.903  0.0945  0.2426 -0.4272
 1039TIP3    H124532   5.053   4.549  10.893  0.5368 -1.6312 -1.1682
 1039TIP3    H224533   5.191   4.487  10.885  1.9082  1.0630  0.0790
 1040TIP3   OH224534   4.515   0.521   0.085 -0.8343  0.2590 -0.3108
 1040TIP3    H124535   4.516   0.616   0.075  0.2765  0.2841 -0.0892
 1040TIP3    H224536   4.554   0.488   0.004 -1.2467 -0.0156 -0.4027
 1041TIP3   OH224537   0.961   5.419  11.284  0.3377 -0.3034  0.4912
 1041TIP3    H124538   1.041   5.410  11.232 -0.6509  1.0208 -1.3935
 1041TIP3    H224539   0.893   5.379  11.230 -0.5718  0.1854  1.2499
 1042TIP3   OH224540   1.914   0.151   0.310 -0.1377  0.0080 -0.3797
 1042TIP3    H124541   1.877   0.180   0.394 -1.0300 -0.8225 -0.4616
 1042TIP3    H224542   1.840   0.153   0.250  0.4781  0.4999 -1.1385
 1043TIP3   OH224543   2.720   6.446  17.119  0.2801  0.1798  0.2851
 1043TIP3    H124544   2.715   6.354  17.144  1.1594 -0.8433 -2.8505
 1043TIP3    H224545   2.814   6.463  17.109  0.1135  1.3605  0.5813
 1044TIP3   OH224546   3.153   1.925  16.716  0.2801  0.3684  0.3447
 1044TIP3    H124547   3.159   1.916  16.811 -0.5654 -0.2274  0.3508
 1044TIP3    H224548   3.068   1.966  16.701 -0.0658 -0.5132 -0.1935
 1045TIP3   OH224549   4.977   0.281   1.917 -0.2359 -0.4086 -0.2131
 1045TIP3    H124550   4.911   0.216   1.939  0.8249 -0.7080  2.3456
 1045TIP3    H224551   5.048   0.232   1.876  0.5853 -0.9571  1.7598
 1046TIP3   OH224552   1.699   5.740   0.296 -0.2194 -0.4463 -0.4160
 1046TIP3    H124553   1.789   5.707   0.288 -0.5817 -1.1435 -2.0005
 1046TIP3    H224554   1.644   5.666   0.270 -1.1590  0.5586 -1.4188
 1047TIP3   OH224555   4.270   5.065  16.918 -0.1310  0.0622  0.4024
 1047TIP3    H124556   4.256   5.160  16.923 -0.8404 -0.0173  0.0203
 1047TIP3    H224557   4.248   5.033  17.005  1.9186  0.4626  1.1066
 1048TIP3   OH224558   2.820   0.456  12.372  0.3634  0.1725  0.2127
 1048TIP3    H124559   2.892   0.403  12.337  1.5123  1.6777  0.2355
 1048TIP3    H224560   2.743   0.426  12.322  0.9762 -1.4347  0.1605
 1049TIP3   OH224561   1.199   1.103  12.328  0.3797 -0.1073 -0.1719
 1049TIP3    H124562   1.130   1.127  12.390  0.4712  0.1392 -0.1682
 1049TIP3    H224563   1.187   1.163  12.254  0.2686 -0.4004 -0.3965
 1050TIP3   OH224564   6.419   3.950  13.102 -0.0288  0.2805  0.2010
 1050TIP3    H124565   6.437   3.987  13.188 -0.2885 -0.5616  0.6297
 1050TIP3    H224566   6.441   3.857  13.111  1.0852  0.3941 -0.9871
 1051TIP3   OH224567   0.746   3.071  13.452  0.0352  0.4154  0.3124
 1051TIP3    H124568   0.779   3.078  13.542 -2.6877  2.6423  1.2759
 1051TIP3    H224569   0.707   2.984  13.448 -0.4577  0.5593  1.5730
 1052TIP3   OH224570   2.012   1.476  11.923  0.3076  0.3227 -0.2650
 1052TIP3    H124571   1.921   1.483  11.953 -0.0681 -1.3629 -0.9039
 1052TIP3    H224572   2.026   1.555  11.871 -0.4301  1.1289  0.7173
 1053TIP3   OH224573   3.394   1.392  16.083  0.3091  0.2728  0.0867
 1053TIP3    H124574   3.407   1.377  16.177  0.8536 -0.8322 -0.1519
 1053TIP3    H224575   3.479   1.373  16.043 -0.5058 -1.6053 -0.8777
 1054TIP3   OH224576   4.931   0.333   2.864 -0.7701 -0.1374  0.2733
 1054TIP3    H124577   4.877   0.393   2.811  1.1549  0.3286 -1.2770
 1054TIP3    H224578   4.898   0.246   2.841 -1.0241  0.1456 -0.4909
 1055TIP3   OH224579   0.843   1.089  10.501 -0.1537 -0.1335 -0.1132
 1055TIP3    H124580   0.782   1.053  10.437 -1.1412 -0.2853  0.8685
 1055TIP3    H224581   0.926   1.097  10.455 -0.5677 -1.2488 -1.0854
 1056TIP3   OH224582   4.230   6.427  14.500  0.4232 -0.6399 -0.7704
 1056TIP3    H124583   4.242   6.510  14.455  0.0650 -1.0964 -1.7415
 1056TIP3    H224584   4.137   6.406  14.488  0.0263 -0.1875  1.2445
 1057TIP3   OH224585   4.457   5.424   0.838 -0.2333  0.1952  0.1310
 1057TIP3    H124586   4.549   5.446   0.855  0.1189 -1.6334  0.8488
 1057TIP3    H224587   4.458   5.388   0.749 -0.1216 -0.4351  0.3817
 1058TIP3   OH224588   3.412   3.634  13.394  0.3469 -0.1243 -0.0313
 1058TIP3    H124589   3.481   3.697  13.413  1.4207 -1.3863  0.3307
 1058TIP3    H224590   3.435   3.598  13.309  0.8340 -1.4542  0.6500
 1059TIP3   OH224591   0.091   5.225   4.346  0.2936  0.2319  0.0733
 1059TIP3    H124592   0.176   5.188   4.322 -0.0761 -0.5653 -0.0648
 1059TIP3    H224593   0.032   5.193   4.279 -0.3937 -0.4362  0.9745
 1060TIP3   OH224594   0.648   1.285   4.422 -0.0990 -0.5315  0.0708
 1060TIP3    H124595   0.636   1.303   4.329 -0.8992 -0.1238  0.2458
 1060TIP3    H224596   0.575   1.227   4.444 -0.9155  0.7465  0.8204
 1061TIP3   OH224597   4.283   1.394  15.860  0.3665 -0.0019  0.4799
 1061TIP3    H124598   4.237   1.311  15.872  0.7492 -0.4099 -0.6393
 1061TIP3    H224599   4.376   1.369  15.858  0.4756  0.4207  0.0026
 1062TIP3   OH224600   5.417   6.109   0.597 -0.3856  0.4377 -0.3901
 1062TIP3    H124601   5.378   6.023   0.611 -0.5186  0.7090  1.0576
 1062TIP3    H224602   5.499   6.091   0.553 -0.6189 -0.4000 -0.5014
 1063TIP3   OH224603   1.896   2.470   4.836 -0.0399 -0.1783  0.3440
 1063TIP3    H124604   1.983   2.495   4.867  0.7668 -0.9935 -1.1081
 1063TIP3    H224605   1.858   2.551   4.801  1.2058 -0.2541 -1.3191
 1064TIP3   OH224606   2.253   4.354   2.108 -0.4923 -0.2992 -0.4929
 1064TIP3    H124607   2.342   4.383   2.129 -0.4536  0.7652 -1.9699
 1064TIP3    H224608   2.199   4.387   2.181  0.1549 -0.0153 -0.1399
 1065TIP3   OH224609   2.472   0.355   1.864  0.3861 -0.1386 -0.0638
 1065TIP3    H124610   2.386   0.348   1.907  0.3000 -0.8695 -0.3320
 1065TIP3    H224611   2.488   0.267   1.830  1.0203  0.1230 -0.4478
 1066TIP3   OH224612   4.796   3.615  15.162  0.6281 -0.3872 -0.3914
 1066TIP3    H124613   4.815   3.707  15.145  0.5658 -0.5673 -1.5225
 1066TIP3    H224614   4.757   3.583  15.080 -1.2863 -0.8962  0.6477
 1067TIP3   OH224615   3.956   2.526   0.595 -0.3726 -0.0482 -0.0008
 1067TIP3    H124616   3.915   2.439   0.599  1.2385 -0.8590 -0.1786
 1067TIP3    H224617   3.969   2.551   0.686 -0.5731 -0.1214  0.0492
 1068TIP3   OH224618   3.333   5.144   3.729 -0.1257 -0.4025 -0.1581
 1068TIP3    H124619   3.251   5.191   3.743 -0.1894 -0.4700 -0.2986
 1068TIP3    H224620   3.334   5.124   3.635 -0.6298 -1.6498  0.0755
 1069TIP3   OH224621   2.330   5.295   6.267  0.0303 -0.0052  0.1177
 1069TIP3    H124622   2.314   5.387   6.285 -1.5644  0.0551 -1.3330
 1069TIP3    H224623   2.423   5.282   6.286  0.1752  1.7776  0.7589
 1070TIP3   OH224624   4.235   1.103  15.841 -0.0657  0.1890 -1.1752
 1070TIP3    H124625   4.146   1.090  15.808 -0.0193 -1.1868 -0.7837
 1070TIP3    H224626   4.274   1.016  15.841  0.8338  0.5663 -0.0598
 1071TIP3   OH224627   6.051   1.172   6.303 -0.8296 -0.0214  0.0965
 1071TIP3    H124628   6.119   1.153   6.368 -0.7034 -2.2509 -0.6135
 1071TIP3    H224629   6.029   1.264   6.317  0.1138 -0.0958  2.4226
 1072TIP3   OH224630   4.691   0.032   3.580 -0.0190  0.4356 -0.2123
 1072TIP3    H124631   4.734  -0.041   3.623  1.1562  1.5330  0.5440
 1072TIP3    H224632   4.627   0.063   3.644 -0.2901  0.2882 -0.4069
 1073TIP3   OH224633   6.583   1.466  17.162  0.5369 -1.2851  0.2297
 1073TIP3    H124634   6.657   1.515  17.125 -0.8244 -0.0047 -0.9270
 1073TIP3    H224635   6.510   1.485  17.104 -1.4979 -0.0115  2.9716
 1074TIP3   OH224636   6.493   1.039  11.794  0.5830  0.0366 -0.3766
 1074TIP3    H124637   6.436   0.974  11.835 -1.1164  1.1088 -0.8825
 1074TIP3    H224638   6.579   0.998  11.790  0.1870 -1.1644  1.6770
 1075TIP3   OH224639   6.494   5.636  13.214  0.2081 -0.0246 -0.0071
 1075TIP3    H124640   6.547   5.669  13.141  0.2079 -0.9645 -0.4559
 1075TIP3    H224641   6.496   5.541  13.203 -2.2889 -0.0908 -0.5550
 1076TIP3   OH224642   6.198   1.248   1.611  0.0979  0.0174  0.3517
 1076TIP3    H124643   6.209   1.160   1.574 -0.9581  0.1094 -0.2141
 1076TIP3    H224644   6.193   1.233   1.706 -1.0707 -0.6655  0.2020
 1077TIP3   OH224645   4.790   1.281   2.849 -0.4008 -0.2626  0.3801
 1077TIP3    H124646   4.725   1.211   2.846 -0.3156 -0.3647  0.8999
 1077TIP3    H224647   4.759   1.340   2.918 -0.0974 -0.1552  0.4286
 1078TIP3   OH224648   3.203   4.117  14.978  0.2577 -0.0696  0.4737
 1078TIP3    H124649   3.147   4.041  14.962  0.2967 -0.2229  1.0173
 1078TIP3    H224650   3.142   4.187  15.003  0.0660  0.5790 -1.6569
 1079TIP3   OH224651   4.321   4.608  13.560 -0.2007 -0.4706  0.1403
 1079TIP3    H124652   4.326   4.696  13.525  3.2131 -0.7183 -0.3875
 1079TIP3    H224653   4.351   4.617  13.651  1.5737 -1.1886 -0.3296
 1080TIP3   OH224654   6.455   1.610  11.551  0.0171  0.0991 -0.2136
 1080TIP3    H124655   6.475   1.562  11.631 -0.3423  0.3784  0.0494
 1080TIP3    H224656   6.416   1.692  11.581 -1.3907 -0.3610 -0.6853
 1081TIP3   OH224657   4.665   1.210   2.330 -0.8479 -0.1427 -0.0423
 1081TIP3    H124658   4.672   1.286   2.387 -0.4682  0.2976 -0.6636
 1081TIP3    H224659   4.750   1.204   2.287 -1.4350  0.1101 -1.2769
 1082TIP3   OH224660   4.056   3.860  10.274  0.1962  0.3543  0.5155
 1082TIP3    H124661   3.970   3.866  10.317  0.3949 -2.3581  1.4484
 1082TIP3    H224662   4.036   3.837  10.183 -0.0571  0.4338  0.5490
 1083TIP3   OH224663   0.030   6.320  12.175  0.3035 -0.2631 -0.6009
 1083TIP3    H124664   0.124   6.332  12.159  0.5044  2.0300  1.6209
 1083TIP3    H224665  -0.012   6.344  12.092  1.6289 -1.1744 -1.5836
 1084TIP3   OH224666   0.642   3.658  13.271 -0.0759 -0.0022 -0.2536
 1084TIP3    H124667   0.661   3.576  13.226  0.2706 -0.3335  0.4810
 1084TIP3    H224668   0.568   3.637  13.329 -1.4881  0.7819 -1.6823
 1085TIP3   OH224669   5.823   5.979   3.063 -0.0448  0.2113  0.3928
 1085TIP3    H124670   5.743   6.030   3.074  1.1859  2.0654  1.1677
 1085TIP3    H224671   5.877   6.002   3.139  0.9787 -1.4984  0.2330
 1086TIP3   OH224672   1.215   5.400  13.570 -0.1065  0.1919 -0.1759
 1086TIP3    H124673   1.206   5.487  13.609 -0.3707  0.6092 -1.1598
 1086TIP3    H224674   1.248   5.346  13.642 -1.1020  0.8216  0.7914
 1087TIP3   OH224675   6.399   2.472   3.756  0.3194  0.1038  0.1568
 1087TIP3    H124676   6.372   2.529   3.828 -0.5364 -0.4371  0.2704
 1087TIP3    H224677   6.477   2.428   3.789 -0.8594 -1.1941  1.3301
 1088TIP3   OH224678   2.779   3.417   0.767 -0.3808 -0.3944  0.6189
 1088TIP3    H124679   2.812   3.412   0.677 -0.4642  0.0377  0.5623
 1088TIP3    H224680   2.685   3.431   0.757 -0.2512  0.6535  0.7605
 1089TIP3   OH224681   1.972   5.424  16.699  0.1323 -0.2055  0.4842
 1089TIP3    H124682   1.977   5.414  16.794 -0.5609  0.0241  0.5534
 1089TIP3    H224683   2.045   5.373  16.665  1.7738  1.5036  1.2409
 1090TIP3   OH224684   2.097   5.418  10.218 -0.3065  0.2230  0.2266
 1090TIP3    H124685   2.056   5.355  10.159  1.7299 -1.2440  0.2730
 1090TIP3    H224686   2.184   5.382  10.235  1.4687  3.6568 -0.7197
 1091TIP3   OH224687   4.489   6.429   1.666 -0.4237  0.1776  0.1715
 1091TIP3    H124688   4.515   6.465   1.751 -2.3159 -1.6330  1.6364
 1091TIP3    H224689   4.569   6.389   1.632  0.2486  0.4045  1.3971
 1092TIP3   OH224690   4.322   3.318   3.891  0.1032 -0.7361 -0.5860
 1092TIP3    H124691   4.232   3.351   3.896 -0.0748 -0.8012 -2.4545
 1092TIP3    H224692   4.371   3.390   3.849  0.8767 -0.7932  0.2046
 1093TIP3   OH224693   2.391   0.044  15.323  0.0730 -0.3943 -0.4266
 1093TIP3    H124694   2.314   0.068  15.375  1.1755 -1.7131  1.9648
 1093TIP3    H224695   2.419   0.126  15.282 -3.0161 -0.0277 -2.0677
 1094TIP3   OH224696   6.735   1.910   1.319  0.3614 -0.2127  0.2878
 1094TIP3    H124697   6.694   1.996   1.307  0.9251 -0.1080 -1.1255
 1094TIP3    H224698   6.747   1.877   1.230  0.3029 -1.6982  0.8097
 1095TIP3   OH224699   6.060   6.539  16.275 -0.3919 -0.2127  0.2936
 1095TIP3    H124700   6.003   6.584  16.338  1.5649  1.1503  1.2040
 1095TIP3    H224701   6.127   6.497  16.329  0.8230  0.2315 -0.7999
 1096TIP3   OH224702   2.134   1.877  14.647 -0.3797  0.0889 -0.5010
 1096TIP3    H124703   2.089   1.797  14.673  0.8224 -0.2347  0.7508
 1096TIP3    H224704   2.068   1.929  14.603 -1.8957 -0.4999  0.9593
 1097TIP3   OH224705   1.331   1.458  14.272 -0.0736 -0.7027 -0.3253
 1097TIP3    H124706   1.338   1.398  14.346  0.3982 -0.0090  0.2087
 1097TIP3    H224707   1.421   1.470  14.243 -0.0696  0.3381  0.0730
 1098TIP3   OH224708   5.050   0.509   3.437 -0.4566 -0.6912  0.3169
 1098TIP3    H124709   5.052   0.444   3.367 -0.5591  0.6780 -1.0186
 1098TIP3    H224710   5.063   0.593   3.392  2.5992  0.0390  2.2760
 1099TIP3   OH224711   4.616   4.369  12.955  0.0769  0.2493  0.6263
 1099TIP3    H124712   4.672   4.441  12.925  0.0519  0.2202  0.5097
 1099TIP3    H224713   4.582   4.330  12.875  2.4864 -1.8455  0.4860
 1100TIP3   OH224714   5.490   3.016   4.186  0.1824 -0.2231 -0.3565
 1100TIP3    H124715   5.486   3.037   4.279  0.1150  0.3160 -0.4809
 1100TIP3    H224716   5.545   2.937   4.182 -1.6988 -1.6731  0.3728
 1101TIP3   OH224717   1.828   1.893  14.783 -0.0451  0.2584  0.2309
 1101TIP3    H124718   1.845   1.897  14.689  0.4084  0.4777  0.3169
 1101TIP3    H224719   1.787   1.808  14.796 -0.7558  0.5141 -0.2621
 1102TIP3   OH224720   5.282   0.398  13.962  0.3874  0.6187 -0.0188
 1102TIP3    H124721   5.207   0.455  13.945 -0.3462 -0.2628  0.2142
 1102TIP3    H224722   5.358   0.452  13.940 -0.3027  1.5526 -0.1815
 1103TIP3   OH224723   3.580   5.213   4.127 -0.0353  0.0271 -0.0713
 1103TIP3    H124724   3.613   5.302   4.120  2.4620 -0.7168  1.0673
 1103TIP3    H224725   3.616   5.168   4.051 -0.3442 -0.2958 -0.0321
 1104TIP3   OH224726   1.959   5.019   0.645 -0.2109 -0.1248 -0.3655
 1104TIP3    H124727   1.952   5.087   0.578 -0.6267 -0.3760 -0.5791
 1104TIP3    H224728   2.035   5.045   0.698 -0.7508  0.8438 -0.0477
 1105TIP3   OH224729   4.934   5.147   6.247  0.7226 -0.1015  0.1292
 1105TIP3    H124730   4.900   5.073   6.296 -0.7221  0.7082  0.4095
 1105TIP3    H224731   5.021   5.163   6.284  0.7237 -1.1387  0.6005
 1106TIP3   OH224732   1.956   5.939   3.467 -0.3783  0.0009  0.3469
 1106TIP3    H124733   1.885   5.934   3.531 -0.9321  0.8132 -0.1977
 1106TIP3    H224734   1.913   5.942   3.382  0.3400 -0.4808 -0.0442
 1107TIP3   OH224735   5.817   6.082  10.928  0.1159 -0.1762 -0.1150
 1107TIP3    H124736   5.878   6.140  10.882 -0.1873  0.3874  0.1908
 1107TIP3    H224737   5.798   6.013  10.864  1.7442 -0.8564  0.0688
 1108TIP3   OH224738   2.736   6.551   3.729 -0.2999 -0.4565  0.1847
 1108TIP3    H124739   2.748   6.641   3.758 -0.3344 -0.6303  0.7350
 1108TIP3    H224740   2.824   6.512   3.734 -0.2118 -0.3524 -0.4134
 1109TIP3   OH224741   1.445   1.710  15.419 -0.0748  0.2121  0.1769
 1109TIP3    H124742   1.526   1.753  15.391 -0.3056  0.2417 -0.4465
 1109TIP3    H224743   1.376   1.756  15.372 -0.5936  1.0436  1.6765
 1110TIP3   OH224744   5.525   1.875  16.905 -0.1114 -0.0203  0.2865
 1110TIP3    H124745   5.437   1.909  16.886  0.2831 -0.0269 -1.7590
 1110TIP3    H224746   5.537   1.891  16.999 -1.9985  0.6513  0.4594
 1111TIP3   OH224747   3.250   3.612  13.093 -0.1548 -0.0049 -0.5496
 1111TIP3    H124748   3.204   3.552  13.152  0.2281  0.3691  0.1465
 1111TIP3    H224749   3.284   3.557  13.023  0.3443 -0.6222  0.1710
 1112TIP3   OH224750   6.168   4.415   4.659 -0.0622  0.1784  0.8893
 1112TIP3    H124751   6.125   4.474   4.721 -1.7436 -0.4061  0.3169
 1112TIP3    H224752   6.182   4.469   4.581  1.0021  0.5870  1.3413
 1113TIP3   OH224753   2.990   5.038  16.619 -0.5273  0.0445 -0.0824
 1113TIP3    H124754   3.037   4.958  16.644  2.0921  1.3338 -0.4507
 1113TIP3    H224755   3.009   5.048  16.526  0.4621  1.8067  0.2656
 1114TIP3   OH224756   5.218   2.992   5.059 -0.5821  0.3969  0.4354
 1114TIP3    H124757   5.222   3.000   5.154 -0.2352 -1.9504  0.6812
 1114TIP3    H224758   5.128   2.963   5.042 -0.0075 -1.4028  0.3033
 1115TIP3   OH224759   6.464   4.429   3.857 -0.2061  0.6555  0.0786
 1115TIP3    H124760   6.469   4.366   3.929 -0.1310 -0.3359 -0.7781
 1115TIP3    H224761   6.473   4.515   3.900  0.3427  0.0613  1.1941
 1116TIP3   OH224762   3.555   4.896  14.705 -0.3805 -0.2671 -0.0133
 1116TIP3    H124763   3.611   4.953  14.652  0.7817 -0.9988  0.4054
 1116TIP3    H224764   3.466   4.918  14.677  0.1671 -0.2206 -1.8562
 1117TIP3   OH224765   1.204   6.441  17.054 -0.3528 -0.0053  0.5009
 1117TIP3    H124766   1.244   6.365  17.012 -0.2976  0.1631  0.2477
 1117TIP3    H224767   1.261   6.514  17.032 -0.2061  0.0526  1.0464
 1118TIP3   OH224768   6.747   6.398   2.735  0.5714  0.3214  0.6080
 1118TIP3    H124769   6.806   6.456   2.689 -2.2237  2.4298 -0.5847
 1118TIP3    H224770   6.727   6.328   2.672 -1.1973  1.7810 -0.5529
 1119TIP3   OH224771   1.384   5.101   3.568  0.0393 -0.0354  0.0381
 1119TIP3    H124772   1.338   5.018   3.561 -1.8255  0.8103  1.5286
 1119TIP3    H224773   1.334   5.161   3.512  1.9223 -0.0484 -1.8156
 1120TIP3   OH224774   0.310   6.759   0.662 -0.7907  0.0724  0.5906
 1120TIP3    H124775   0.273   6.754   0.751  0.3079  1.5833  1.1727
 1120TIP3    H224776   0.388   6.703   0.666 -1.1360 -0.4326  0.3518
 1121TIP3   OH224777   0.514   4.225  15.953 -0.3840  0.1485  0.1739
 1121TIP3    H124778   0.539   4.232  16.045 -0.7335  0.4139  0.2483
 1121TIP3    H224779   0.595   4.203  15.908  0.2304  2.0027  0.2767
 1122TIP3   OH224780   0.723   1.339  11.105  0.2816 -0.2427 -0.0149
 1122TIP3    H124781   0.777   1.405  11.148  1.3691 -0.6036 -0.8002
 1122TIP3    H224782   0.785   1.273  11.073 -0.8724 -2.5169  2.1321
 1123TIP3   OH224783   1.184   3.418  10.597  0.0453 -0.1610  0.2553
 1123TIP3    H124784   1.271   3.458  10.598  0.3198 -0.7473  0.4673
 1123TIP3    H224785   1.143   3.446  10.678 -1.0265  2.3501 -1.0450
 1124TIP3   OH224786   2.469   5.062   5.327 -0.5950 -0.0131  0.0421
 1124TIP3    H124787   2.490   4.972   5.356 -0.7554 -0.3058 -0.7301
 1124TIP3    H224788   2.420   5.100   5.400  1.1646  0.1234  1.2153
 1125TIP3   OH224789   6.719   4.313  10.936 -0.2257 -0.7039 -0.2468
 1125TIP3    H124790   6.635   4.315  10.983 -1.0149 -0.0077 -1.6250
 1125TIP3    H224791   6.697   4.283  10.848  1.1832 -1.7074 -0.2912
 1126TIP3   OH224792   4.663   3.930   2.589 -0.0656  0.3938  0.2608
 1126TIP3    H124793   4.734   3.961   2.645  1.3071  0.8755 -1.6063
 1126TIP3    H224794   4.583   3.966   2.628  0.1715 -2.7910  4.2925
 1127TIP3   OH224795   1.144   0.862   4.804 -0.3762  0.4321 -0.4128
 1127TIP3    H124796   1.212   0.810   4.848 -1.4788  0.7286  1.7552
 1127TIP3    H224797   1.131   0.818   4.720  1.4963 -0.4366 -0.3064
 1128TIP3   OH224798   0.209   2.140  15.713  0.1465  0.0229  0.1693
 1128TIP3    H124799   0.120   2.111  15.734 -0.4239  0.9527 -0.8958
 1128TIP3    H224800   0.264   2.066  15.736 -0.6611  0.1158  2.7502
 1129TIP3   OH224801   4.137   5.006  16.703  0.1618  0.2476 -0.8703
 1129TIP3    H124802   4.202   4.998  16.773 -0.5749  1.0794 -0.0720
 1129TIP3    H224803   4.149   5.095  16.669 -1.5264  0.9623  0.2925
 1130TIP3   OH224804   0.643   2.871  16.234 -0.2080  0.4330 -0.0411
 1130TIP3    H124805   0.704   2.840  16.301  0.1288  0.5715 -0.2830
 1130TIP3    H224806   0.601   2.791  16.202  0.5812  0.2183 -0.5883
 1131TIP3   OH224807   4.116   4.259   4.256 -0.2081  0.0730  0.1426
 1131TIP3    H124808   4.203   4.279   4.223  1.2602 -1.2190  2.9316
 1131TIP3    H224809   4.118   4.284   4.349 -2.6281 -0.5102  0.4393
 1132TIP3   OH224810   4.931   6.611  12.953  0.1460 -0.0167 -0.3920
 1132TIP3    H124811   4.847   6.626  12.996  0.8986 -0.2687  1.2327
 1132TIP3    H224812   4.937   6.516  12.945  0.7506 -0.0635  0.5148
 1133TIP3   OH224813   5.768   1.026   3.921 -0.2276  0.0814 -0.8198
 1133TIP3    H124814   5.861   1.036   3.899 -0.1293  3.2157  0.5513
 1133TIP3    H224815   5.769   0.977   4.004  0.0548 -1.2847 -1.5992
 1134TIP3   OH224816   5.772   4.034  11.081  0.4649  0.1937  0.4924
 1134TIP3    H124817   5.846   4.050  11.022  1.6168 -0.6331  1.6647
 1134TIP3    H224818   5.779   4.102  11.147 -0.0365  0.3254  0.4100
 1135TIP3   OH224819   6.678   0.159  15.692 -1.0051 -0.7246 -0.1017
 1135TIP3    H124820   6.598   0.193  15.652 -0.1386  0.3416 -1.0132
 1135TIP3    H224821   6.722   0.112  15.621  0.4398  0.9760 -0.3953
 1136TIP3   OH224822   3.087   3.520   5.860  0.4174  0.2475 -0.0469
 1136TIP3    H124823   3.041   3.588   5.910 -0.3838 -1.7248  2.0329
 1136TIP3    H224824   3.163   3.498   5.914 -1.9151 -3.9058  2.0559
 1137TIP3   OH224825   3.753   0.377   1.425  0.9570  0.1063  0.1701
 1137TIP3    H124826   3.705   0.335   1.354 -0.1086  1.2641  0.1757
 1137TIP3    H224827   3.831   0.414   1.384  1.8495 -1.6982  0.1414
 1138TIP3   OH224828   0.268   3.103  13.454  0.3911 -0.5083  0.2078
 1138TIP3    H124829   0.288   3.152  13.533  0.6743 -0.3968  0.0674
 1138TIP3    H224830   0.306   3.016  13.470  3.1692  0.3770 -1.0136
 1139TIP3   OH224831   4.127   5.998  10.638 -0.7185 -0.2711 -0.7921
 1139TIP3    H124832   4.182   5.933  10.595  1.1234  0.0064  1.0184
 1139TIP3    H224833   4.167   6.082  10.613  0.5106 -0.1133  1.5022
 1140TIP3   OH224834   6.066   5.179   6.360 -0.3195 -0.4918  0.1861
 1140TIP3    H124835   5.987   5.138   6.325  1.1557 -1.5203 -2.1615
 1140TIP3    H224836   6.130   5.108   6.364  1.5332  0.9933 -1.4648
 1141TIP3   OH224837   5.081   3.584  12.297 -0.2242  0.7800  0.2554
 1141TIP3    H124838   5.107   3.653  12.236  0.5096  0.5991  0.3462
 1141TIP3    H224839   5.145   3.514  12.282 -0.3846  0.5027  0.8341
 1142TIP3   OH224840   1.471   1.826   1.925  0.4298  0.2451  0.2975
 1142TIP3    H124841   1.412   1.859   1.992  1.3837  0.6961  0.9391
 1142TIP3    H224842   1.454   1.731   1.923  0.5710  0.1817  1.3691
 1143TIP3   OH224843   0.921   0.499   0.396 -0.2044 -0.0662  0.6520
 1143TIP3    H124844   0.953   0.580   0.436 -0.0625 -0.4034  1.2249
 1143TIP3    H224845   0.877   0.453   0.467 -1.5911  0.1823 -0.0146
 1144TIP3   OH224846   1.045   2.581   3.845  0.5204 -0.0457  0.3349
 1144TIP3    H124847   1.001   2.653   3.890  1.2814  1.2619 -0.9389
 1144TIP3    H224848   0.975   2.516   3.832 -0.8841  1.5797 -0.8078
 1145TIP3   OH224849   1.228   4.385  15.754 -0.8616 -0.1200  0.1180
 1145TIP3    H124850   1.237   4.463  15.809  0.7868 -0.2912  0.1538
 1145TIP3    H224851   1.154   4.405  15.697 -1.8863  0.5251  1.6179
 1146TIP3   OH224852   0.639   1.015   3.991  0.3301 -0.8259  0.3501
 1146TIP3    H124853   0.601   0.944   3.939  0.4762 -1.5739  1.2355
 1146TIP3    H224854   0.570   1.081   3.996 -0.8509 -2.1067  1.8180
 1147TIP3   OH224855   3.846   1.370  17.285 -0.3264  0.7407 -0.1592
 1147TIP3    H124856   3.768   1.426  17.286  0.6819  2.2154 -0.3885
 1147TIP3    H224857   3.834   1.315  17.207 -2.4302 -1.0666  1.3374
 1148TIP3   OH224858   1.572   2.820   2.516 -0.5378  0.8641 -0.0830
 1148TIP3    H124859   1.611   2.733   2.524  1.0174  1.4296 -1.1951
 1148TIP3    H224860   1.527   2.833   2.600 -0.3527 -0.7676  0.3161
 1149TIP3   OH224861   0.315   3.770   1.298 -0.7145  0.5760 -0.3604
 1149TIP3    H124862   0.255   3.768   1.373 -1.9782 -0.6172 -1.3505
 1149TIP3    H224863   0.284   3.843   1.244 -1.5467 -0.2546 -1.0445
 1150TIP3   OH224864   5.225   2.839   6.103 -0.2240  0.0047  0.2507
 1150TIP3    H124865   5.265   2.889   6.174 -0.9673 -0.0742  0.7419
 1150TIP3    H224866   5.180   2.767   6.147  1.5017 -1.5990 -0.5070
 1151TIP3   OH224867   4.803   0.267   3.486 -0.2095 -0.3554  0.6004
 1151TIP3    H124868   4.751   0.195   3.521 -0.2920 -1.1437 -1.0427
 1151TIP3    H224869   4.885   0.263   3.535  0.3185 -2.4679 -0.3226
 1152TIP3   OH224870   4.121   3.666   0.463  0.4041  0.2702 -0.2633
 1152TIP3    H124871   4.089   3.756   0.458  0.2410  0.1997 -0.5479
 1152TIP3    H224872   4.200   3.671   0.517  1.0228  0.7589 -1.1724
 1153TIP3   OH224873   1.221   1.008   1.039  0.5692 -0.5520  0.2959
 1153TIP3    H124874   1.308   0.972   1.028  0.0896 -1.6340 -0.1097
 1153TIP3    H224875   1.162   0.942   1.002 -0.4657 -0.1204  1.0883
 1154TIP3   OH224876   4.527   0.803   4.904 -0.5434  0.4810 -0.1470
 1154TIP3    H124877   4.545   0.893   4.932 -0.4019  0.4645 -0.1837
 1154TIP3    H224878   4.600   0.752   4.940  0.2856  0.6345 -1.5307
 1155TIP3   OH224879   0.266   1.363  11.682  0.2831 -0.1235 -0.1093
 1155TIP3    H124880   0.323   1.398  11.614  0.8228 -0.7666  0.0036
 1155TIP3    H224881   0.323   1.309  11.737  0.0627  1.1345  1.4321
 1156TIP3   OH224882   2.995   4.417   3.435  0.0235 -0.2111  0.1167
 1156TIP3    H124883   3.081   4.441   3.469  0.4160 -1.1219 -0.2117
 1156TIP3    H224884   2.947   4.384   3.512  0.4586 -1.0244  0.0538
 1157TIP3   OH224885   4.547   4.268   4.731  0.1911 -0.2826 -0.2314
 1157TIP3    H124886   4.478   4.223   4.781  1.2217 -0.6898  0.8645
 1157TIP3    H224887   4.502   4.339   4.687 -0.8447 -0.1786  0.9365
 1158TIP3   OH224888   5.572   5.246  16.036  0.4581 -0.1459  0.1750
 1158TIP3    H124889   5.602   5.160  16.007  1.5562 -0.2717  1.5979
 1158TIP3    H224890   5.641   5.306  16.009 -0.1803  0.2692 -0.5740
 1159TIP3   OH224891   4.773   2.492   2.340 -0.5903  0.2870 -0.8789
 1159TIP3    H124892   4.733   2.579   2.337  2.3536  1.7475 -3.3610
 1159TIP3    H224893   4.858   2.507   2.381  0.0968 -1.3556 -1.6489
 1160TIP3   OH224894   4.525   4.882  13.225  0.4495  0.3261 -0.1618
 1160TIP3    H124895   4.524   4.850  13.315 -0.4260  1.9960  0.4610
 1160TIP3    H224896   4.451   4.840  13.183  1.2361 -0.9623 -0.3283
 1161TIP3   OH224897   5.043   1.582   1.565  0.1075 -0.1652  0.1527
 1161TIP3    H124898   5.020   1.490   1.553 -0.2556 -0.2125  1.1376
 1161TIP3    H224899   5.009   1.604   1.652  3.5638 -0.1501  1.6446
 1162TIP3   OH224900   0.631   5.913  14.866 -0.3952 -0.7459 -0.1788
 1162TIP3    H124901   0.668   5.870  14.943 -1.5418 -1.5507 -0.0505
 1162TIP3    H224902   0.569   5.977  14.902  0.7093  0.4939 -0.3923
 1163TIP3   OH224903   6.287   3.661  14.902 -0.3683 -0.0789  0.2699
 1163TIP3    H124904   6.349   3.588  14.893 -0.9024 -0.4753 -0.2616
 1163TIP3    H224905   6.223   3.646  14.833 -0.8084  0.5798  0.5330
 1164TIP3   OH224906   6.467   1.090   0.311  0.1426 -0.1397  0.1868
 1164TIP3    H124907   6.487   1.027   0.380  2.4115 -1.1480 -1.3068
 1164TIP3    H224908   6.486   1.176   0.351 -0.2018 -0.5541  1.2978
 1165TIP3   OH224909   3.403   4.081  12.330  0.6022 -0.0068  0.2486
 1165TIP3    H124910   3.426   4.021  12.401 -1.4931 -0.5455  0.5434
 1165TIP3    H224911   3.322   4.045  12.293 -0.9103  2.7350  0.6274
 1166TIP3   OH224912   2.499   1.563   2.025  0.1348 -0.4643  0.0054
 1166TIP3    H124913   2.458   1.479   2.046  1.3114 -1.1960 -0.5567
 1166TIP3    H224914   2.581   1.562   2.073  0.3009  0.2293 -0.2584
 1167TIP3   OH224915   3.328   3.007   3.956 -0.2898  0.2162 -0.4206
 1167TIP3    H124916   3.335   2.976   4.046 -0.1642  0.0039 -0.5028
 1167TIP3    H224917   3.336   3.102   3.962  1.3964  0.0990 -0.3689
 1168TIP3   OH224918   0.029   3.852   1.335  0.2248 -0.6242 -0.2227
 1168TIP3    H124919   0.017   3.787   1.266  1.7883 -2.6614  1.3228
 1168TIP3    H224920   0.094   3.913   1.299  0.2756 -1.0762 -0.9292
 1169TIP3   OH224921   1.705   1.925  16.041  0.0507 -0.2831 -0.0031
 1169TIP3    H124922   1.757   1.852  16.075  1.7829  1.3876  1.1146
 1169TIP3    H224923   1.625   1.924  16.094  0.5383 -0.7416  0.7484
 1170TIP3   OH224924   1.629   5.631  13.712 -0.3316  0.3460  0.3082
 1170TIP3    H124925   1.721   5.607  13.724 -0.2915  0.4017  0.1192
 1170TIP3    H224926   1.588   5.551  13.679  0.0618  0.8696 -1.5723
 1171TIP3   OH224927   1.978   3.026   3.645  0.4181  0.4113 -0.2940
 1171TIP3    H124928   1.993   3.044   3.737 -1.5555 -1.5300  0.4779
 1171TIP3    H224929   1.888   3.053   3.628 -0.4786 -2.4321 -0.6573
 1172TIP3   OH224930   0.417   6.716  10.536 -0.0781 -0.2322  0.2310
 1172TIP3    H124931   0.371   6.795  10.506  0.5816 -0.2742 -0.9669
 1172TIP3    H224932   0.349   6.660  10.571 -1.1756 -0.7984 -2.5801
 1173TIP3   OH224933   6.322   2.505   0.060  0.4018 -0.1448  0.3202
 1173TIP3    H124934   6.249   2.447   0.082  0.6534 -1.0657 -1.1231
 1173TIP3    H224935   6.381   2.451   0.007  1.7808  0.7912  0.8265
 1174TIP3   OH224936   6.499   3.077   2.530  0.4626 -0.4328 -0.5349
 1174TIP3    H124937   6.562   3.149   2.536 -0.4881  0.3794 -0.0742
 1174TIP3    H224938   6.425   3.105   2.583  0.3565 -2.0732  0.2335
 1175TIP3   OH224939   4.083   5.254   5.475  0.0814  0.6383 -0.0203
 1175TIP3    H124940   4.136   5.310   5.532  0.0642  0.4854  0.1453
 1175TIP3    H224941   4.001   5.303   5.464 -0.3574  0.1615  0.9997
 1176TIP3   OH224942   2.789   2.931  13.738 -0.1766 -0.5889  0.5317
 1176TIP3    H124943   2.793   2.987  13.816  1.0071 -1.9273  1.4931
 1176TIP3    H224944   2.726   2.863  13.761 -0.5635 -0.4434 -0.0784
 1177TIP3   OH224945   5.406   1.197  17.349 -0.0346 -0.1149  0.0938
 1177TIP3    H124946   5.332   1.200  17.410  0.5431  1.4784  0.7670
 1177TIP3    H224947   5.462   1.126  17.382  0.9076  1.5180  2.2517
 1178TIP3   OH224948   3.427   3.803  11.284  0.1280 -0.5173  0.3691
 1178TIP3    H124949   3.480   3.846  11.217 -1.2094 -0.0700 -0.4516
 1178TIP3    H224950   3.384   3.875  11.331 -1.3120 -0.8929 -0.3229
 1179TIP3   OH224951   1.873   0.250  16.083  0.7160 -0.2633 -0.4746
 1179TIP3    H124952   1.950   0.206  16.119  0.6449  0.2771  0.3551
 1179TIP3    H224953   1.855   0.321  16.145 -0.4448 -0.3814 -0.6722
 1180TIP3   OH224954   0.179   3.775   2.510  0.1715  0.3289  0.5211
 1180TIP3    H124955   0.181   3.835   2.435  0.6617  1.5200  1.4467
 1180TIP3    H224956   0.268   3.742   2.517 -0.6038 -2.6587 -1.5634
 1181TIP3   OH224957   2.862   3.254   2.883  0.6110 -0.1343  0.0769
 1181TIP3    H124958   2.803   3.254   2.807  0.5768  1.5686  0.0811
 1181TIP3    H224959   2.881   3.161   2.897  1.1001 -0.4867 -2.3887
 1182TIP3   OH224960   6.471   2.683   4.220  0.1867  0.0164 -0.2510
 1182TIP3    H124961   6.556   2.713   4.253 -0.4900  0.6071  1.0369
 1182TIP3    H224962   6.417   2.762   4.218 -0.0226 -0.1374 -2.1576
 1183TIP3   OH224963   2.974   3.922  12.660  0.3621  0.2480 -0.3273
 1183TIP3    H124964   2.943   3.956  12.744  0.0407  0.3833 -0.5018
 1183TIP3    H224965   2.941   3.983  12.595  0.7358  0.2236 -0.5427
 1184TIP3   OH224966   0.930   6.550   3.320  0.4780  0.4675  0.3264
 1184TIP3    H124967   0.938   6.511   3.233  0.3935 -0.7861  0.8601
 1184TIP3    H224968   0.925   6.644   3.303  0.4981  0.2551 -1.0166
 1185TIP3   OH224969   3.115   1.443   2.895  0.9873  0.3117  0.0215
 1185TIP3    H124970   3.040   1.385   2.895  1.0925  0.1406  1.3756
 1185TIP3    H224971   3.183   1.396   2.944  2.5450 -0.1902 -2.4300
 1186TIP3   OH224972   5.321   4.830  13.359 -0.3033 -0.4892  0.4359
 1186TIP3    H124973   5.260   4.882  13.306  0.6877  0.6145  0.3311
 1186TIP3    H224974   5.359   4.768  13.297 -1.3951 -1.2974  0.5331
 1187TIP3   OH224975   0.603   6.381  14.053 -0.4680 -0.0528  0.1207
 1187TIP3    H124976   0.587   6.378  13.958 -0.4185 -0.7979  0.1226
 1187TIP3    H224977   0.550   6.309  14.088  1.9467 -1.8969  0.2603
 1188TIP3   OH224978   1.970   5.602  12.423  0.2109 -0.2968  0.5861
 1188TIP3    H124979   1.886   5.646  12.408  0.6576  1.6748  3.2254
 1188TIP3    H224980   2.030   5.644  12.362 -0.4348 -0.9572 -0.5473
 1189TIP3   OH224981   3.434   2.703  14.730  0.1319 -0.4327 -0.8861
 1189TIP3    H124982   3.504   2.686  14.793 -0.8886 -0.0735  0.3904
 1189TIP3    H224983   3.470   2.769  14.671  0.1788  1.3681  1.0434
 1190TIP3   OH224984   3.662   0.550  10.999  0.0604  0.0668  0.0780
 1190TIP3    H124985   3.629   0.630  11.039  4.0694  1.4747  1.1129
 1190TIP3    H224986   3.643   0.482  11.063 -0.7351  0.7784  0.6213
 1191TIP3   OH224987   2.803   3.773  16.459 -0.6910 -0.7728 -0.5547
 1191TIP3    H124988   2.729   3.804  16.511 -1.5745 -1.7437 -1.2016
 1191TIP3    H224989   2.780   3.794  16.369  0.6585  0.5560 -0.6198
 1192TIP3   OH224990   3.533   6.344   4.358  0.1391 -0.4806 -0.1660
 1192TIP3    H124991   3.510   6.436   4.370  2.7145  0.2045  0.0455
 1192TIP3    H224992   3.593   6.343   4.284  0.3920 -1.9578  0.0180
 1193TIP3   OH224993   1.709   3.592   5.696  0.0730  0.1916  0.1703
 1193TIP3    H124994   1.671   3.521   5.644 -1.0628  0.6819  0.3011
 1193TIP3    H224995   1.774   3.631   5.638 -2.6857  2.1582 -1.8405
 1194TIP3   OH224996   3.916   6.148  15.592  0.2541  0.2105 -0.0007
 1194TIP3    H124997   3.968   6.079  15.632  0.3427  0.2323 -0.0773
 1194TIP3    H224998   3.960   6.229  15.616 -0.2579  0.2865  0.6901
 1195TIP3   OH224999   0.257   0.590  11.401  0.0182  0.3112  0.3455
 1195TIP3    H125000   0.347   0.569  11.425  0.5235  3.0703  1.1909
 1195TIP3    H225001   0.264   0.637  11.319 -0.5661  1.1773  0.7796
 1196TIP3   OH225002   6.045   2.637   2.709  0.1397  0.1434  0.1056
 1196TIP3    H125003   6.091   2.662   2.629  1.1177 -0.1840  0.5565
 1196TIP3    H225004   5.982   2.571   2.681 -1.5069  2.0224 -0.8692
 1197TIP3   OH225005   6.315   6.046   0.454 -0.0939 -0.1324 -0.3501
 1197TIP3    H125006   6.324   6.119   0.393 -0.2429  1.2058  1.1625
 1197TIP3    H225007   6.221   6.033   0.463 -0.0670 -0.9239 -1.0407
 1198TIP3   OH225008   4.086   3.504  15.232  0.1679  0.2319  0.1497
 1198TIP3    H125009   4.037   3.436  15.278  1.0366  0.2453  1.1429
 1198TIP3    H225010   4.055   3.586  15.269 -2.4051  0.5976 -2.5147
 1199TIP3   OH225011   6.377   4.934   6.033 -0.1383  0.0722  0.0979
 1199TIP3    H125012   6.306   4.924   5.969 -0.2501  1.0090  0.0579
 1199TIP3    H225013   6.455   4.900   5.988 -0.2766  0.4395 -0.4289
 1200TIP3   OH225014   4.076   5.386  14.989 -0.7092  0.5282 -0.6290
 1200TIP3    H125015   4.054   5.312  14.932  0.5048 -1.1554  0.9620
 1200TIP3    H225016   4.143   5.434  14.940 -0.1132 -0.5418 -0.9116
 1201TIP3   OH225017   6.259   5.352  14.846  0.6979 -0.2189  0.5749
 1201TIP3    H125018   6.223   5.397  14.770 -0.9649 -0.6042  1.0977
 1201TIP3    H225019   6.275   5.421  14.910  0.3261 -0.1020  0.5435
 1202TIP3   OH225020   6.554   0.940  13.685 -0.1326  0.4706 -0.2700
 1202TIP3    H125021   6.527   1.011  13.743 -1.3524 -1.5018  1.7443
 1202TIP3    H225022   6.513   0.862  13.722  2.5850 -1.6008 -1.3114
 1203TIP3   OH225023   5.605   4.878  15.658  0.3552  0.8035 -0.0631
 1203TIP3    H125024   5.617   4.785  15.638 -0.5244  0.8322 -0.7687
 1203TIP3    H225025   5.542   4.909  15.593  0.2333  1.7734  0.4960
 1204TIP3   OH225026   4.822   4.287   4.497 -0.1388 -0.1521 -0.5599
 1204TIP3    H125027   4.761   4.215   4.479 -1.8608  1.2900 -0.7020
 1204TIP3    H225028   4.841   4.278   4.591 -0.5485 -0.6246 -0.5145
 1205TIP3   OH225029   3.709   4.517   0.164  0.4353 -0.1306  0.8453
 1205TIP3    H125030   3.661   4.559   0.236  1.8446 -1.2175  2.4903
 1205TIP3    H225031   3.754   4.589   0.120  0.5642  0.4232  1.8565
 1206TIP3   OH225032   6.612   0.654  13.157 -0.5482 -0.8139  0.3529
 1206TIP3    H125033   6.631   0.678  13.066 -0.2392 -0.8975  0.3906
 1206TIP3    H225034   6.639   0.730  13.208 -0.3213 -0.9301  0.4080
 1207TIP3   OH225035   1.938   5.093   2.207  0.0102  0.6535  0.2916
 1207TIP3    H125036   1.996   5.017   2.208  0.4240  0.9373  1.8855
 1207TIP3    H225037   1.937   5.123   2.298 -4.0480 -0.3711  0.7805
 1208TIP3   OH225038   2.558   3.885  11.683 -0.5137 -0.0510  0.0311
 1208TIP3    H125039   2.480   3.909  11.732 -0.7334  1.6515 -1.0636
 1208TIP3    H225040   2.527   3.872  11.594 -0.1617 -3.3303  0.2479
 1209TIP3   OH225041   0.805   4.003  15.939 -0.2500  0.0337 -0.0547
 1209TIP3    H125042   0.814   4.098  15.950 -1.5782  0.1183  0.5809
 1209TIP3    H225043   0.745   3.994  15.865 -1.5977 -0.2359  1.0229
 1210TIP3   OH225044   1.540   1.560   0.831 -0.0042 -0.5167 -0.6248
 1210TIP3    H125045   1.498   1.536   0.914  2.3147  1.1740  1.1751
 1210TIP3    H225046   1.623   1.512   0.831 -1.4689 -3.4758 -3.8987
 1211TIP3   OH225047   6.223   2.205   5.614 -0.4832 -0.1338 -0.2397
 1211TIP3    H125048   6.273   2.156   5.679 -1.6150 -1.6855 -0.4755
 1211TIP3    H225049   6.139   2.222   5.658 -0.8789 -0.2924 -0.9276
 1212TIP3   OH225050   1.769   5.440   4.910  0.2076  0.3875  0.2982
 1212TIP3    H125051   1.784   5.348   4.889  4.2803  0.9427 -0.1454
 1212TIP3    H225052   1.706   5.439   4.982  0.6290 -2.7631  0.7622
 1213TIP3   OH225053   2.999   5.867  13.618  0.1255 -0.0789  0.5020
 1213TIP3    H125054   3.048   5.928  13.674 -1.3228  2.2808 -0.6224
 1213TIP3    H225055   2.949   5.924  13.559 -1.9907 -2.3949 -0.1076
 1214TIP3   OH225056   1.066   3.796  13.099  0.0983 -0.5788 -0.1444
 1214TIP3    H125057   1.149   3.762  13.133 -0.3424 -0.1261  1.4693
 1214TIP3    H225058   1.016   3.821  13.177 -0.5859  1.4573 -1.1543
 1215TIP3   OH225059   3.587   0.113  16.847 -0.2996  0.0844 -0.6507
 1215TIP3    H125060   3.677   0.088  16.867 -0.4106  1.3394  1.7472
 1215TIP3    H225061   3.593   0.203  16.815 -0.5985 -0.3567 -2.0261
 1216TIP3   OH225062   5.591   3.149  10.795 -0.3687  0.2034  0.5025
 1216TIP3    H125063   5.607   3.073  10.739 -0.9939 -0.6993  1.5101
 1216TIP3    H225064   5.511   3.188  10.760  0.9475  1.5346 -1.1737
 1217TIP3   OH225065   3.850   6.596  12.745  0.4491  0.3912  0.8231
 1217TIP3    H125066   3.805   6.512  12.742  1.6658 -0.3290  1.6601
 1217TIP3    H225067   3.943   6.573  12.753  0.8598  1.8208  0.4986
 1218TIP3   OH225068   5.186   1.018  14.053  0.0469 -0.0638  0.3076
 1218TIP3    H125069   5.126   1.091  14.040  1.5081  1.4059  1.2711
 1218TIP3    H225070   5.140   0.958  14.110 -0.6666  0.8162  0.6753
 1219TIP3   OH225071   5.647   5.740   6.113 -0.6558  0.5977  0.0278
 1219TIP3    H125072   5.612   5.675   6.174  0.7137 -0.1264  0.0663
 1219TIP3    H225073   5.634   5.824   6.158 -3.2679  0.5049 -0.4041
 1220TIP3   OH225074   5.194   0.080   2.464 -0.2501  0.2751 -0.4368
 1220TIP3    H125075   5.123   0.144   2.467 -0.2049  0.2753  1.3816
 1220TIP3    H225076   5.172   0.016   2.531 -0.4617 -1.8737 -2.4523
 1221TIP3   OH225077   4.353   1.557   3.121 -0.1023 -0.1798 -0.3636
 1221TIP3    H125078   4.382   1.579   3.033 -2.2526  0.9642 -0.8612
 1221TIP3    H225079   4.270   1.604   3.132 -0.6342 -1.4424  1.7386
 1222TIP3   OH225080   2.758   6.081  16.123  0.6155 -0.1786  0.4757
 1222TIP3    H125081   2.714   6.131  16.054  2.2365 -0.0827 -0.5190
 1222TIP3    H225082   2.778   5.997  16.084  0.8834 -0.4019  1.0791
 1223TIP3   OH225083   6.154   2.426   5.422  0.4103  0.3824  0.8436
 1223TIP3    H125084   6.159   2.349   5.480 -0.2888  0.5722  1.1762
 1223TIP3    H225085   6.207   2.492   5.465  0.8481  0.1539  0.6618
 1224TIP3   OH225086   1.801   4.553  11.679  0.1565 -0.1264  0.3073
 1224TIP3    H125087   1.724   4.594  11.639 -1.0865 -1.0284  1.6822
 1224TIP3    H225088   1.808   4.468  11.636  0.4170 -0.0306  0.1572
 1225TIP3   OH225089   2.102   3.074   5.113 -0.1411 -0.5992  0.0166
 1225TIP3    H125090   2.125   3.009   5.046 -0.6498 -0.2854 -0.4706
 1225TIP3    H225091   2.020   3.042   5.151 -0.7491  0.0864 -0.6867
 1226TIP3   OH225092   6.425   3.965   5.971 -0.1153  0.6148 -0.5877
 1226TIP3    H125093   6.380   4.045   5.943 -0.7306  0.7720  0.8035
 1226TIP3    H225094   6.476   3.939   5.894 -2.0737  0.7776 -2.0254
 1227TIP3   OH225095   5.106   0.914  14.296  0.2486 -1.4004  0.6422
 1227TIP3    H125096   5.015   0.943  14.310 -0.5031 -2.3112 -1.8334
 1227TIP3    H225097   5.117   0.843  14.359 -0.3487 -0.5733  1.7323
 1228TIP3   OH225098   5.922   5.639  16.796 -0.2003 -0.3731 -0.1585
 1228TIP3    H125099   5.857   5.568  16.796 -0.7184  0.0719 -1.4687
 1228TIP3    H225100   6.001   5.598  16.831  0.0333 -2.1395 -2.4984
 1229TIP3   OH225101   4.682   3.052   3.286 -0.4831 -0.0612  0.0319
 1229TIP3    H125102   4.747   3.018   3.225 -0.2288  1.3371 -0.5266
 1229TIP3    H225103   4.709   3.018   3.371  0.2144 -0.5688 -0.3830
 1230TIP3   OH225104   3.992   5.945   9.904  0.3072 -0.1440 -0.2384
 1230TIP3    H125105   3.929   5.879   9.932  0.1362  0.1182 -0.0052
 1230TIP3    H225106   3.982   5.947   9.808 -1.1183  0.9536 -0.0954
 1231TIP3   OH225107   4.875   1.899   5.037  0.0351 -0.0051 -0.6176
 1231TIP3    H125108   4.956   1.942   5.009  0.0867  1.5322  1.6414
 1231TIP3    H225109   4.805   1.959   5.011 -0.2289 -0.3909 -0.8102
 1232TIP3   OH225110   2.300   6.013  15.424  0.2838  0.4853  0.4645
 1232TIP3    H125111   2.336   5.933  15.388 -0.8827  0.4546 -0.6914
 1232TIP3    H225112   2.324   6.081  15.361 -0.3374  0.7221  0.4770
 1233TIP3   OH225113   5.813   1.773  14.313  0.4038  0.1014  0.0186
 1233TIP3    H125114   5.854   1.729  14.388  1.9183  0.5641 -0.4967
 1233TIP3    H225115   5.722   1.787  14.341  0.5131 -1.1574  1.1299
 1234TIP3   OH225116   2.645   3.027   3.204  0.4067  0.1901 -0.9507
 1234TIP3    H125117   2.649   2.972   3.126  0.9097  1.6354 -1.9852
 1234TIP3    H225118   2.555   3.016   3.236  0.7828 -2.0287 -0.4869
 1235TIP3   OH225119   3.626   6.639  16.333 -0.1010  0.5527  0.5339
 1235TIP3    H125120   3.580   6.556  16.338  1.7144 -0.4613  1.7138
 1235TIP3    H225121   3.595   6.688  16.409  0.7654 -0.1785  1.4011
 1236TIP3   OH225122   2.254   3.663   4.836  0.7182 -0.1342  0.3438
 1236TIP3    H125123   2.193   3.735   4.854 -1.1180 -1.4187 -0.4198
 1236TIP3    H225124   2.235   3.598   4.904 -0.5044 -1.5455 -1.2664
 1237TIP3   OH225125   5.082   1.340   4.052 -0.1485  0.1066 -0.2491
 1237TIP3    H125126   5.049   1.303   3.970  0.3221 -2.6855  0.7523
 1237TIP3    H225127   5.014   1.402   4.079 -0.5774  0.6579 -2.3999
 1238TIP3   OH225128   2.843   2.939  11.280 -0.1691  0.4644  0.1895
 1238TIP3    H125129   2.864   2.964  11.370 -0.6384  1.7947 -0.0495
 1238TIP3    H225130   2.756   2.900  11.286 -1.0419  2.2821  0.0888
 1239TIP3   OH225131   5.009   6.647  12.653  0.1662  0.1110  0.3552
 1239TIP3    H125132   4.964   6.611  12.730  0.0769 -0.8204 -0.1124
 1239TIP3    H225133   4.965   6.730  12.636 -0.1160  0.1076  1.0497
 1240TIP3   OH225134   5.072   0.264   1.386  0.0339  0.2533 -0.3964
 1240TIP3    H125135   4.977   0.272   1.375  0.0636  3.2861  0.5968
 1240TIP3    H225136   5.084   0.189   1.444 -1.8399  0.5601  0.4288
 1241TIP3   OH225137   4.165   5.455   3.884 -0.2820 -0.0162 -0.2188
 1241TIP3    H125138   4.225   5.442   3.958  0.4768 -2.6357 -1.1748
 1241TIP3    H225139   4.101   5.519   3.916 -0.2725 -1.3680  2.9036
 1242TIP3   OH225140   6.111   1.163   2.172 -0.2344 -0.0022 -0.1551
 1242TIP3    H125141   6.176   1.192   2.108 -0.5336  2.2020  0.4298
 1242TIP3    H225142   6.113   1.231   2.240 -1.8516 -0.8438  0.7947
 1243TIP3   OH225143   4.881   4.601  16.775  0.3718  0.0690  0.3431
 1243TIP3    H125144   4.951   4.578  16.714 -1.3960  1.1260 -2.2497
 1243TIP3    H225145   4.926   4.612  16.859  3.3056  0.5239 -1.1331
 1244TIP3   OH225146   1.469   5.078  15.271  0.0483  0.5232  0.0805
 1244TIP3    H125147   1.564   5.067  15.268  0.0190  0.2555  0.0469
 1244TIP3    H225148   1.455   5.157  15.322  0.3329  1.2935 -1.0071
 1245TIP3   OH225149   3.322   2.532  14.404 -0.5003  0.1049 -0.0195
 1245TIP3    H125150   3.250   2.573  14.356 -0.1188  0.3856 -0.3581
 1245TIP3    H225151   3.339   2.592  14.477 -0.0485  0.4660 -0.4230
 1246TIP3   OH225152   4.412   0.197  12.604 -0.1649  0.8394 -0.5887
 1246TIP3    H125153   4.481   0.182  12.668 -0.0404  1.6978 -0.5118
 1246TIP3    H225154   4.426   0.129  12.538 -1.1111 -0.9426  0.9241
 1247TIP3   OH225155   6.548   5.591   4.166 -0.5118 -0.3581 -0.3891
 1247TIP3    H125156   6.540   5.621   4.256  0.4388  0.7302 -0.6420
 1247TIP3    H225157   6.526   5.498   4.170  1.3621 -0.7979  1.3227
 1248TIP3   OH225158   2.664   4.016  12.253 -0.4207  0.4157 -0.1494
 1248TIP3    H125159   2.654   3.922  12.270 -1.4652  0.4630 -0.4098
 1248TIP3    H225160   2.752   4.024  12.216  0.4027 -0.2002  1.5684
 1249TIP3   OH225161   5.237   4.772  12.468  0.2968  0.6390  0.1311
 1249TIP3    H125162   5.168   4.818  12.421 -0.3094 -1.8264 -1.6131
 1249TIP3    H225163   5.201   4.759  12.556 -1.3623 -0.2633 -0.6277
 1250TIP3   OH225164   5.088   3.812   0.862  0.1093 -1.0698  0.5435
 1250TIP3    H125165   5.158   3.878   0.854  0.5671 -1.5201  0.7919
 1250TIP3    H225166   5.079   3.799   0.956 -0.7878 -0.5204  0.5447
 1251TIP3   OH225167   5.012   5.244  14.010 -0.5350  0.2282  0.4471
 1251TIP3    H125168   4.978   5.312  14.067  1.6991  0.9627  0.9890
 1251TIP3    H225169   4.971   5.261  13.925 -0.4462  1.9086  0.7163
 1252TIP3   OH225170   0.321   5.910   1.702 -0.8119 -0.7787  0.6413
 1252TIP3    H125171   0.290   5.920   1.612  0.6898  0.5507  0.2499
 1252TIP3    H225172   0.263   5.966   1.754 -0.4713 -0.0456  0.2318
 1253TIP3   OH225173   1.681   5.552  12.740  0.5176 -0.1313  0.3364
 1253TIP3    H125174   1.632   5.606  12.678  2.1614  0.8570 -0.1698
 1253TIP3    H225175   1.649   5.579  12.826  1.2578  1.6932  0.0955
 1254TIP3   OH225176   2.588   0.464  15.183  0.2119 -0.2896 -0.0970
 1254TIP3    H125177   2.502   0.494  15.210 -0.0695 -0.8456 -0.3607
 1254TIP3    H225178   2.578   0.370  15.171  1.3376 -0.7175  1.7816
 1255TIP3   OH225179   5.852   3.255  15.231 -0.0636 -0.0718  0.1589
 1255TIP3    H125180   5.904   3.330  15.201 -1.8504  0.0496 -3.0260
 1255TIP3    H225181   5.767   3.291  15.254 -0.7124 -0.9934 -0.6909
 1256TIP3   OH225182   2.843   4.603  13.941  0.2704 -0.2150  0.2523
 1256TIP3    H125183   2.874   4.520  13.907 -0.4521  0.1677 -1.4144
 1256TIP3    H225184   2.748   4.598  13.933  0.2569  1.0213 -0.4653
 1257TIP3   OH225185   5.825   0.288  14.941 -0.2086 -0.2967 -0.1042
 1257TIP3    H125186   5.873   0.324  14.867 -2.3046 -0.6539 -1.7293
 1257TIP3    H225187   5.881   0.218  14.975  1.3393  0.6865 -0.5286
 1258TIP3   OH225188   3.974   0.050   2.561  0.5363  0.1531 -0.0806
 1258TIP3    H125189   3.971   0.100   2.643 -1.3439  0.6080 -0.3711
 1258TIP3    H225190   4.040  -0.017   2.576 -0.2163 -0.1790  2.0557
 1259TIP3   OH225191   6.544   6.300  11.625  0.2426 -0.2249  0.6123
 1259TIP3    H125192   6.638   6.316  11.616  0.1247  0.6901  0.9230
 1259TIP3    H225193   6.514   6.284  11.535  0.8103 -1.3067  0.5910
 1260TIP3   OH225194   0.755   6.420  11.579  0.2086  0.5761  0.1465
 1260TIP3    H125195   0.739   6.514  11.587  1.4340  0.9086 -1.0600
 1260TIP3    H225196   0.668   6.382  11.565 -0.3719  1.4358  1.2155
 1261TIP3   OH225197   0.106   4.355  10.450  0.0632  0.4635 -0.1287
 1261TIP3    H125198   0.026   4.406  10.465  0.3294  1.2511 -1.2959
 1261TIP3    H225199   0.177   4.419  10.456  0.4598  0.1082 -0.8818
 1262TIP3   OH225200   2.815   4.920  16.304 -0.3752  0.4201  0.2125
 1262TIP3    H125201   2.891   4.862  16.305 -0.4100  0.0864  5.1710
 1262TIP3    H225202   2.741   4.863  16.323 -1.7689  1.0431 -2.7485
 1263TIP3   OH225203   2.287   3.200  17.322 -0.0255 -0.0400  0.0176
 1263TIP3    H125204   2.346   3.219  17.396  0.8079 -0.7579 -0.4396
 1263TIP3    H225205   2.334   3.134  17.270 -0.6931  0.2969 -1.0436
 1264TIP3   OH225206   5.083   5.891  16.411 -0.1108 -0.2159  0.0548
 1264TIP3    H125207   5.167   5.881  16.367 -1.1361 -1.2774 -1.7975
 1264TIP3    H225208   5.099   5.864  16.501  1.3674 -1.0631 -0.4370
 1265TIP3   OH225209   2.275   5.524  12.429 -0.1104  0.6450  0.0302
 1265TIP3    H125210   2.335   5.597  12.447  2.0243 -1.2521  1.0711
 1265TIP3    H225211   2.243   5.498  12.515  0.1921 -0.4729 -0.1857
 1266TIP3   OH225212   3.858   4.876   2.683  0.1700  0.2598  0.0169
 1266TIP3    H125213   3.796   4.949   2.684 -1.1816 -0.8555 -0.1269
 1266TIP3    H225214   3.835   4.825   2.606 -1.3005 -2.2506  1.9498
 1267TIP3   OH225215   6.580   2.627  16.399  0.3658 -0.1021 -0.1963
 1267TIP3    H125216   6.645   2.670  16.343  2.0291  0.2745  1.9202
 1267TIP3    H225217   6.507   2.607  16.339  1.6125  1.1498 -2.2667
 1268TIP3   OH225218   3.453   0.013   1.294  0.1398 -0.0383  0.5223
 1268TIP3    H125219   3.526  -0.012   1.351 -0.0052  0.3606  0.8832
 1268TIP3    H225220   3.457   0.108   1.290 -0.6417  0.0142  0.9188
 1269TIP3   OH225221   6.584   3.944  11.022  0.0420 -0.8050 -0.3239
 1269TIP3    H125222   6.664   3.894  11.038  0.4275 -0.4198 -1.0216
 1269TIP3    H225223   6.589   3.969  10.930 -0.5495 -0.1907 -0.1993
 1270TIP3   OH225224   2.090   6.181  15.037  0.6096 -0.0195  0.4320
 1270TIP3    H125225   2.155   6.250  15.029  0.4226  0.0719 -0.4644
 1270TIP3    H225226   2.077   6.170  15.131  1.0016  0.8246  0.5909
 1271TIP3   OH225227   0.081   0.417   3.925 -0.6885  0.4998  0.3244
 1271TIP3    H125228   0.172   0.404   3.950 -0.1073  1.2636 -1.2999
 1271TIP3    H225229   0.069   0.365   3.846 -1.1934  1.6976 -0.4101
 1272TIP3   OH225230   5.561   3.609  15.420  0.2384 -0.2558 -0.3584
 1272TIP3    H125231   5.486   3.655  15.457 -0.1168 -1.1543  0.0926
 1272TIP3    H225232   5.628   3.613  15.488 -0.3372 -1.7122  0.3635
 1273TIP3   OH225233   5.643   5.794  14.553  0.2860 -0.7493 -0.0403
 1273TIP3    H125234   5.720   5.825  14.504  0.8669 -0.5776  0.9484
 1273TIP3    H225235   5.652   5.835  14.639 -1.0870 -0.4920 -0.0041
 1274TIP3   OH225236   2.384   0.457  13.283 -0.5137 -0.4511 -0.3570
 1274TIP3    H125237   2.343   0.511  13.351 -0.8068 -1.3274  0.1815
 1274TIP3    H225238   2.333   0.376  13.283  0.2940 -0.9711 -0.7222
 1275TIP3   OH225239   1.798   1.228  11.666 -0.0640 -0.8082  0.9762
 1275TIP3    H125240   1.713   1.270  11.682 -0.2188 -0.6381 -0.2236
 1275TIP3    H225241   1.846   1.241  11.748 -0.2287  1.4398  0.7880
 1276TIP3   OH225242   3.174   3.107  15.576  0.2645  0.5005 -0.0004
 1276TIP3    H125243   3.253   3.156  15.599  0.0623  1.1876 -0.7131
 1276TIP3    H225244   3.193   3.017  15.603  1.3026  0.6483 -0.1838
 1277TIP3   OH225245   4.846   2.166  13.465 -0.5326  0.1087 -0.2741
 1277TIP3    H125246   4.902   2.112  13.410 -0.9170  0.9266 -1.5023
 1277TIP3    H225247   4.762   2.120  13.466 -0.8681  0.6857 -1.3414
 1278TIP3   OH225248   0.409   1.983  16.876  0.3741 -0.1689  0.6698
 1278TIP3    H125249   0.475   1.990  16.944 -0.1574  0.9624  1.1022
 1278TIP3    H225250   0.452   2.019  16.798  0.3004  0.5368  0.9412
 1279TIP3   OH225251   2.260   2.982   3.989  0.2450  0.4636  0.1924
 1279TIP3    H125252   2.174   2.941   3.979  1.0189 -1.3843  0.6495
 1279TIP3    H225253   2.277   2.981   4.083  0.8844  0.5334  0.0847
 1280TIP3   OH225254   0.141   0.887  14.447  0.7128 -0.3238 -0.0680
 1280TIP3    H125255   0.186   0.819  14.397  1.4602  0.1827 -0.1073
 1280TIP3    H225256   0.211   0.946  14.475 -0.0362  1.2140 -1.2403
 1281TIP3   OH225257   2.107   5.583  14.316 -0.5501  0.4707 -0.1383
 1281TIP3    H125258   2.154   5.659  14.352 -1.0560  1.1490 -0.8568
 1281TIP3    H225259   2.016   5.613  14.308 -0.9128 -0.4824  0.2905
 1282TIP3   OH225260   3.290   0.979  12.364 -0.2735  0.5064  0.2798
 1282TIP3    H125261   3.294   1.075  12.356 -0.9937  0.4069 -1.9765
 1282TIP3    H225262   3.311   0.962  12.456  4.9687  2.4668 -0.1968
 1283TIP3   OH225263   1.145   2.894  13.357  0.2265  0.3103 -0.4714
 1283TIP3    H125264   1.233   2.907  13.321 -0.0228  0.0830 -1.1778
 1283TIP3    H225265   1.136   2.962  13.423  0.4594  1.1414 -1.2845
 1284TIP3   OH225266   3.700   4.180  13.322 -0.1209 -0.0994  0.0569
 1284TIP3    H125267   3.757   4.129  13.380  0.3452 -0.1099 -0.4068
 1284TIP3    H225268   3.612   4.168  13.358 -0.0583 -1.4665 -0.2138
 1285TIP3   OH225269   3.862   3.296  16.645 -0.4565 -0.2515  0.2386
 1285TIP3    H125270   3.879   3.382  16.682 -1.6708 -0.7447  2.0860
 1285TIP3    H225271   3.767   3.285  16.653 -0.2210 -2.1250  0.9455
 1286TIP3   OH225272   6.521   3.355   0.894  0.3841  1.0232  0.2239
 1286TIP3    H125273   6.517   3.441   0.852  0.2795  1.8756  1.9271
 1286TIP3    H225274   6.465   3.363   0.971  2.2012  0.1674  1.7059
 1287TIP3   OH225275   0.845   3.883   1.367  0.1637  0.5569 -0.3688
 1287TIP3    H125276   0.928   3.929   1.376  0.1203  0.6852 -0.6013
 1287TIP3    H225277   0.842   3.856   1.275  0.4068 -0.3377 -0.1178
 1288TIP3   OH225278   6.371   2.745  12.977 -0.2941 -0.1627 -0.0856
 1288TIP3    H125279   6.387   2.805  13.050 -0.3936  0.8837 -0.9205
 1288TIP3    H225280   6.314   2.793  12.917 -0.7683 -1.2625 -0.5463
 1289TIP3   OH225281   3.568   3.211  11.634 -0.1907 -0.5933  0.4271
 1289TIP3    H125282   3.636   3.270  11.602 -0.9324  0.5891  0.9509
 1289TIP3    H225283   3.615   3.132  11.662  0.9923  0.2729  0.9712
 1290TIP3   OH225284   4.528   5.890   2.005 -0.0190 -0.1050 -0.0268
 1290TIP3    H125285   4.451   5.916   1.956 -0.1045 -0.0369  0.1405
 1290TIP3    H225286   4.567   5.819   1.954  0.3439  0.4992 -0.6066
 1291TIP3   OH225287   6.470   4.371  11.002  0.0977 -0.2062  0.3960
 1291TIP3    H125288   6.433   4.439  10.946  0.3249 -1.0451 -0.8106
 1291TIP3    H225289   6.440   4.394  11.090 -0.2156  1.1828 -0.0409
 1292TIP3   OH225290   3.029   5.447   3.010 -0.2824  0.1964 -0.0840
 1292TIP3    H125291   3.086   5.441   2.933 -0.7650  0.0033 -0.4304
 1292TIP3    H225292   3.072   5.391   3.075  0.5824  1.0430  0.0866
 1293TIP3   OH225293   6.740   6.543  15.737 -0.4577 -0.3274  0.3190
 1293TIP3    H125294   6.684   6.597  15.682 -0.5273 -0.4193  0.2998
 1293TIP3    H225295   6.784   6.606  15.795 -0.2532 -0.2154  0.0428
 1294TIP3   OH225296   1.583   3.046   3.026 -0.2479 -0.1191 -0.6235
 1294TIP3    H125297   1.565   3.042   2.932  0.6118 -1.9596 -0.7545
 1294TIP3    H225298   1.586   2.954   3.054 -0.1159  0.3874  1.1316
 1295TIP3   OH225299   1.149   5.426   2.256 -0.0703 -0.3352 -0.7679
 1295TIP3    H125300   1.214   5.491   2.226  1.6669 -1.7153 -0.1874
 1295TIP3    H225301   1.077   5.434   2.194 -0.9223  3.5954  0.4767
 1296TIP3   OH225302   5.232   1.796   0.250 -0.1275 -0.1419  0.2723
 1296TIP3    H125303   5.230   1.763   0.340 -1.2206 -1.1199 -0.0853
 1296TIP3    H225304   5.311   1.850   0.246 -0.7296  0.9894  2.1822
 1297TIP3   OH225305   2.675   1.631  13.023  0.4688 -0.0006 -0.0136
 1297TIP3    H125306   2.727   1.593  13.093 -0.3513  0.3003  0.7896
 1297TIP3    H225307   2.619   1.696  13.067  2.3201  2.7420 -1.3648
 1298TIP3   OH225308   6.556   5.839  15.828 -0.2622 -0.1917 -0.7601
 1298TIP3    H125309   6.468   5.810  15.854 -0.4798  1.1442  0.1128
 1298TIP3    H225310   6.574   5.792  15.747 -1.5548 -0.9127 -0.6590
 1299TIP3   OH225311   5.804   1.503  16.775 -0.4113 -0.0799 -0.4505
 1299TIP3    H125312   5.856   1.509  16.695 -1.8349 -2.6357 -1.7014
 1299TIP3    H225313   5.736   1.570  16.764  0.8047  1.2288 -0.2054
 1300TIP3   OH225314   6.264   0.734  10.519  0.4000 -0.7127  0.4750
 1300TIP3    H125315   6.310   0.784  10.451  1.6064  1.6876  2.8289
 1300TIP3    H225316   6.171   0.748  10.501  0.6885  1.9138  0.5872
 1301TIP3   OH225317   5.516   4.615   0.736  0.3242 -0.0805  0.5673
 1301TIP3    H125318   5.479   4.654   0.816  0.5309 -0.4945  0.8667
 1301TIP3    H225319   5.580   4.680   0.706 -1.4378  1.1964 -0.6105
 1302TIP3   OH225320   3.301   3.378  14.429 -0.6067  0.1091  0.2038
 1302TIP3    H125321   3.276   3.406  14.517  0.3655 -0.4276  0.6750
 1302TIP3    H225322   3.250   3.298  14.414 -0.5242  0.0165  0.4150
 1303TIP3   OH225323   5.272   1.736   1.079  0.4820  0.1049 -0.0618
 1303TIP3    H125324   5.227   1.653   1.091 -0.3128  0.6616  0.9807
 1303TIP3    H225325   5.218   1.784   1.017  1.1977 -0.3222 -1.0401
 1304TIP3   OH225326   1.376   0.714  12.771 -0.0152  0.3542 -0.3271
 1304TIP3    H125327   1.314   0.780  12.740 -1.2993 -0.4903  0.3547
 1304TIP3    H225328   1.340   0.683  12.854  1.0931 -0.4839 -0.1293
 1305TIP3   OH225329   5.555   2.846  13.679  0.6440 -0.1270  0.0646
 1305TIP3    H125330   5.595   2.930  13.704  1.1696 -0.1469 -0.6873
 1305TIP3    H225331   5.557   2.846  13.583 -0.9116 -0.2581  0.0091
 1306TIP3   OH225332   0.443   2.073  11.403  0.3935 -0.0902 -0.1898
 1306TIP3    H125333   0.367   2.054  11.458 -0.2849  0.9157 -0.7474
 1306TIP3    H225334   0.512   2.016  11.436 -0.5036 -0.7548  0.5620
 1307TIP3   OH225335   4.913   2.866   6.634  0.6123  0.3524 -0.2142
 1307TIP3    H125336   4.977   2.823   6.577 -1.1356 -0.2863 -1.8054
 1307TIP3    H225337   4.861   2.794   6.669 -0.1116  0.9446 -0.0637
 1308TIP3   OH225338   1.435   4.948   2.299  0.4588 -0.2525  0.2249
 1308TIP3    H125339   1.481   4.866   2.315  2.0377  0.4244 -0.6950
 1308TIP3    H225340   1.499   5.004   2.255 -0.9184  1.1004 -0.1446
 1309TIP3   OH225341   6.066   2.065  17.225 -0.5785 -1.6737  0.2412
 1309TIP3    H125342   6.072   2.138  17.163 -0.9126 -0.3037  1.7756
 1309TIP3    H225343   5.974   2.060  17.248 -0.3563 -1.6824  1.1745
 1310TIP3   OH225344   4.234   4.756   4.464  0.7619 -0.5316  0.5264
 1310TIP3    H125345   4.273   4.678   4.423  1.2944 -1.1751  2.1861
 1310TIP3    H225346   4.298   4.825   4.446  0.8767 -0.7480  0.0714
 1311TIP3   OH225347   3.006   3.233   6.299 -0.3490 -0.2687  0.0464
 1311TIP3    H125348   2.937   3.170   6.278 -1.1541  0.1319  1.4073
 1311TIP3    H225349   2.960   3.317   6.306  0.0554 -0.1690  2.0595
 1312TIP3   OH225350   2.257   5.158  12.326  0.4171 -0.6439 -1.0094
 1312TIP3    H125351   2.185   5.220  12.314  0.2273 -0.7264 -0.3357
 1312TIP3    H225352   2.270   5.154  12.420  1.5891 -0.3245 -1.1419
 1313TIP3   OH225353   0.786   2.666  11.413 -0.0240 -0.3726 -0.8130
 1313TIP3    H125354   0.867   2.712  11.394 -0.2443  0.5763  0.4315
 1313TIP3    H225355   0.805   2.574  11.394  1.4466 -0.2096 -0.2466
 1314TIP3   OH225356   3.688   0.604   2.927  0.4069 -0.9103 -0.2520
 1314TIP3    H125357   3.738   0.587   2.847 -0.4738 -0.1861 -0.9963
 1314TIP3    H225358   3.603   0.634   2.895  0.6087  1.0941  0.9364
 1315TIP3   OH225359   1.979   1.853   3.353  0.1587  0.2549 -0.2380
 1315TIP3    H125360   1.907   1.789   3.351  1.1650 -1.1036  2.6299
 1315TIP3    H225361   1.939   1.934   3.321 -2.2974 -0.7690  0.0119
 1316TIP3   OH225362   2.449   4.664  14.382 -0.0136 -0.0593 -0.3202
 1316TIP3    H125363   2.359   4.695  14.397  0.7066  0.8315  3.0923
 1316TIP3    H225364   2.499   4.745  14.371  0.6935 -0.4176  0.2280
 1317TIP3   OH225365   5.230   1.724   5.837  0.5974 -0.1466 -0.0611
 1317TIP3    H125366   5.195   1.645   5.878 -0.1606 -0.2501 -0.8842
 1317TIP3    H225367   5.177   1.736   5.758 -0.5954  2.2851  1.0087
 1318TIP3   OH225368   5.040   4.745   1.013 -0.2229  0.3098 -0.5060
 1318TIP3    H125369   5.004   4.756   1.101 -0.7083 -1.0200 -0.5125
 1318TIP3    H225370   4.977   4.787   0.955 -0.1051  0.8372 -0.2561
 1319TIP3   OH225371   3.514   0.878  10.186  0.2841 -0.1292  0.7394
 1319TIP3    H125372   3.440   0.934  10.210  0.9685  1.4450 -0.6211
 1319TIP3    H225373   3.530   0.898  10.094  3.0802  0.3889  1.2621
 1320TIP3   OH225374   5.001   6.360  13.207 -0.3770  0.1154  0.0932
 1320TIP3    H125375   4.982   6.268  13.227 -1.2510  0.1741 -0.3961
 1320TIP3    H225376   4.990   6.366  13.112 -0.6467  0.7969  0.1652
 1321TIP3   OH225377   4.104   3.769   1.111  0.4504  0.1447 -0.2223
 1321TIP3    H125378   4.106   3.708   1.184 -1.1809 -0.8877 -0.9712
 1321TIP3    H225379   4.079   3.853   1.150 -0.0559 -0.3135  0.4615
 1322TIP3   OH225380   2.558   5.837   1.349  0.2996 -0.0155 -0.1703
 1322TIP3    H125381   2.651   5.825   1.333  0.5514  1.5902 -0.0671
 1322TIP3    H225382   2.542   5.930   1.333 -0.8761  0.1664  1.6759
 1323TIP3   OH225383   4.266   4.381   0.415 -0.0076 -0.5017  0.3620
 1323TIP3    H125384   4.304   4.427   0.340  0.1859  1.8914  1.8136
 1323TIP3    H225385   4.341   4.352   0.466 -0.0678  0.8733  1.2932
 1324TIP3   OH225386   2.556   6.688  11.432 -0.0265 -0.7188  0.6374
 1324TIP3    H125387   2.545   6.783  11.425 -0.7856 -0.8180  0.3511
 1324TIP3    H225388   2.484   6.652  11.380  1.9604 -1.4555 -1.8198
 1325TIP3   OH225389   0.341   1.174  11.897  0.3639 -0.0346 -1.2078
 1325TIP3    H125390   0.333   1.101  11.958 -0.0561  1.1448  0.2311
 1325TIP3    H225391   0.337   1.134  11.810 -3.8117 -1.4586 -0.6039
 1326TIP3   OH225392   4.035   2.094  13.230 -0.3683 -0.7859  0.3447
 1326TIP3    H125393   3.969   2.059  13.171  0.5338  0.1269 -1.2690
 1326TIP3    H225394   3.987   2.112  13.311 -2.4755  1.1227 -1.1859
 1327TIP3   OH225395   6.533   5.733   0.184 -0.1287  0.5353 -0.0854
 1327TIP3    H125396   6.490   5.808   0.142  1.1282  0.6188 -1.2922
 1327TIP3    H225397   6.574   5.685   0.111  1.6065  0.3379  0.9641
 1328TIP3   OH225398   1.531   1.796  12.392  0.7258 -0.2005 -0.5748
 1328TIP3    H125399   1.543   1.782  12.298  1.8876  0.0635 -0.4855
 1328TIP3    H225400   1.590   1.733  12.433  1.2600  0.6225 -0.0535
 1329TIP3   OH225401   2.955   2.796  15.479  0.2755 -0.5729  0.8210
 1329TIP3    H125402   2.900   2.847  15.539  0.2784  0.8791 -0.3592
 1329TIP3    H225403   2.928   2.705  15.494 -0.7628 -0.1110  1.9560
 1330TIP3   OH225404   1.845   1.403  14.937  0.5920 -0.0044  0.4822
 1330TIP3    H125405   1.920   1.344  14.945  1.0293 -0.1637 -3.0472
 1330TIP3    H225406   1.777   1.349  14.897  0.5763  1.4744 -1.6349
 1331TIP3   OH225407   5.733   0.088  15.532 -0.6676  0.7375 -0.1727
 1331TIP3    H125408   5.719  -0.002  15.563 -1.4567  0.1276 -2.1546
 1331TIP3    H225409   5.680   0.142  15.591  0.5059  0.0517  1.6000
 1332TIP3   OH225410   6.060   1.118   3.930 -0.4919 -0.4705 -0.0814
 1332TIP3    H125411   6.118   1.060   3.978  0.5156 -0.4817 -1.2597
 1332TIP3    H225412   6.028   1.180   3.995 -0.1497 -1.2274  0.8274
 1333TIP3   OH225413   0.490   3.531  16.254 -0.2953 -0.1413  0.4370
 1333TIP3    H125414   0.467   3.491  16.338 -0.3282 -0.5510  0.2340
 1333TIP3    H225415   0.412   3.522  16.200  1.1707 -4.4793 -1.3875
 1334TIP3   OH225416   6.352   2.518   4.744  0.0640  0.8627  0.1886
 1334TIP3    H125417   6.363   2.423   4.747  3.6720  1.1473  0.2180
 1334TIP3    H225418   6.302   2.534   4.663  0.1942 -1.0025 -0.2976
 1335TIP3   OH225419   3.344   3.155  16.996  0.7055  0.1767 -0.5087
 1335TIP3    H125420   3.279   3.208  17.043  0.5385 -0.7645  0.3515
 1335TIP3    H225421   3.342   3.190  16.906 -1.5678 -0.3374 -0.7317
 1336TIP3   OH225422   6.226   5.520  11.796  0.2563  0.1832  0.2075
 1336TIP3    H125423   6.316   5.514  11.828  1.0784 -0.5950 -2.0480
 1336TIP3    H225424   6.202   5.430  11.774 -0.9010  0.4487  0.3432
 1337TIP3   OH225425   2.908   4.912   2.873 -0.4043 -0.4970  0.2314
 1337TIP3    H125426   2.894   4.855   2.798  0.3563  0.3057 -0.5446
 1337TIP3    H225427   2.907   5.000   2.837 -1.1639 -0.0310  1.3491
 1338TIP3   OH225428   5.119   3.811   0.012  0.0871  0.2432  0.2001
 1338TIP3    H125429   5.212   3.801   0.031 -0.0849  0.0003  0.9697
 1338TIP3    H225430   5.075   3.781   0.092 -0.6394  0.7936  0.0208
 1339TIP3   OH225431   0.816   2.687  14.398  0.4034  0.0652 -0.1482
 1339TIP3    H125432   0.817   2.726  14.311  1.6588 -0.4150 -0.3643
 1339TIP3    H225433   0.797   2.760  14.457  1.2060  0.7174 -0.6802
 1340TIP3   OH225434   5.149   3.834   3.903  0.2137  0.1953 -0.0752
 1340TIP3    H125435   5.087   3.889   3.950  0.8173  1.0507 -0.2536
 1340TIP3    H225436   5.162   3.878   3.819 -1.7860 -1.9471 -1.6182
 1341TIP3   OH225437   2.154   6.538   2.138  1.0335 -0.2291  0.0785
 1341TIP3    H125438   2.222   6.470   2.141  0.7028 -0.6299 -1.0580
 1341TIP3    H225439   2.156   6.569   2.047 -0.2512 -0.1974  0.0465
 1342TIP3   OH225440   3.682   1.856   3.442  0.2899  0.7739 -0.9337
 1342TIP3    H125441   3.649   1.942   3.467 -0.8643 -0.2811  1.5135
 1342TIP3    H225442   3.698   1.811   3.525  2.1798 -0.9174 -2.1244
 1343TIP3   OH225443   3.914   2.342   4.274  0.6819  0.1534 -0.4087
 1343TIP3    H125444   3.833   2.394   4.268  0.9263  0.7536  1.0435
 1343TIP3    H225445   3.884   2.253   4.291  0.3022  0.1347 -1.1313
 1344TIP3   OH225446   5.684   6.321  11.036 -0.8341 -0.1693  0.1557
 1344TIP3    H125447   5.708   6.236  10.999 -0.0931 -0.2682  0.8673
 1344TIP3    H225448   5.592   6.310  11.061 -0.6459 -0.8725  0.5675
 1345TIP3   OH225449   4.618   1.983  12.470 -0.0603 -0.1434  0.3220
 1345TIP3    H125450   4.684   2.027  12.417  1.3754 -3.3422 -0.8108
 1345TIP3    H225451   4.667   1.915  12.518 -1.8043  0.5822  3.4320
 1346TIP3   OH225452   4.775   1.704   2.035 -0.5446 -0.3199  0.2801
 1346TIP3    H125453   4.695   1.711   1.984 -0.2716 -0.9575 -0.2528
 1346TIP3    H225454   4.790   1.792   2.069 -0.0198  0.4507 -1.8275
 1347TIP3   OH225455   5.934   4.275   5.922 -0.4183  0.1175  0.9123
 1347TIP3    H125456   6.027   4.287   5.907 -0.2871  0.3701  1.8485
 1347TIP3    H225457   5.928   4.198   5.979 -0.8046 -0.1097  0.5684
 1348TIP3   OH225458   3.892   5.903  16.943 -0.0107  0.4453  0.1011
 1348TIP3    H125459   3.829   5.958  16.897 -2.2308 -1.2399  0.9151
 1348TIP3    H225460   3.923   5.957  17.016 -0.5149  1.3197 -0.3163
 1349TIP3   OH225461   0.996   3.362  12.825 -0.3911 -0.1298 -0.0955
 1349TIP3    H125462   0.941   3.441  12.826 -0.4994 -0.2038  1.4149
 1349TIP3    H225463   1.037   3.360  12.911 -1.5548 -2.5190  0.4834
 1350TIP3   OH225464   0.216   0.805  13.553 -0.7971  0.8845 -0.4432
 1350TIP3    H125465   0.169   0.885  13.578  2.3625  2.6265  0.4605
 1350TIP3    H225466   0.262   0.779  13.633 -2.4125 -2.4989 -0.4395
 1351TIP3   OH225467   1.486   4.259  16.536 -0.3746  0.5450  0.0192
 1351TIP3    H125468   1.422   4.299  16.478 -0.9022 -0.7272 -0.2902
 1351TIP3    H225469   1.570   4.294  16.506 -0.9730  3.8051  1.6748
 1352TIP3   OH225470   0.880   6.248  17.040  0.7749 -0.0675  0.0282
 1352TIP3    H125471   0.914   6.275  17.125 -0.4568  0.8075  0.2887
 1352TIP3    H225472   0.851   6.158  17.052  1.0145 -0.0911  0.4171
 1353TIP3   OH225473   2.352   2.908   3.278  0.3999 -0.0701 -0.2896
 1353TIP3    H125474   2.267   2.935   3.313  0.0322  0.4474 -1.5292
 1353TIP3    H225475   2.392   2.858   3.349 -0.7621  0.0308  0.4679
 1354TIP3   OH225476   2.297   4.286  12.003  0.0972  0.1557 -0.4839
 1354TIP3    H125477   2.202   4.278  12.015  0.1588  1.7361  1.6761
 1354TIP3    H225478   2.333   4.210  12.049 -0.0686  1.0138  1.1367
 1355TIP3   OH225479   1.537   5.341  15.725 -0.0445  0.2035 -0.1352
 1355TIP3    H125480   1.623   5.381  15.713 -0.5859  1.1831 -0.9130
 1355TIP3    H225481   1.492   5.398  15.787 -0.1820 -0.2264  0.1639
 1356TIP3   OH225482   3.580   1.091   4.031 -0.1129  0.5997  0.3673
 1356TIP3    H125483   3.523   1.047   4.094 -2.6539  1.6422 -1.0903
 1356TIP3    H225484   3.661   1.106   4.080 -0.7680 -1.5312  2.3173
 1357TIP3   OH225485   6.603   4.237  15.158 -0.5267  0.2297  0.1156
 1357TIP3    H125486   6.566   4.155  15.191  1.0314 -0.8553 -0.7114
 1357TIP3    H225487   6.613   4.291  15.236 -0.0465 -0.9962  0.9311
 1358TIP3   OH225488   0.318   2.975   1.993  0.3718 -0.5801  0.6348
 1358TIP3    H125489   0.354   3.036   1.929  0.0250 -0.1315  0.8577
 1358TIP3    H225490   0.341   3.013   2.078 -0.2554 -0.4957  0.7770
 1359TIP3   OH225491   2.532   6.040  13.122  0.0320 -0.5910 -0.0515
 1359TIP3    H125492   2.611   6.093  13.120 -0.2722 -0.0746  0.9031
 1359TIP3    H225493   2.461   6.102  13.139 -0.5352 -1.0915 -0.5087
 1360TIP3   OH225494   2.065   4.080  10.731 -0.0221 -0.6070 -0.5456
 1360TIP3    H125495   2.094   4.069  10.641  0.5039  0.0254 -0.4576
 1360TIP3    H225496   2.046   3.991  10.761  0.1183 -0.8522 -1.1685
 1361TIP3   OH225497   1.965   2.256   5.000 -0.3505  0.5688  0.5218
 1361TIP3    H125498   1.966   2.276   5.094  0.8564 -3.4614  1.5815
 1361TIP3    H225499   2.019   2.324   4.960  1.0887  1.0899  3.1266
 1362TIP3   OH225500   4.593   5.931  15.210 -0.5085  0.4516  0.4390
 1362TIP3    H125501   4.672   5.983  15.224 -0.6156  0.8629 -0.3994
 1362TIP3    H225502   4.533   5.960  15.278  0.0045  0.2557  0.9761
 1363TIP3   OH225503   4.454   5.460   4.497  0.5451  0.1456  0.5742
 1363TIP3    H125504   4.543   5.450   4.532  1.0670  2.3414  0.0132
 1363TIP3    H225505   4.397   5.428   4.568  1.7021  0.8108  1.8657
 1364TIP3   OH225506   1.645   2.219  11.767  0.1791 -0.2024  0.1509
 1364TIP3    H125507   1.685   2.306  11.773 -0.1451 -0.0694  0.4182
 1364TIP3    H225508   1.597   2.220  11.684 -1.8768  0.7663  1.2743
 1365TIP3   OH225509   0.916   2.407  11.352  0.1686  0.1865  0.7194
 1365TIP3    H125510   0.954   2.343  11.412  0.7952  0.5084  0.6779
 1365TIP3    H225511   0.970   2.402  11.273  1.5072  2.1255  1.4305
 1366TIP3   OH225512   5.278   2.532  11.142 -0.7321  0.6563 -0.2307
 1366TIP3    H125513   5.308   2.505  11.229 -1.4338  3.8517  1.1886
 1366TIP3    H225514   5.316   2.469  11.082  2.7936  0.2894  2.0671
 1367TIP3   OH225515   6.262   5.730   4.733 -0.0214 -0.4680 -0.0547
 1367TIP3    H125516   6.203   5.739   4.808  0.0013  0.7893 -0.1718
 1367TIP3    H225517   6.343   5.695   4.771 -0.4163 -1.0073  0.3053
 1368TIP3   OH225518   2.067   5.853  15.290  0.5074  0.0523 -0.2339
 1368TIP3    H125519   2.028   5.814  15.212  0.9035 -0.1507 -0.3304
 1368TIP3    H225520   2.151   5.809  15.300  1.0488  1.0013 -0.4543
 1369TIP3   OH225521   3.253   0.348   0.520 -0.6234  0.5118  0.3341
 1369TIP3    H125522   3.207   0.415   0.569 -0.7554  0.2346  0.5913
 1369TIP3    H225523   3.277   0.390   0.437 -0.8780  0.8121  0.4146
 1370TIP3   OH225524   0.181   2.580  10.958  0.2560 -0.3406 -0.0831
 1370TIP3    H125525   0.193   2.507  11.018 -1.1042 -2.3152 -2.0818
 1370TIP3    H225526   0.236   2.559  10.883  0.0750  0.8572 -0.5787
 1371TIP3   OH225527   3.851   2.770   4.312  0.7175  0.2232 -0.2720
 1371TIP3    H125528   3.824   2.751   4.223  1.2950  0.9596 -0.6117
 1371TIP3    H225529   3.871   2.864   4.313  3.4817 -0.2714 -0.1465
 1372TIP3   OH225530   2.861   1.321   3.497 -0.6258  0.5056  0.3890
 1372TIP3    H125531   2.889   1.233   3.519 -1.5640 -0.1713 -1.0083
 1372TIP3    H225532   2.919   1.348   3.426 -0.2416  1.1038  0.9100
 1373TIP3   OH225533   2.829   3.485   1.760 -0.2590  0.5620  0.1871
 1373TIP3    H125534   2.884   3.552   1.801  0.1460  0.4817 -0.2230
 1373TIP3    H225535   2.884   3.446   1.693 -0.4661 -0.2533  0.4796
 1374TIP3   OH225536   3.227   1.962   5.792 -0.3958 -1.0533 -0.6115
 1374TIP3    H125537   3.190   1.874   5.807 -1.2601 -0.5194  0.5818
 1374TIP3    H225538   3.155   2.021   5.810 -0.2230 -0.1052 -2.7697
 1375TIP3   OH225539   1.218   5.808   5.999 -0.3372 -0.1137 -0.1839
 1375TIP3    H125540   1.136   5.856   6.001  0.5577  1.4714  2.1681
 1375TIP3    H225541   1.240   5.802   5.906 -2.0722  1.2440 -0.7195
 1376TIP3   OH225542   3.193   0.954  13.596  0.1964  0.5770 -0.2162
 1376TIP3    H125543   3.138   0.930  13.522 -0.2626 -0.1379  0.3404
 1376TIP3    H225544   3.256   1.017  13.560  1.3433 -1.2991 -1.7193
 1377TIP3   OH225545   2.092   3.144  10.630 -0.5782 -0.6703 -0.2333
 1377TIP3    H125546   2.054   3.159  10.543 -0.2118  1.8499 -0.0206
 1377TIP3    H225547   2.051   3.209  10.686 -1.0176 -2.4465  1.5989
 1378TIP3   OH225548   3.625   1.788   2.928 -0.1690 -0.1747  0.7944
 1378TIP3    H125549   3.634   1.790   3.023 -0.1288  1.1838  0.7907
 1378TIP3    H225550   3.536   1.757   2.913  0.5455 -2.5902  1.1739
 1379TIP3   OH225551   5.512   3.016  17.073  0.2756 -0.8083 -0.1861
 1379TIP3    H125552   5.532   3.095  17.124  0.1124  0.2186 -1.6504
 1379TIP3    H225553   5.428   3.036  17.031 -0.3185 -2.2245  0.2814
 1380TIP3   OH225554   2.314   1.273  11.411 -0.8052  0.7332 -0.3029
 1380TIP3    H125555   2.324   1.196  11.467 -0.9966  2.9089  2.9733
 1380TIP3    H225556   2.404   1.294  11.384 -0.0755  1.8827  2.6304
 1381TIP3   OH225557   0.528   2.931   2.811  0.2561  0.5536  0.0582
 1381TIP3    H125558   0.465   2.984   2.859 -0.0847  2.3584 -2.1907
 1381TIP3    H225559   0.591   2.994   2.776 -0.1083 -0.4224 -2.6444
 1382TIP3   OH225560   3.903   3.264  11.749 -0.0627 -0.4661 -0.6050
 1382TIP3    H125561   3.867   3.177  11.765 -2.1367  0.1624 -1.4533
 1382TIP3    H225562   3.830   3.314  11.712  1.2906  1.4035 -0.9370
 1383TIP3   OH225563   5.859   6.341   2.675  0.2790 -0.4531 -0.6340
 1383TIP3    H125564   5.873   6.317   2.766 -1.1369 -1.2222 -0.5852
 1383TIP3    H225565   5.946   6.335   2.635  0.5012 -2.9304  0.0408
 1384TIP3   OH225566   2.797   0.809  11.895 -0.0835  0.5540  0.1871
 1384TIP3    H125567   2.705   0.834  11.897  0.0860  1.1539  1.5661
 1384TIP3    H225568   2.827   0.818  11.986  1.5816  1.3078 -0.3895
 1385TIP3   OH225569   6.237   0.679  14.686 -0.4543  0.2171 -0.5613
 1385TIP3    H125570   6.251   0.707  14.776 -2.7412 -2.2024  0.6865
 1385TIP3    H225571   6.275   0.591  14.682 -1.9879 -0.4562 -1.3561
 1386TIP3   OH225572   5.257   6.116   2.373  0.2363 -0.1725  0.5190
 1386TIP3    H125573   5.266   6.134   2.280  4.0952 -0.4766  0.6776
 1386TIP3    H225574   5.206   6.190   2.407  0.2360  0.8491 -1.5460
 1387TIP3   OH225575   1.282   5.985   5.208  0.1614 -0.5396 -0.4054
 1387TIP3    H125576   1.344   5.913   5.214 -0.1800 -0.7591  0.6261
 1387TIP3    H225577   1.299   6.024   5.122  0.5267 -1.6774 -0.8689
 1388TIP3   OH225578   6.472   4.873   5.073 -0.2804 -0.5808 -0.5415
 1388TIP3    H125579   6.459   4.813   5.147 -0.6183 -0.4010 -0.4506
 1388TIP3    H225580   6.391   4.865   5.022 -0.8540  0.7046  0.1333
 1389TIP3   OH225581   2.928   1.625   2.122 -0.0877 -0.1431  0.0579
 1389TIP3    H125582   2.951   1.646   2.213 -2.4167  5.1528 -0.1919
 1389TIP3    H225583   2.841   1.585   2.129 -0.8071  1.3755  0.2323
 1390TIP3   OH225584   4.121   5.826   5.750 -0.3145  0.1783 -0.8180
 1390TIP3    H125585   4.156   5.913   5.764 -0.2583  0.1127 -0.5381
 1390TIP3    H225586   4.159   5.773   5.821 -0.6240  0.0090 -0.7742
 1391TIP3   OH225587   4.937   6.088   1.870  0.0421 -0.2133  0.1215
 1391TIP3    H125588   4.922   6.065   1.961 -1.3805  0.2970  0.0437
 1391TIP3    H225589   4.971   6.009   1.830 -0.5067 -0.8150  0.8248
 1392TIP3   OH225590   2.717   6.621   1.812 -0.3948 -0.5725 -0.4074
 1392TIP3    H125591   2.703   6.529   1.789  0.4335 -1.1192  1.0978
 1392TIP3    H225592   2.812   6.632   1.807 -0.3901 -0.1217  0.5251
 1393TIP3   OH225593   3.553   0.360  16.702 -0.4311  0.1622 -0.4129
 1393TIP3    H125594   3.576   0.447  16.734  1.4860 -0.9053  1.3702
 1393TIP3    H225595   3.460   0.350  16.724 -0.1255  0.9496  1.4684
 1394TIP3   OH225596   6.452   1.450   5.218 -0.3449 -0.5796  0.4038
 1394TIP3    H125597   6.485   1.444   5.308 -2.1083 -0.4015  1.1146
 1394TIP3    H225598   6.392   1.525   5.220 -0.7833 -0.8829 -0.7970
 1395TIP3   OH225599   3.083   3.172   0.754  0.2914 -0.1200  0.0712
 1395TIP3    H125600   3.173   3.137   0.759  0.8629  1.3877  1.3890
 1395TIP3    H225601   3.056   3.177   0.846 -0.3153  1.4547 -0.1786
 1396TIP3   OH225602   5.684   0.172  11.764 -0.4078 -0.4523  0.3987
 1396TIP3    H125603   5.621   0.239  11.790 -1.2723 -1.8869  2.1934
 1396TIP3    H225604   5.630   0.098  11.735  0.4590  0.3921 -4.2819
 1397TIP3   OH225605   3.254   0.942  17.151  0.1805 -0.2501  0.0945
 1397TIP3    H125606   3.223   0.971  17.065 -0.5425  0.5390  0.5971
 1397TIP3    H225607   3.200   0.991  17.213  1.7373  0.3957  1.0158
 1398TIP3   OH225608   3.888   2.403   1.992 -0.1669  0.4993  0.2620
 1398TIP3    H125609   3.858   2.494   1.989 -0.2215  0.4950  0.6204
 1398TIP3    H225610   3.906   2.386   2.085 -0.7724 -0.0512  0.2863
 1399TIP3   OH225611   5.677   2.684  12.190  0.0100  0.1873  0.3304
 1399TIP3    H125612   5.767   2.677  12.223 -0.2790  0.7948  1.2741
 1399TIP3    H225613   5.669   2.611  12.128  0.6734 -0.8078  1.3704
 1400TIP3   OH225614   4.589   4.523   2.580  0.4480  0.2817 -0.0731
 1400TIP3    H125615   4.665   4.531   2.522  0.4237  1.1706 -0.0011
 1400TIP3    H225616   4.592   4.432   2.611  0.4504 -0.2217 -1.4656
 1401TIP3   OH225617   5.676   2.277   3.428 -0.5392  1.0429  0.3366
 1401TIP3    H125618   5.592   2.256   3.470 -0.1146  1.2257  1.2998
 1401TIP3    H225619   5.668   2.241   3.340 -1.6366  1.0662  0.4071
 1402TIP3   OH225620   6.375   4.565  12.559 -0.1828 -0.6822 -0.3986
 1402TIP3    H125621   6.410   4.537  12.644  0.4853 -0.1890 -0.5017
 1402TIP3    H225622   6.285   4.591  12.578 -0.0390 -0.5686  0.1621
 1403TIP3   OH225623   1.037   5.720  11.969 -0.8128 -0.1178  0.2185
 1403TIP3    H125624   1.013   5.628  11.982 -1.4239  0.1511  1.0939
 1403TIP3    H225625   1.012   5.739  11.879 -1.2980 -0.6261  0.2438
 1404TIP3   OH225626   2.433   4.931  12.264 -0.1251 -0.1510  0.5278
 1404TIP3    H125627   2.382   5.007  12.292 -1.9835 -1.5083  1.0338
 1404TIP3    H225628   2.441   4.877  12.342  1.3735 -0.3905  0.2321
 1405TIP3   OH225629   3.820   3.594  12.365  0.1722  0.2172 -0.3620
 1405TIP3    H125630   3.910   3.611  12.337 -0.1537  0.6920 -1.1669
 1405TIP3    H225631   3.826   3.516  12.420  0.7354 -1.3349 -2.5178
 1406TIP3   OH225632   5.008   1.633  13.649  0.1042  0.2379 -0.3454
 1406TIP3    H125633   5.077   1.647  13.713  1.0168  2.1390 -1.6577
 1406TIP3    H225634   4.927   1.636  13.700  0.9074 -3.2037  1.4118
 1407TIP3   OH225635   3.716   3.381   0.045 -0.5376  0.2897  0.4761
 1407TIP3    H125636   3.802   3.424   0.051  0.1257 -0.7729 -0.8906
 1407TIP3    H225637   3.723   3.305   0.102 -0.4263 -0.0002  0.0826
 1408TIP3   OH225638   5.087   2.771   3.359  0.4174  0.0605 -0.1582
 1408TIP3    H125639   5.091   2.824   3.280 -1.4912 -1.1075 -1.1148
 1408TIP3    H225640   5.026   2.818   3.416  1.7181  0.8518  0.6340
 1409TIP3   OH225641   1.131   0.652   5.422  0.8039  0.0890 -0.1091
 1409TIP3    H125642   1.160   0.743   5.427  0.4529  0.2091 -0.2081
 1409TIP3    H225643   1.162   0.622   5.337 -1.4998  0.9942 -1.3823
 1410TIP3   OH225644   2.678   1.138   4.604  0.4052 -0.4062  0.0570
 1410TIP3    H125645   2.731   1.071   4.561 -0.3529 -0.2735 -1.1157
 1410TIP3    H225646   2.673   1.110   4.696  2.4509 -0.4359  0.1917
 1411TIP3   OH225647   4.183   1.924  13.407  0.1146 -0.4538 -0.3042
 1411TIP3    H125648   4.130   1.987  13.359 -0.7803 -0.4109  0.7017
 1411TIP3    H225649   4.166   1.840  13.364  1.1329 -0.0752 -1.5011
 1412TIP3   OH225650   4.504   3.524  16.390 -0.1005  0.0297  0.1273
 1412TIP3    H125651   4.566   3.518  16.463  0.7701  2.0526 -0.3722
 1412TIP3    H225652   4.432   3.467  16.415  1.2104 -1.1221  1.4966
 1413TIP3   OH225653   6.676   1.853  11.744  0.8199 -0.0572  0.0594
 1413TIP3    H125654   6.742   1.817  11.802  0.4321  0.1094  0.6133
 1413TIP3    H225655   6.725   1.884  11.668  1.3615 -0.0683  0.3980
 1414TIP3   OH225656   2.314   1.968  12.319 -0.2157 -0.2082 -0.4132
 1414TIP3    H125657   2.315   1.930  12.231 -1.4184  0.4896 -0.7569
 1414TIP3    H225658   2.317   1.893  12.378 -0.2344 -0.7235 -1.0592
 1415TIP3   OH225659   2.812   1.517  15.778 -0.2254  0.5285 -0.1076
 1415TIP3    H125660   2.757   1.462  15.834 -0.1893 -0.0724 -0.6512
 1415TIP3    H225661   2.856   1.456  15.719 -0.2932  1.1440 -0.8213
 1416TIP3   OH225662   1.560   2.781   3.082 -0.3765  0.3485 -0.7380
 1416TIP3    H125663   1.467   2.756   3.084 -1.0868  2.7587  0.9250
 1416TIP3    H225664   1.596   2.748   3.164  0.2937 -0.6322 -1.4051
 1417TIP3   OH225665   3.399   4.145  16.411  0.4628 -0.6128  0.4828
 1417TIP3    H125666   3.491   4.121  16.419  0.6429 -0.8352 -1.7711
 1417TIP3    H225667   3.397   4.214  16.345 -0.6845  1.7379  2.7801
 1418TIP3   OH225668   1.077   3.153  15.783 -0.0587 -0.4434 -0.1844
 1418TIP3    H125669   1.172   3.169  15.779 -0.3161  1.2901 -0.2801
 1418TIP3    H225670   1.038   3.240  15.776 -1.5916 -0.7548  2.7561
 1419TIP3   OH225671   2.551   1.069   2.249 -0.0029 -0.3871 -0.3937
 1419TIP3    H125672   2.491   1.136   2.282  2.8129  0.7890  2.9882
 1419TIP3    H225673   2.502   0.987   2.257 -1.5170  0.5995  1.3072
 1420TIP3   OH225674   2.053   4.557  16.425 -0.3197 -0.2301 -0.0592
 1420TIP3    H125675   2.050   4.552  16.521  2.2770  2.0166  0.2540
 1420TIP3    H225676   2.105   4.482  16.399  0.5396  0.1686  0.4731
 1421TIP3   OH225677   2.086   2.202  11.811 -0.2933  0.8979 -0.0029
 1421TIP3    H125678   2.124   2.162  11.733 -0.9677 -1.1065  0.6373
 1421TIP3    H225679   1.997   2.168  11.815 -0.2284  0.8213  1.6868
 1422TIP3   OH225680   3.373   1.373   0.265  0.2389 -0.0924  0.1642
 1422TIP3    H125681   3.458   1.377   0.221 -0.6527 -0.1025 -1.6413
 1422TIP3    H225682   3.392   1.398   0.356  2.0328  0.6430 -0.3680
 1423TIP3   OH225683   2.614   2.587   4.266  0.0035  0.3366  0.5648
 1423TIP3    H125684   2.598   2.540   4.185  1.1837 -3.2002  2.1828
 1423TIP3    H225685   2.527   2.619   4.292 -0.6249  0.2800 -1.3563
 1424TIP3   OH225686   0.196   4.263   2.214 -0.3777  0.4000 -0.1905
 1424TIP3    H125687   0.203   4.233   2.123  0.6717  5.1089 -1.9063
 1424TIP3    H225688   0.106   4.296   2.221 -0.1106  1.0917  0.0741
 1425TIP3   OH225689   5.169   0.372  14.799  0.3475 -0.0846 -0.0638
 1425TIP3    H125690   5.193   0.415  14.717  0.1827  0.3678  0.1182
 1425TIP3    H225691   5.252   0.350  14.840  0.4369  0.2708 -0.0523
 1426TIP3   OH225692   4.777   5.182  12.982 -0.2034  0.2128 -0.1397
 1426TIP3    H125693   4.859   5.148  13.018  0.4189  0.8378 -0.9031
 1426TIP3    H225694   4.771   5.143  12.895 -1.9007 -1.6086  0.7466
 1427TIP3   OH225695   6.141   6.008  10.791  0.3677  0.5192 -0.2835
 1427TIP3    H125696   6.097   6.030  10.709 -0.2327 -1.5432 -0.5792
 1427TIP3    H225697   6.210   5.948  10.766  0.5271  0.2922  0.6612
 1428TIP3   OH225698   6.264   0.407  16.259 -0.7819  0.4676  0.3477
 1428TIP3    H125699   6.323   0.482  16.257 -0.8804  0.5409  0.1503
 1428TIP3    H225700   6.180   0.443  16.229 -0.5920  0.0663 -0.7123
 1429TIP3   OH225701   1.838   2.032  16.912  0.0039 -0.6401  0.1607
 1429TIP3    H125702   1.927   2.065  16.928  0.2962 -0.0243 -2.2604
 1429TIP3    H225703   1.828   1.960  16.973  1.3435  0.6392  2.0029
 1430TIP3   OH225704   5.483   5.168   5.294  0.1324 -0.2545  0.0754
 1430TIP3    H125705   5.472   5.103   5.363  0.0906  0.0617  0.3678
 1430TIP3    H225706   5.428   5.136   5.222  2.1201 -1.9248 -0.7970
 1431TIP3   OH225707   5.519   4.061  15.996 -0.0347  0.0160  0.5079
 1431TIP3    H125708   5.529   4.118  15.920 -0.9772 -0.1227  0.2749
 1431TIP3    H225709   5.595   4.081  16.050  0.1779  0.7635 -0.0453
 1432TIP3   OH225710   3.716   2.038   3.858 -0.1114  0.0786 -0.0769
 1432TIP3    H125711   3.663   1.975   3.908  1.3899 -1.7572 -0.6722
 1432TIP3    H225712   3.651   2.091   3.812 -1.4597 -0.9329  0.5573
 1433TIP3   OH225713   6.056   2.778  16.898 -0.8057  0.1233  0.3910
 1433TIP3    H125714   6.024   2.771  16.809  2.0287  0.5757 -0.7773
 1433TIP3    H225715   6.052   2.872  16.918  0.9756  0.4028 -0.3382
 1434TIP3   OH225716   3.047   5.057   5.471  0.6703  0.6049  0.4184
 1434TIP3    H125717   2.976   5.005   5.433  0.5571 -0.0190  1.4556
 1434TIP3    H225718   3.092   5.094   5.395 -0.8790  1.2006 -0.2626
 1435TIP3   OH225719   0.930   1.796  12.143 -0.7171 -0.3623 -0.0618
 1435TIP3    H125720   0.931   1.709  12.105 -2.0972 -0.1882 -0.5675
 1435TIP3    H225721   0.925   1.855  12.068 -1.8732  0.0527  0.3198
 1436TIP3   OH225722   1.566   1.061  11.760 -0.5725  0.5437 -0.3786
 1436TIP3    H125723   1.579   1.155  11.744 -1.4264  0.5470 -1.1338
 1436TIP3    H225724   1.475   1.054  11.789  0.5215  0.3923  3.6670
 1437TIP3   OH225725   1.325   2.083   1.814 -0.1270 -0.4894  0.2179
 1437TIP3    H125726   1.303   2.052   1.901 -0.7555  0.6139  0.4671
 1437TIP3    H225727   1.413   2.049   1.798  0.3402  0.0110  1.6239
 1438TIP3   OH225728   3.148   1.306  15.479 -0.3151 -0.4089  0.5228
 1438TIP3    H125729   3.223   1.251  15.499 -0.5677 -1.5073 -1.3093
 1438TIP3    H225730   3.177   1.360  15.405 -0.8190  0.3081  0.8338
 1439TIP3   OH225731   1.755   2.996   0.669  0.5813  0.6002  0.2157
 1439TIP3    H125732   1.696   3.062   0.633 -0.5597 -1.1023 -1.1848
 1439TIP3    H225733   1.723   2.912   0.635  2.3441 -0.6537  1.3993
 1440TIP3   OH225734   3.378   3.765  10.487 -0.0547  0.0982 -0.0297
 1440TIP3    H125735   3.308   3.797  10.544  1.7416  1.4238  1.5855
 1440TIP3    H225736   3.436   3.717  10.546  1.0673  0.1601 -1.0578
 1441TIP3   OH225737   4.549   0.540   2.638 -0.2695 -0.0353 -0.5283
 1441TIP3    H125738   4.536   0.448   2.614 -1.1722 -0.0409 -0.0777
 1441TIP3    H225739   4.643   0.548   2.651  0.0254 -0.4941 -2.1691
 1442TIP3   OH225740   6.054   6.452  10.973 -0.7465 -0.4248  0.1893
 1442TIP3    H125741   6.147   6.445  10.949 -0.9281  0.0100 -0.7006
 1442TIP3    H225742   6.009   6.395  10.911 -1.3619  1.7131 -1.4885
 1443TIP3   OH225743   3.679   3.501  16.411 -0.1288 -0.1012 -0.6406
 1443TIP3    H125744   3.730   3.444  16.354 -0.3420 -1.1984  0.2330
 1443TIP3    H225745   3.588   3.477  16.394 -0.1927 -0.4856  0.1936
 1444TIP3   OH225746   1.952   6.597   0.493 -0.4767 -0.2699 -0.4973
 1444TIP3    H125747   2.009   6.637   0.559  0.5394 -0.9359 -0.9556
 1444TIP3    H225748   2.001   6.522   0.460 -2.3016 -1.8661  0.2566
 1445TIP3   OH225749   5.870   0.969   0.294 -0.0549  0.4392 -0.0365
 1445TIP3    H125750   5.797   0.986   0.354  1.1072  1.5042  1.1435
 1445TIP3    H225751   5.841   0.894   0.242 -1.4820  0.0536  1.2384
 1446TIP3   OH225752   2.177   5.740  11.894  0.4038 -0.2356 -0.1242
 1446TIP3    H125753   2.241   5.691  11.946 -0.1318 -1.0970 -0.2606
 1446TIP3    H225754   2.203   5.723  11.803  0.5692  0.2192 -0.1638
 1447TIP3   OH225755   2.068   6.642   5.176  0.1943 -0.1181  0.1889
 1447TIP3    H125756   2.072   6.618   5.269 -0.5994 -2.5954 -0.3510
 1447TIP3    H225757   2.119   6.575   5.131 -0.5621  0.2590 -1.3058
 1448TIP3   OH225758   6.063   0.050  15.622 -0.1097 -0.3393 -0.0019
 1448TIP3    H125759   6.006   0.113  15.666  0.3554 -1.0834  1.7499
 1448TIP3    H225760   6.035  -0.035  15.655  2.7844 -0.6603  1.9481
 1449TIP3   OH225761   0.363   5.415  13.129 -0.0273  0.2491  0.3308
 1449TIP3    H125762   0.422   5.471  13.079  2.0959 -2.8769 -0.9620
 1449TIP3    H225763   0.306   5.476  13.177  2.0197  3.4125 -0.9842
 1450TIP3   OH225764   4.790   4.885  13.909  0.1934  0.5268 -0.1085
 1450TIP3    H125765   4.773   4.817  13.844 -0.2467  0.1269  0.4126
 1450TIP3    H225766   4.845   4.949  13.864 -1.1424  0.8989 -1.2651
 1451TIP3   OH225767   2.986   5.805   4.204 -0.1548 -0.0051  0.2301
 1451TIP3    H125768   3.079   5.826   4.214  0.0516 -1.3509  1.4695
 1451TIP3    H225769   2.983   5.743   4.131 -0.1269  0.3506 -0.0725
 1452TIP3   OH225770   1.120   4.168  15.395  0.3631 -0.0950 -0.4952
 1452TIP3    H125771   1.127   4.131  15.483  0.1994  0.0503 -0.4200
 1452TIP3    H225772   1.209   4.168  15.361  0.7116  1.4447  0.3233
 1453TIP3   OH225773   2.074   0.450  15.327  0.0627  0.9578 -0.1499
 1453TIP3    H125774   2.096   0.466  15.419  0.5161 -1.7165  0.2931
 1453TIP3    H225775   2.018   0.373  15.329  0.8790  0.2526 -2.1787
 1454TIP3   OH225776   6.570   5.403   2.321 -0.8643  0.0617 -0.6146
 1454TIP3    H125777   6.542   5.389   2.411 -1.0957  1.8422 -0.3649
 1454TIP3    H225778   6.592   5.316   2.288 -0.9942 -0.6415  1.0797
 1455TIP3   OH225779   6.715   0.338  10.577 -0.6783 -0.3874  0.1812
 1455TIP3    H125780   6.803   0.375  10.566 -2.0800  3.2368 -0.2088
 1455TIP3    H225781   6.712   0.310  10.669  0.7967 -0.3990  0.2538
 1456TIP3   OH225782   2.800   2.652   5.346  0.3325  0.0719  0.3019
 1456TIP3    H125783   2.841   2.594   5.410  1.4380  1.5162  0.9673
 1456TIP3    H225784   2.874   2.690   5.298 -0.2715  1.6101  0.5200
 1457TIP3   OH225785   1.421   0.080  17.406 -0.5432 -0.0948  0.3215
 1457TIP3    H125786   1.372   0.151  17.447 -0.9795  1.0539 -2.0038
 1457TIP3    H225787   1.359   0.008  17.400 -0.4802 -0.2724  1.5788
 1458TIP3   OH225788   4.621   6.701  14.122  0.0757  0.4872  0.0445
 1458TIP3    H125789   4.632   6.794  14.104 -0.8915  0.6015 -0.0472
 1458TIP3    H225790   4.700   6.676  14.170 -0.9729  2.1276  2.9521
 1459TIP3   OH225791   6.182   5.950   5.391  0.5881  0.5586  0.3560
 1459TIP3    H125792   6.118   6.020   5.377  0.1092  0.1336  0.3960
 1459TIP3    H225793   6.179   5.935   5.486 -0.1584 -0.3031  0.2087
 1460TIP3   OH225794   2.803   3.723  10.852 -0.0273  0.2424  0.0907
 1460TIP3    H125795   2.853   3.789  10.804 -0.8509  0.1302 -0.9646
 1460TIP3    H225796   2.752   3.678  10.784  3.0134 -3.8792  0.1404
 1461TIP3   OH225797   1.272   3.165   2.539  0.1382 -0.2147  0.0606
 1461TIP3    H125798   1.291   3.086   2.590  0.7377  0.0038  0.1909
 1461TIP3    H225799   1.344   3.170   2.476  0.4354  0.5444  0.4381
 1462TIP3   OH225800   1.913   3.895   3.748  0.2710 -0.3400  0.0492
 1462TIP3    H125801   1.914   3.967   3.811 -1.0401 -0.1762 -0.0954
 1462TIP3    H225802   2.004   3.867   3.743  0.8292  1.3421  0.0797
 1463TIP3   OH225803   0.350   5.461   0.063 -0.2479 -0.5544  0.2111
 1463TIP3    H125804   0.386   5.548   0.049 -2.2666  0.4965  1.0828
 1463TIP3    H225805   0.426   5.404   0.075  1.1044  1.4922  1.9044
 1464TIP3   OH225806   4.014   3.352   1.519 -0.3403 -0.3477  0.2405
 1464TIP3    H125807   3.999   3.264   1.484 -0.7454 -0.6489  1.1516
 1464TIP3    H225808   3.984   3.411   1.450 -0.3225 -0.9205 -0.2639
 1465TIP3   OH225809   0.155   6.172  15.383 -0.0360  0.3303  1.0247
 1465TIP3    H125810   0.210   6.151  15.308  0.6124  2.3323  0.8636
 1465TIP3    H225811   0.205   6.143  15.459  0.2148  0.0779  0.7639
 1466TIP3   OH225812   0.218   0.308   1.428 -0.2149 -0.4334 -0.8199
 1466TIP3    H125813   0.165   0.270   1.498  0.9031 -1.2131 -0.3769
 1466TIP3    H225814   0.305   0.321   1.467 -0.0245  0.7116 -1.5641
 1467TIP3   OH225815   0.102   6.507   2.256 -0.1570 -0.4661  0.4444
 1467TIP3    H125816   0.015   6.529   2.289 -1.3076 -1.5734 -1.6434
 1467TIP3    H225817   0.151   6.589   2.259 -0.6969 -0.1677  3.1782
 1468TIP3   OH225818   4.910   5.416   1.213  0.4326  0.3005 -0.0853
 1468TIP3    H125819   4.962   5.401   1.291 -1.8422  1.7506  1.8570
 1468TIP3    H225820   4.955   5.488   1.167  1.8484 -0.6486 -0.2513
 1469TIP3   OH225821   0.810   2.564   1.492  0.4200  0.1209  0.6459
 1469TIP3    H125822   0.723   2.548   1.529  0.3967  0.6703  0.8420
 1469TIP3    H225823   0.810   2.657   1.471  0.5741 -0.1074 -0.3938
 1470TIP3   OH225824   5.998   4.228  13.192 -0.2489  0.5462 -0.4811
 1470TIP3    H125825   6.044   4.195  13.269 -1.3550  0.1386  0.0333
 1470TIP3    H225826   5.941   4.297  13.227 -1.2381 -0.0833 -0.8094
 1471TIP3   OH225827   0.605   6.369  12.173 -0.1492  0.0353  0.0608
 1471TIP3    H125828   0.616   6.346  12.081  1.3755  0.4220  0.1291
 1471TIP3    H225829   0.672   6.434  12.191 -1.1281  0.7899  1.1796
 1472TIP3   OH225830   5.982   0.448   2.857 -0.0106 -0.2203 -0.2639
 1472TIP3    H125831   6.061   0.488   2.820 -1.9519  2.6199 -1.6323
 1472TIP3    H225832   5.998   0.447   2.952  2.1837 -1.0819 -0.5795
 1473TIP3   OH225833   5.183   6.152   5.321 -0.0969 -1.0281  0.2277
 1473TIP3    H125834   5.255   6.093   5.298  0.3397  0.1437 -1.6649
 1473TIP3    H225835   5.225   6.237   5.332 -1.0872 -0.4688 -0.1669
 1474TIP3   OH225836   1.142   3.200   5.085 -0.0919 -0.4105  0.1293
 1474TIP3    H125837   1.161   3.120   5.037  0.1628 -1.7283  2.3146
 1474TIP3    H225838   1.214   3.210   5.147  0.0210  1.6782 -0.2406
 1475TIP3   OH225839   0.479   4.867   4.393 -0.3411 -0.4573 -0.0732
 1475TIP3    H125840   0.486   4.915   4.475 -0.3002  1.4137 -1.1192
 1475TIP3    H225841   0.570   4.859   4.362 -0.5506  1.8274 -1.5136
 1476TIP3   OH225842   3.014   5.180  17.044  0.0852 -0.0162 -1.1076
 1476TIP3    H125843   2.941   5.214  16.993  1.8563  1.9659 -2.5204
 1476TIP3    H225844   3.023   5.242  17.117 -1.0339 -1.5683  0.4054
 1477TIP3   OH225845   0.504   4.854   3.112 -0.2256 -0.4970 -1.0218
 1477TIP3    H125846   0.596   4.862   3.084 -0.4151  0.0611 -1.4931
 1477TIP3    H225847   0.504   4.883   3.203  0.5114 -2.9245 -0.1632
 1478TIP3   OH225848   5.338   3.944  13.333 -0.1349  0.2059  0.0430
 1478TIP3    H125849   5.291   3.906  13.407  1.0676 -1.9197 -0.1935
 1478TIP3    H225850   5.288   4.022  13.310 -2.7405 -1.1386  0.7036
 1479TIP3   OH225851   6.727   4.897  17.184  0.0119  0.4355 -0.0713
 1479TIP3    H125852   6.782   4.892  17.106  0.6010 -2.4900  0.4112
 1479TIP3    H225853   6.773   4.845  17.249 -2.0488  0.0945  1.2059
 1480TIP3   OH225854   0.676   5.860   3.258 -0.2743  0.4579  0.1978
 1480TIP3    H125855   0.658   5.790   3.321  0.6043 -0.1369 -0.1877
 1480TIP3    H225856   0.589   5.893   3.234 -0.6276  0.7686  1.7744
 1481TIP3   OH225857   3.454   4.127  16.694 -0.4619 -0.0835 -0.5591
 1481TIP3    H125858   3.389   4.120  16.763 -0.4650  0.1398 -0.5397
 1481TIP3    H225859   3.411   4.176  16.624  0.0348  1.0443 -0.1051
 1482TIP3   OH225860   4.844   5.010   2.018  0.0830 -0.0888 -0.2848
 1482TIP3    H125861   4.895   4.936   1.985  0.5304  0.1195 -0.0684
 1482TIP3    H225862   4.795   5.041   1.941  0.5205 -0.0938 -0.5681
 1483TIP3   OH225863   1.735   3.779   2.177  0.0346  0.3230 -0.5093
 1483TIP3    H125864   1.711   3.793   2.269  1.7036  1.6936 -0.2307
 1483TIP3    H225865   1.824   3.744   2.180 -0.6923 -1.7654 -1.5777
 1484TIP3   OH225866   3.902   0.417  16.371 -0.1730  0.3162 -0.1209
 1484TIP3    H125867   3.928   0.460  16.289 -0.3377  1.8419  0.5930
 1484TIP3    H225868   3.822   0.370  16.348  0.4053 -0.2389 -1.1035
 1485TIP3   OH225869   6.646   4.218   2.838  0.5268  0.2408 -0.2555
 1485TIP3    H125870   6.704   4.234   2.912 -0.8233 -0.3232  0.9785
 1485TIP3    H225871   6.664   4.127   2.812 -0.4384 -0.2534  0.7453
 1486TIP3   OH225872   0.477   4.750   4.741  0.2556 -0.1508  0.0082
 1486TIP3    H125873   0.520   4.675   4.782 -3.1736 -1.8379  0.8373
 1486TIP3    H225874   0.401   4.713   4.697 -1.3440  2.7940  0.0639
 1487TIP3   OH225875   5.797   0.646  15.659 -0.2801 -0.0100 -0.4902
 1487TIP3    H125876   5.884   0.640  15.620 -0.3670  1.7652 -1.0646
 1487TIP3    H225877   5.746   0.697  15.596 -1.1970  0.6037  0.7026
 1488TIP3   OH225878   1.587   1.391   5.605 -0.5428 -0.3173 -0.1594
 1488TIP3    H125879   1.616   1.365   5.517  0.2878  1.8821 -0.5918
 1488TIP3    H225880   1.667   1.408   5.653 -0.9575  2.8712 -0.4157
 1489TIP3   OH225881   6.280   5.590  17.385 -0.1328 -0.3121 -0.5244
 1489TIP3    H125882   6.259   5.538  17.307 -0.8858  1.3474 -1.4879
 1489TIP3    H225883   6.370   5.619  17.371  0.6102 -2.0082  0.4407
 1490TIP3   OH225884   0.555   3.361   3.395 -0.8676  0.0205  0.1079
 1490TIP3    H125885   0.613   3.335   3.467 -0.3950 -2.3155 -1.0320
 1490TIP3    H225886   0.581   3.305   3.322 -2.1882  1.4387 -1.5292
 1491TIP3   OH225887   4.983   3.181   1.576  0.1149 -0.2475 -0.0906
 1491TIP3    H125888   4.992   3.091   1.607 -1.7626 -0.1613  0.7926
 1491TIP3    H225889   4.955   3.230   1.653  0.2875  0.9425 -0.7710
 1492TIP3   OH225890   6.626   4.675  14.617 -0.1320  0.1706 -0.0657
 1492TIP3    H125891   6.559   4.630  14.669 -1.2402  1.9385  0.1314
 1492TIP3    H225892   6.694   4.698  14.681  0.4697 -1.2340 -0.1812
 1493TIP3   OH225893   4.149   0.924   3.200 -0.5449  0.2488  0.1723
 1493TIP3    H125894   4.209   0.878   3.259  0.0852  0.9299  0.0760
 1493TIP3    H225895   4.095   0.978   3.257  2.4018  3.6797  0.0188
 1494TIP3   OH225896   5.813   5.272   5.017 -0.0874  0.9504 -0.3655
 1494TIP3    H125897   5.871   5.312   4.952  0.0107  0.8797 -0.3223
 1494TIP3    H225898   5.778   5.194   4.974  1.7345 -0.3772  0.4248
 1495TIP3   OH225899   3.420   3.467  14.046 -0.0714  0.1312 -0.3213
 1495TIP3    H125900   3.394   3.499  14.133  1.1346  1.5738 -0.4411
 1495TIP3    H225901   3.345   3.417  14.015 -1.0229  0.6682  1.0244
 1496TIP3   OH225902   4.775   0.071   3.129 -0.4729 -0.6660  0.0802
 1496TIP3    H125903   4.855   0.078   3.182 -1.3842 -1.2483  1.5936
 1496TIP3    H225904   4.774  -0.020   3.100 -0.4154 -0.5699 -0.2245
 1497TIP3   OH225905   6.088   3.022   5.922  1.0004 -0.5890 -0.2844
 1497TIP3    H125906   6.080   3.113   5.950  3.5886 -0.8279  1.5723
 1497TIP3    H225907   6.176   3.016   5.885  0.6544 -2.2302 -0.9238
 1498TIP3   OH225908   4.730   6.736  16.753  0.0230 -0.1041 -0.1506
 1498TIP3    H125909   4.793   6.808  16.759  0.6904 -0.8019  2.3018
 1498TIP3    H225910   4.784   6.658  16.743 -0.6117 -0.4572 -0.8933
 1499TIP3   OH225911   3.802   5.183   4.682 -0.0116 -0.0645  0.3075
 1499TIP3    H125912   3.740   5.159   4.752 -0.0789 -2.3164 -0.4240
 1499TIP3    H225913   3.771   5.134   4.606  0.7920  1.3586 -0.9876
 1500TIP3   OH225914   4.194   5.844  15.835  0.1498  0.4105 -0.4227
 1500TIP3    H125915   4.173   5.937  15.827  0.4288  0.3574 -2.6744
 1500TIP3    H225916   4.287   5.839  15.813  0.8151 -0.1707  2.1849
 1501TIP3   OH225917   5.673   6.100  12.767 -0.5556 -0.1036  0.6209
 1501TIP3    H125918   5.579   6.105  12.753 -0.9056 -1.2062  2.2292
 1501TIP3    H225919   5.711   6.095  12.679 -1.9101  1.2941 -0.0757
 1502TIP3   OH225920   0.176   5.493   4.728 -0.4440 -0.3852 -0.0971
 1502TIP3    H125921   0.212   5.417   4.774  2.4018  0.7367 -0.2389
 1502TIP3    H225922   0.178   5.468   4.636 -1.0951 -0.7103 -0.0291
 1503TIP3   OH225923   5.939   4.832   5.251 -0.0490  0.1283  0.6728
 1503TIP3    H125924   5.849   4.800   5.242 -0.4576  1.0994  1.1914
 1503TIP3    H225925   5.957   4.876   5.168 -0.2300  0.3711  0.7623
 1504TIP3   OH225926   6.608   2.583   3.060  0.0440 -0.0963 -0.4329
 1504TIP3    H125927   6.661   2.574   2.981 -0.4865 -0.9091 -0.7037
 1504TIP3    H225928   6.557   2.663   3.045 -0.1081 -0.2868 -0.9469
 1505TIP3   OH225929   4.003   6.548   4.421  0.5990 -0.3566 -0.3691
 1505TIP3    H125930   3.940   6.503   4.477  1.0464  0.9336  1.2478
 1505TIP3    H225931   4.022   6.486   4.351 -0.1697 -1.9503  0.7766
 1506TIP3   OH225932   3.494   3.111  12.035 -0.8502  0.4642 -0.3651
 1506TIP3    H125933   3.500   3.081  11.944 -0.7035  2.9765 -1.2569
 1506TIP3    H225934   3.403   3.094  12.060 -1.0316  0.2183 -1.1735
 1507TIP3   OH225935   6.594   4.379  13.129  0.1979  0.1874 -0.1884
 1507TIP3    H125936   6.508   4.420  13.125  0.6456  1.1505 -0.4677
 1507TIP3    H225937   6.579   4.294  13.169 -0.8134  0.5260  0.1824
 1508TIP3   OH225938   4.597   4.780   4.459 -0.0029  0.0829  0.3551
 1508TIP3    H125939   4.566   4.712   4.519  0.0483  1.9302  2.6242
 1508TIP3    H225940   4.527   4.845   4.458 -0.7749 -0.6454 -3.0583
 1509TIP3   OH225941   5.779   6.445  11.450 -0.3763 -0.5036 -0.3142
 1509TIP3    H125942   5.811   6.415  11.535  0.3549  1.5405  0.1773
 1509TIP3    H225943   5.684   6.428  11.453 -0.7049  1.2832  1.7310
 1510TIP3   OH225944   3.158   3.062  12.829  0.1564  0.5744 -0.3114
 1510TIP3    H125945   3.185   2.990  12.886 -2.9660 -1.1155 -0.7646
 1510TIP3    H225946   3.237   3.085  12.780  1.3781 -2.3117  0.1354
 1511TIP3   OH225947   5.101   4.337   3.832 -0.5058 -0.6008 -0.4966
 1511TIP3    H125948   5.104   4.287   3.913  0.8540 -1.7371 -1.1998
 1511TIP3    H225949   5.085   4.428   3.860  1.2770 -0.7367  1.1654
 1512TIP3   OH225950   2.387   0.474   4.136  0.0221 -0.3975 -0.4452
 1512TIP3    H125951   2.298   0.473   4.170  0.6230 -0.8167  1.2611
 1512TIP3    H225952   2.382   0.522   4.053 -1.8722 -0.9556 -0.6888
 1513TIP3   OH225953   0.181   4.931   4.213  0.0814  0.7182  0.2334
 1513TIP3    H125954   0.240   4.990   4.261  0.9660 -0.0002  0.0516
 1513TIP3    H225955   0.236   4.857   4.188 -0.5894  0.6365 -1.0909
 1514TIP3   OH225956   3.455   6.149  14.546 -0.2286 -0.3694 -0.1677
 1514TIP3    H125957   3.421   6.215  14.485 -2.0392 -1.1698 -0.0789
 1514TIP3    H225958   3.451   6.191  14.632  2.7970  0.9459 -0.5461
 1515TIP3   OH225959   2.685   6.097  16.780  0.7537 -0.3100 -0.3981
 1515TIP3    H125960   2.726   6.029  16.834 -0.4597 -1.6432 -1.1005
 1515TIP3    H225961   2.621   6.050  16.726  0.5622  1.2623 -1.6079
 1516TIP3   OH225962   2.737   4.240   6.432  0.1304 -0.2671  0.6843
 1516TIP3    H125963   2.699   4.153   6.433 -0.1192 -0.1573  1.0410
 1516TIP3    H225964   2.830   4.226   6.447  0.2590 -0.5493 -0.3632
 1517TIP3   OH225965   5.472   1.143   0.673 -0.1330  0.4389  0.2832
 1517TIP3    H125966   5.541   1.195   0.631  1.1534 -0.8345  0.7292
 1517TIP3    H225967   5.512   1.114   0.755 -0.9266 -0.9395  0.2111
 1518TIP3   OH225968   1.930   3.423   1.964 -0.1224 -0.2137  0.6893
 1518TIP3    H125969   1.872   3.477   1.910 -1.3114 -0.9558  1.2110
 1518TIP3    H225970   1.912   3.450   2.054 -1.9570 -2.5741  1.1177
 1519TIP3   OH225971   3.388   1.263  15.248 -0.2696 -0.7533  0.2046
 1519TIP3    H125972   3.474   1.227  15.225 -0.5058 -0.3738 -1.3958
 1519TIP3    H225973   3.326   1.214  15.195 -0.9128 -0.1381  0.3651
 1520TIP3   OH225974   1.298   5.240  10.788  0.3716  0.2309  0.1937
 1520TIP3    H125975   1.214   5.268  10.826 -0.0887  0.2860 -0.8297
 1520TIP3    H225976   1.350   5.211  10.863 -1.3404 -1.8432  0.6615
 1521TIP3   OH225977   6.486   4.485   4.593 -0.5008  0.3331 -0.3791
 1521TIP3    H125978   6.431   4.438   4.531 -0.0875  0.5045 -0.8839
 1521TIP3    H225979   6.564   4.509   4.543  0.4800 -0.7660  0.5706
 1522TIP3   OH225980   2.026   4.391   0.998  0.2542 -0.2748  0.2296
 1522TIP3    H125981   2.087   4.356   1.063 -0.2852  0.5207  1.1920
 1522TIP3    H225982   2.072   4.382   0.914  0.9585 -1.3279  0.7084
 1523TIP3   OH225983   2.710   0.829  13.680  0.1644  0.5627  0.2421
 1523TIP3    H125984   2.775   0.866  13.621  0.0530  0.1671 -0.1297
 1523TIP3    H225985   2.746   0.843  13.768  0.5604  0.7047  0.0575
 1524TIP3   OH225986   5.355   0.060   3.035 -0.2125  0.0909  0.1138
 1524TIP3    H125987   5.387   0.024   3.117  1.5153 -1.3575 -1.1231
 1524TIP3    H225988   5.428   0.112   3.001 -1.0501  1.0171 -0.3344
 1525TIP3   OH225989   3.093   5.645   0.376 -0.1659 -0.5233  0.0271
 1525TIP3    H125990   3.145   5.577   0.333 -0.1189  0.2402 -1.1554
 1525TIP3    H225991   3.028   5.597   0.427 -0.6843 -1.4820 -1.4697
 1526TIP3   OH225992   1.996   5.353   3.382  0.1620 -0.5401 -0.1360
 1526TIP3    H125993   1.990   5.259   3.363 -0.5800 -0.9705  1.9376
 1526TIP3    H225994   1.907   5.376   3.411 -0.1625  1.2550 -2.3059
 1527TIP3   OH225995   6.751   4.238   3.077  0.1344  0.4222  0.5874
 1527TIP3    H125996   6.692   4.185   3.131 -0.9055 -0.4285 -1.2945
 1527TIP3    H225997   6.836   4.196   3.087 -0.9141 -2.7858 -2.0571
 1528TIP3   OH225998   5.882   1.777  14.939 -0.5429  0.1192  0.5561
 1528TIP3    H125999   5.961   1.812  14.979 -0.9562  1.6024  0.1574
 1528TIP3    H226000   5.847   1.850  14.887 -2.3010 -0.3966  0.9290
 1529TIP3   OH226001   3.603   4.927  12.688  0.7741 -0.0224 -0.0930
 1529TIP3    H126002   3.526   4.872  12.677  0.0888  1.1286 -1.3831
 1529TIP3    H226003   3.569   5.017  12.691  1.8832  0.4106  1.5915
 1530TIP3   OH226004   3.273   4.946   2.644  0.1979 -0.3842 -0.0332
 1530TIP3    H126005   3.366   4.937   2.625  0.6638  1.1134  1.3089
 1530TIP3    H226006   3.231   4.950   2.558  1.3565 -1.1300 -0.6495
 1531TIP3   OH226007   0.407   6.355  13.366  0.6423 -1.0320  0.3344
 1531TIP3    H126008   0.348   6.358  13.290  0.7550  1.1268  0.2732
 1531TIP3    H226009   0.400   6.265  13.398 -1.3993 -1.3032 -0.6901
 1532TIP3   OH226010   6.063   1.403   3.803  0.0149 -0.1286 -0.1201
 1532TIP3    H126011   6.055   1.354   3.884  0.4520 -0.6884 -0.4081
 1532TIP3    H226012   6.001   1.475   3.812  1.6428  1.1591  1.6662
 1533TIP3   OH226013   2.499   5.095  13.117 -0.8569 -0.1335 -0.3187
 1533TIP3    H126014   2.435   5.095  13.047 -0.5258 -1.3394 -0.6483
 1533TIP3    H226015   2.536   5.183  13.117 -1.1891  0.0097 -1.3559
 1534TIP3   OH226016   4.346   2.072  11.187 -0.2085  0.1267 -0.4797
 1534TIP3    H126017   4.319   2.041  11.273  2.0049 -0.1855  0.1622
 1534TIP3    H226018   4.442   2.068  11.189  0.1263  3.8304 -1.5465
 1535TIP3   OH226019   5.844   0.523   6.255  0.1248 -0.7002 -0.1128
 1535TIP3    H126020   5.866   0.598   6.311  0.4364 -2.3768  2.1132
 1535TIP3    H226021   5.822   0.563   6.170 -3.2722  2.2262  1.8876
 1536TIP3   OH226022   6.365   5.192  12.791  0.0186 -0.0716 -0.0603
 1536TIP3    H126023   6.279   5.206  12.753  0.1086 -0.6278 -0.4811
 1536TIP3    H226024   6.405   5.279  12.794 -0.3738  0.1183 -0.3036
 1537TIP3   OH226025   2.917   1.940   2.487  0.1683 -0.2744  0.0950
 1537TIP3    H126026   2.825   1.939   2.515  0.2715 -0.6732  0.4281
 1537TIP3    H226027   2.965   1.971   2.563  0.4769 -1.5812  0.4595
 1538TIP3   OH226028   0.250   0.860  12.749 -0.6879 -0.2575 -0.5027
 1538TIP3    H126029   0.219   0.931  12.693 -0.3283 -0.0361 -0.4299
 1538TIP3    H226030   0.238   0.781  12.697  0.3040  0.0224 -1.1802
 1539TIP3   OH226031   3.153   5.764  12.576  0.0769  0.0192  0.1789
 1539TIP3    H126032   3.166   5.850  12.615  0.3828  0.3018 -0.5441
 1539TIP3    H226033   3.179   5.774  12.485  0.1859 -0.8540  0.1033
 1540TIP3   OH226034   3.190   4.322  16.257 -0.2129  0.0750  0.1284
 1540TIP3    H126035   3.103   4.360  16.266 -0.0309  0.4178  0.4446
 1540TIP3    H226036   3.174   4.237  16.215 -0.6636  0.2861 -0.1391
 1541TIP3   OH226037   4.369   3.728   6.007 -0.3824 -0.0979 -0.3155
 1541TIP3    H126038   4.408   3.814   6.022 -2.2682  0.8918 -0.7615
 1541TIP3    H226039   4.411   3.670   6.071  1.3662  0.9779 -0.4208
 1542TIP3   OH226040   0.623   4.285  14.270  0.3806  0.0480 -0.2436
 1542TIP3    H126041   0.583   4.342  14.336 -0.7258 -0.7837 -0.1582
 1542TIP3    H226042   0.601   4.327  14.186 -0.5724 -0.3046 -0.1898
 1543TIP3   OH226043   1.553   0.566  12.247  0.4990 -0.1013  0.0711
 1543TIP3    H126044   1.551   0.625  12.323 -0.8166  0.6515 -0.5249
 1543TIP3    H226045   1.631   0.592  12.198  1.2613 -0.4723  1.0523
 1544TIP3   OH226046   0.064   1.960   0.555 -1.0218  0.2165  0.1793
 1544TIP3    H126047  -0.013   1.908   0.577 -0.5414 -0.5396  0.1074
 1544TIP3    H226048   0.030   2.035   0.506 -1.5894 -0.8003 -1.0268
 1545TIP3   OH226049   1.444   5.950  16.039 -0.7667 -0.0307 -0.0903
 1545TIP3    H126050   1.449   5.954  15.943 -1.3853 -0.0043 -0.1256
 1545TIP3    H226051   1.518   5.895  16.064  0.2919  1.1794 -0.4725
 1546TIP3   OH226052   3.915   0.795  10.385  0.1294 -0.2781 -0.8029
 1546TIP3    H126053   4.010   0.797  10.398  0.0814 -0.0388 -0.4597
 1546TIP3    H226054   3.902   0.731  10.315  0.4935 -0.7623 -0.4387
 1547TIP3   OH226055   4.443   4.478  14.672 -0.0870 -0.4018  0.4096
 1547TIP3    H126056   4.515   4.423  14.642 -0.7637 -0.5702 -1.0032
 1547TIP3    H226057   4.465   4.566  14.639 -1.3086 -0.7672 -1.5713
 1548TIP3   OH226058   5.035   3.752  14.971 -0.0154 -0.8533  0.2516
 1548TIP3    H126059   5.035   3.658  14.952  0.3000 -0.8356  0.1569
 1548TIP3    H226060   5.071   3.759  15.059 -1.0826 -0.9020  0.7167
 1549TIP3   OH226061   6.049   3.035  14.366 -0.9420 -0.0430 -0.1013
 1549TIP3    H126062   6.041   3.128  14.343  0.8115  0.2222  0.2334
 1549TIP3    H226063   5.992   3.024  14.443  0.2785  1.2329  1.0417
 1550TIP3   OH226064   5.265   1.653   6.549  0.0853 -0.0615 -0.0709
 1550TIP3    H126065   5.186   1.608   6.520  0.1521  0.3879 -0.9833
 1550TIP3    H226066   5.233   1.720   6.610 -0.1020 -0.7046  0.5552
 1551TIP3   OH226067   4.265   0.673   3.681  0.4664 -0.5691  0.2790
 1551TIP3    H126068   4.194   0.610   3.698 -1.3333  1.1847 -0.2825
 1551TIP3    H226069   4.327   0.625   3.627 -1.0930 -1.7463 -0.5738
 1552TIP3   OH226070   6.717   5.227  11.744 -0.1137  0.6770  0.0737
 1552TIP3    H126071   6.725   5.179  11.826 -0.9004 -0.4100 -0.4519
 1552TIP3    H226072   6.693   5.160  11.680  0.8462  1.4364 -1.1225
 1553TIP3   OH226073   4.149   1.290  15.583  0.4996  0.2223 -0.0150
 1553TIP3    H126074   4.229   1.300  15.634  0.4529 -0.0908  0.1226
 1553TIP3    H226075   4.149   1.197  15.558  0.8379  0.4992 -1.1018
 1554TIP3   OH226076   6.356   0.174  15.298  0.1127 -0.3434 -0.0882
 1554TIP3    H126077   6.340   0.141  15.210  1.3681 -1.2397 -0.0104
 1554TIP3    H226078   6.451   0.179  15.305  0.0255  0.1628  1.0660
 1555TIP3   OH226079   3.246   4.712  10.965 -0.4017 -0.3523 -0.2806
 1555TIP3    H126080   3.215   4.801  10.978  0.2529  0.1283 -1.8108
 1555TIP3    H226081   3.166   4.660  10.958 -0.7928  0.1568  0.2687
 1556TIP3   OH226082   2.257   6.388   4.214 -0.1313  0.6490 -0.1095
 1556TIP3    H126083   2.347   6.416   4.228  0.6124 -1.9894  0.9907
 1556TIP3    H226084   2.264   6.297   4.186 -2.4451  0.0634  0.9343
 1557TIP3   OH226085   5.612   1.689  16.694 -0.5661  0.0235 -0.0912
 1557TIP3    H126086   5.586   1.740  16.771 -1.4707  0.3424 -0.5968
 1557TIP3    H226087   5.657   1.752  16.638  1.4841 -0.5375  0.8074
 1558TIP3   OH226088   2.098   5.224   5.103  0.4621  0.0948 -0.1836
 1558TIP3    H126089   2.039   5.149   5.097 -1.0372  1.3067 -1.6109
 1558TIP3    H226090   2.098   5.248   5.196 -1.0734 -0.1424 -0.1031
 1559TIP3   OH226091   0.839   2.443   2.252  0.1979  0.6370  0.1443
 1559TIP3    H126092   0.794   2.434   2.336  1.0986  0.9200  0.6728
 1559TIP3    H226093   0.769   2.453   2.188 -0.4969  0.6974  0.8976
 1560TIP3   OH226094   6.353   1.362  15.894  0.3451  0.3237 -0.2345
 1560TIP3    H126095   6.440   1.387  15.863  0.2448 -0.1935 -0.9602
 1560TIP3    H226096   6.370   1.295  15.960  0.4904 -0.2295 -0.8183
 1561TIP3   OH226097   2.063   1.110  16.651 -0.3611  0.0581 -0.2208
 1561TIP3    H126098   2.130   1.129  16.717 -0.7541 -0.6136  0.3882
 1561TIP3    H226099   2.095   1.032  16.606 -0.0168  0.6046 -0.9537
 1562TIP3   OH226100   0.436   3.457   2.199 -0.6508 -0.4477 -0.0383
 1562TIP3    H126101   0.434   3.426   2.290 -0.8357  0.9252  0.4516
 1562TIP3    H226102   0.344   3.460   2.173 -0.8051  1.2884  0.5308
 1563TIP3   OH226103   1.425   1.701  14.959  0.0885 -0.0665 -0.0403
 1563TIP3    H126104   1.498   1.705  14.897  2.4464 -2.8658  2.2370
 1563TIP3    H226105   1.443   1.770  15.023 -0.6234  0.7598 -0.6985
 1564TIP3   OH226106   1.845   0.429  11.632 -0.6490 -0.2107 -0.5592
 1564TIP3    H126107   1.897   0.415  11.711 -0.8781  1.3770 -0.0993
 1564TIP3    H226108   1.902   0.478  11.574 -1.6547  1.7858  0.0533
 1565TIP3   OH226109   2.121   1.899   4.643 -0.0867 -0.0727 -0.1043
 1565TIP3    H126110   2.134   1.852   4.561  1.9556  0.2238 -0.0019
 1565TIP3    H226111   2.065   1.973   4.620 -0.0748 -0.3515 -1.0819
 1566TIP3   OH226112   3.822   6.740  13.329  0.6696  0.0526 -0.5292
 1566TIP3    H126113   3.760   6.676  13.296  1.5570 -0.5014 -1.1763
 1566TIP3    H226114   3.811   6.738  13.424 -1.4736  1.2035 -0.6887
 1567TIP3   OH226115   4.910   0.219  13.389  0.3102  0.4487 -0.2140
 1567TIP3    H126116   4.938   0.173  13.310  0.0032 -0.0706 -0.0247
 1567TIP3    H226117   4.815   0.207  13.391  0.4659 -0.9477  1.0807
 1568TIP3   OH226118   2.048   5.019   1.216  0.9003 -0.2450  0.7354
 1568TIP3    H126119   2.052   4.950   1.149  0.1525 -0.6777  1.1105
 1568TIP3    H226120   2.013   4.974   1.293 -0.9396  0.8342  0.5959
 1569TIP3   OH226121   3.138   2.377  13.565 -1.0005 -0.4296  0.1474
 1569TIP3    H126122   3.089   2.342  13.640  0.3538 -1.7838  0.4521
 1569TIP3    H226123   3.187   2.452  13.601  0.5579 -1.7828  0.9648
 1570TIP3   OH226124   3.286   5.555  11.163  0.4643 -0.7954 -0.0851
 1570TIP3    H126125   3.285   5.651  11.169  2.5759 -0.7807  2.8470
 1570TIP3    H226126   3.214   5.526  11.219 -1.2419 -0.9952 -2.2995
 1571TIP3   OH226127   3.206   1.999  14.950 -0.2988 -0.0889  0.2240
 1571TIP3    H126128   3.149   1.927  14.924 -2.4897  2.2009 -1.7351
 1571TIP3    H226129   3.154   2.078  14.936  2.1780  1.9699  1.7239
 1572TIP3   OH226130   0.690   3.165  13.027 -0.1687  0.0675 -0.2511
 1572TIP3    H126131   0.616   3.123  13.070 -0.5047  0.4596 -0.4296
 1572TIP3    H226132   0.766   3.139  13.078 -0.4704 -0.0813  0.1283
 1573TIP3   OH226133   4.857   6.138  16.566  0.7425  0.1339  0.1645
 1573TIP3    H126134   4.810   6.086  16.501  0.3184  0.3390  0.3001
 1573TIP3    H226135   4.841   6.094  16.649 -0.4709  1.0181  0.4348
 1574TIP3   OH226136   1.221   3.230  13.332  0.1078 -0.0265 -0.4926
 1574TIP3    H126137   1.234   3.186  13.248 -0.2350 -0.8601 -0.1157
 1574TIP3    H226138   1.204   3.159  13.394 -0.4689  0.6407  0.1261
 1575TIP3   OH226139   0.113   6.226  14.162  0.5170  0.1342 -0.0742
 1575TIP3    H126140   0.161   6.273  14.231  1.3368  0.9962 -1.1947
 1575TIP3    H226141   0.153   6.256  14.081 -0.3275 -0.9873 -0.9295
 1576TIP3   OH226142   0.276   4.122  12.853 -0.0252 -0.3759 -0.1128
 1576TIP3    H126143   0.344   4.100  12.788 -0.6366 -1.0922 -0.5333
 1576TIP3    H226144   0.312   4.090  12.936  1.0343  1.1028  0.0414
 1577TIP3   OH226145   3.567   1.008   0.968 -0.4473 -0.2962  0.3126
 1577TIP3    H126146   3.508   0.962   1.028 -0.0732  0.4290  1.2786
 1577TIP3    H226147   3.542   1.100   0.977 -1.6808 -0.3057 -2.1292
 1578TIP3   OH226148   6.574   2.136  12.319 -0.1968 -0.3254  0.4876
 1578TIP3    H126149   6.597   2.047  12.295 -2.4909 -0.9639  0.4941
 1578TIP3    H226150   6.580   2.138  12.415 -1.3128 -0.8482  0.5808
 1579TIP3   OH226151   3.219   1.925   4.151  0.5548  0.4673 -1.1806
 1579TIP3    H126152   3.256   1.847   4.193  0.9750  0.5413 -1.4080
 1579TIP3    H226153   3.173   1.890   4.074 -1.2640  0.1937 -0.0352
 1580TIP3   OH226154   4.783   1.987  17.297 -0.5696  0.0915  0.4957
 1580TIP3    H126155   4.740   1.916  17.250 -1.1230  0.6719  0.1214
 1580TIP3    H226156   4.767   2.065  17.244  0.0596  0.4989  0.8861
 1581TIP3   OH226157   3.076   2.705   5.205 -0.0572  0.5281 -0.4948
 1581TIP3    H126158   3.062   2.741   5.117 -0.4825  0.0667 -0.6186
 1581TIP3    H226159   3.154   2.751   5.237 -1.4739  2.7059 -0.0372
 1582TIP3   OH226160   5.805   4.287  17.360  0.8761 -0.2246 -0.6438
 1582TIP3    H126161   5.806   4.354  17.291  0.1818  0.9757  0.4786
 1582TIP3    H226162   5.765   4.330  17.435 -1.5249 -2.4848 -0.4715
 1583TIP3   OH226163   0.255   2.102   1.555  0.1311  0.2256  0.7350
 1583TIP3    H126164   0.225   2.129   1.642 -0.2350  2.3772  0.0226
 1583TIP3    H226165   0.216   2.167   1.496 -2.2868 -2.9203 -1.4802
 1584TIP3   OH226166   0.279   3.791  16.846  0.0536 -0.1412  0.5139
 1584TIP3    H126167   0.375   3.789  16.851  0.0876  0.1759  0.0274
 1584TIP3    H226168   0.260   3.858  16.781 -0.5087 -0.0106  0.8069
 1585TIP3   OH226169   1.003   4.091   0.732 -0.1408 -0.8487 -0.3107
 1585TIP3    H126170   1.073   4.064   0.792  1.1543  1.8193 -0.5108
 1585TIP3    H226171   1.046   4.097   0.646 -1.6718 -3.3166 -1.3862
 1586TIP3   OH226172   4.556   6.498   5.030 -0.2788  0.3227 -0.3343
 1586TIP3    H126173   4.531   6.414   5.069 -0.4794  0.2685 -0.5691
 1586TIP3    H226174   4.631   6.528   5.081 -1.7522  1.2481  1.4230
 1587TIP3   OH226175   4.107   4.638  13.735 -0.0863  0.2533 -0.2239
 1587TIP3    H126176   4.160   4.596  13.669  0.1716 -0.2931  0.3203
 1587TIP3    H226177   4.049   4.697  13.686  0.0966 -0.1410 -0.9256
 1588TIP3   OH226178   6.100   4.538  15.446  0.1314 -0.6021 -0.2915
 1588TIP3    H126179   6.145   4.618  15.421  0.8676 -1.2506 -1.0924
 1588TIP3    H226180   6.146   4.508  15.525  0.7718 -0.9845 -0.8078
 1589TIP3   OH226181   4.258   3.664   3.149  0.0937  0.3593 -0.1608
 1589TIP3    H126182   4.179   3.612   3.134 -0.6561  1.3195  0.3398
 1589TIP3    H226183   4.250   3.695   3.239  1.3309  0.0053  0.0883
 1590TIP3   OH226184   2.472   2.161  13.508  0.4432  0.2240 -0.0322
 1590TIP3    H126185   2.553   2.164  13.458  0.0406  0.2842 -0.7065
 1590TIP3    H226186   2.440   2.252  13.506  0.3321  0.1887  0.1679
 1591TIP3   OH226187   5.249   2.135  17.346  0.2158  0.2495 -0.4942
 1591TIP3    H126188   5.249   2.222  17.385  1.3340  0.2382 -0.4473
 1591TIP3    H226189   5.200   2.081  17.407  0.0750  0.7033 -0.2020
 1592TIP3   OH226190   3.774   4.799  16.862  0.1112  0.3605  0.8702
 1592TIP3    H126191   3.746   4.710  16.884 -0.4210  0.1141 -0.6869
 1592TIP3    H226192   3.854   4.812  16.912  0.1699 -0.9761  1.1567
 1593TIP3   OH226193   0.187   5.880  10.383 -0.1180 -0.0508 -0.1208
 1593TIP3    H126194   0.172   5.888  10.477 -2.3116 -0.4524 -0.3698
 1593TIP3    H226195   0.116   5.824  10.352  2.0391 -2.1369 -1.6817
 1594TIP3   OH226196   5.700   3.973  15.773 -0.2566 -0.4423  0.0737
 1594TIP3    H126197   5.638   4.045  15.782 -0.9905 -0.8141 -1.7310
 1594TIP3    H226198   5.786   4.015  15.772 -0.7310  0.6508 -2.7357
 1595TIP3   OH226199   1.533   0.349   2.330  0.3194  0.0647  0.1591
 1595TIP3    H126200   1.610   0.340   2.386  0.7491 -1.2749 -0.6124
 1595TIP3    H226201   1.513   0.260   2.302  1.0046  0.7965 -3.0109
 1596TIP3   OH226202   4.161   3.798  13.865 -0.0366  0.1341 -0.1097
 1596TIP3    H126203   4.138   3.836  13.949 -0.1458 -1.9735  0.8686
 1596TIP3    H226204   4.253   3.822  13.852  0.7374 -1.4978  1.8168
 1597TIP3   OH226205   5.394   5.084  16.388  0.8070 -0.0186  0.0326
 1597TIP3    H126206   5.331   5.122  16.449  0.2116  0.3895 -0.8205
 1597TIP3    H226207   5.399   4.992  16.414  1.1702  0.3161  1.1945
 1598TIP3   OH226208   6.329   3.183  13.648 -0.1694 -0.4167 -0.7342
 1598TIP3    H126209   6.315   3.187  13.743  1.3893 -0.9058 -0.4584
 1598TIP3    H226210   6.305   3.094  13.624 -2.0048  0.1413 -1.0760
 1599TIP3   OH226211   5.024   3.307  14.655 -0.4111  0.1204 -0.2122
 1599TIP3    H126212   4.950   3.317  14.595 -0.8340  4.0037  0.6594
 1599TIP3    H226213   5.097   3.282  14.599 -1.0771  2.3643 -2.2638
 1600TIP3   OH226214   6.203   3.563   3.920 -0.2300 -0.0249 -0.1285
 1600TIP3    H126215   6.151   3.576   3.841 -0.3259  0.6071  0.0263
 1600TIP3    H226216   6.177   3.477   3.952 -1.3489  0.3617  0.0509
 1601TIP3   OH226217   2.557   6.181   4.353  0.6159  0.0181  0.7051
 1601TIP3    H126218   2.548   6.136   4.269  0.7760  0.8841  0.2074
 1601TIP3    H226219   2.496   6.136   4.411  0.6640 -0.7405  0.1913
 1602TIP3   OH226220   0.056   4.002  13.605 -0.2896  0.3578 -0.5939
 1602TIP3    H126221   0.020   4.068  13.665  0.5206  1.0926 -0.8966
 1602TIP3    H226222   0.017   4.023  13.520  0.9329  1.2746 -0.9654
 1603TIP3   OH226223   1.626   3.493  12.443 -0.1076  0.2337 -0.8424
 1603TIP3    H126224   1.534   3.493  12.417 -0.8382 -0.1534  1.5095
 1603TIP3    H226225   1.654   3.402  12.431 -0.4910  0.0181 -0.1414
 1604TIP3   OH226226   2.476   2.495   4.933  0.1102 -0.3191 -0.1644
 1604TIP3    H126227   2.450   2.541   5.012 -1.3266  0.3077 -0.9625
 1604TIP3    H226228   2.553   2.542   4.901 -0.8793  1.1002 -0.5551
 1605TIP3   OH226229   3.514   2.866  11.241 -0.1327 -0.3332  0.3444
 1605TIP3    H126230   3.456   2.931  11.201 -1.6137 -2.0264 -0.3953
 1605TIP3    H226231   3.506   2.788  11.185  1.8959 -1.0580  0.9573
 1606TIP3   OH226232   3.951   0.374   4.446 -0.0262  0.0930 -0.3415
 1606TIP3    H126233   3.950   0.370   4.542  2.9069 -0.6425 -0.2302
 1606TIP3    H226234   4.035   0.414   4.425 -0.5415  0.0997 -2.6229
 1607TIP3   OH226235   5.137   6.234   6.878  0.4422 -0.3869  0.4292
 1607TIP3    H126236   5.208   6.290   6.849  0.9012 -1.3245 -0.3305
 1607TIP3    H226237   5.070   6.242   6.811  0.6130 -0.9280  0.1889
 1608TIP3   OH226238   6.603   5.998  13.793 -0.2612  0.5337 -0.2490
 1608TIP3    H126239   6.636   5.967  13.877 -0.6958 -2.2784 -1.0281
 1608TIP3    H226240   6.680   6.036  13.750  0.4050  0.1874  0.5996
 1609TIP3   OH226241   5.656   6.703   3.168  0.7334  0.2137 -0.7090
 1609TIP3    H126242   5.649   6.617   3.127 -0.2702  0.2658 -0.6558
 1609TIP3    H226243   5.700   6.757   3.103 -3.1157  1.0090 -2.9320
 1610TIP3   OH226244   1.955   6.637  16.377 -0.1768 -0.8720  0.1634
 1610TIP3    H126245   1.886   6.669  16.435 -0.3573  0.9230 -0.9528
 1610TIP3    H226246   1.911   6.623  16.293 -0.0118 -3.8125  0.4856
 1611TIP3   OH226247   0.936   0.595   2.983 -0.0136  0.1959 -0.3056
 1611TIP3    H126248   0.852   0.642   2.982  0.4945  1.1325 -0.3308
 1611TIP3    H226249   1.002   0.664   2.985  0.7626 -0.5317 -0.1121
 1612TIP3   OH226250   1.910   4.550  15.469 -0.4918 -0.1721 -0.6737
 1612TIP3    H126251   1.898   4.563  15.375 -2.0916  0.1213 -0.4559
 1612TIP3    H226252   1.835   4.593  15.509  1.4821  2.0272  0.9359
 1613TIP3   OH226253   3.511   6.670   4.374 -0.4211  0.4571 -0.3755
 1613TIP3    H126254   3.587   6.716   4.409 -0.2205 -0.1482 -0.0030
 1613TIP3    H226255   3.439   6.733   4.383 -0.2339  0.5578  0.4882
 1614TIP3   OH226256   5.915   2.204  12.023  0.0770  0.3972 -0.4110
 1614TIP3    H126257   5.992   2.254  12.051 -0.0708  0.6341 -0.4273
 1614TIP3    H226258   5.841   2.252  12.059  0.0127 -1.2284  1.8585
 1615TIP3   OH226259   2.595   2.121  17.282  0.1409  0.8832  0.5943
 1615TIP3    H126260   2.629   2.045  17.234  1.1814  1.4319  0.4361
 1615TIP3    H226261   2.634   2.114  17.369  0.6201  1.4628  0.4411
 1616TIP3   OH226262   1.550   3.247   3.718  0.1073 -0.0665  0.2316
 1616TIP3    H126263   1.499   3.264   3.797 -1.5735 -0.6298 -0.6951
 1616TIP3    H226264   1.538   3.325   3.665 -0.9971 -0.7916 -0.6048
 1617TIP3   OH226265   4.613   2.516  15.353 -0.7802 -0.3168 -0.2195
 1617TIP3    H126266   4.570   2.555  15.277 -0.3853 -0.9463 -0.7917
 1617TIP3    H226267   4.671   2.450  15.315  0.0109 -0.1045  0.5845
 1618TIP3   OH226268   5.858   2.279   4.265  0.0702 -0.4449 -0.6448
 1618TIP3    H126269   5.773   2.305   4.301  0.3613 -1.1204  0.5590
 1618TIP3    H226270   5.901   2.361   4.243  0.1676  0.0346  1.2196
 1619TIP3   OH226271   3.732   6.046  15.421 -0.0828  0.5522 -0.3116
 1619TIP3    H126272   3.806   6.083  15.470  1.5220 -1.1340 -1.3335
 1619TIP3    H226273   3.655   6.071  15.472  1.3756  0.1757  2.2465
 1620TIP3   OH226274   5.494   6.380  16.122  0.0329  0.3003 -0.3955
 1620TIP3    H126275   5.405   6.397  16.091 -0.4337  1.3507  1.3687
 1620TIP3    H226276   5.527   6.312  16.063 -1.6794  0.3707 -1.5186
 1621TIP3   OH226277   1.824   5.138  15.569  0.0088 -0.0168  0.1826
 1621TIP3    H126278   1.825   5.112  15.661 -0.6632  1.2889  0.5868
 1621TIP3    H226279   1.899   5.196  15.559  0.0794 -0.1527 -0.0945
 1622TIP3   OH226280   2.521   0.959  15.212  0.2972  0.7368  0.3802
 1622TIP3    H126281   2.488   0.966  15.122 -1.5646  2.2886  1.1283
 1622TIP3    H226282   2.582   1.032  15.221  0.9771  0.2084  0.2332
 1623TIP3   OH226283   6.721   0.841   3.895 -0.2517  0.0559  0.0320
 1623TIP3    H126284   6.796   0.851   3.836 -1.1725  1.9122 -0.9110
 1623TIP3    H226285   6.718   0.923   3.944  0.3376 -1.3376  2.5726
 1624TIP3   OH226286   5.381   5.927  16.345 -0.2233  0.0981  0.8390
 1624TIP3    H126287   5.375   5.843  16.301 -0.0090  0.8636 -0.7425
 1624TIP3    H226288   5.473   5.936  16.367  0.3361  1.0859 -1.5594
 1625TIP3   OH226289   0.960   0.899  13.115 -0.0825  0.8642  0.0373
 1625TIP3    H126290   1.000   0.986  13.117  0.2981  0.6997 -0.3371
 1625TIP3    H226291   1.016   0.846  13.172  0.7486  0.4264 -1.1332
 1626TIP3   OH226292   3.993   2.863   1.558  0.2066 -1.0995 -0.3689
 1626TIP3    H126293   3.945   2.796   1.510  0.5034 -0.9468 -0.8868
 1626TIP3    H226294   3.995   2.938   1.499 -1.0678 -0.2399  0.6164
 1627TIP3   OH226295   6.382   2.510   2.808  0.4192  0.0716  0.5337
 1627TIP3    H126296   6.342   2.588   2.848  0.3308  0.6164 -0.5794
 1627TIP3    H226297   6.390   2.532   2.716 -0.4581 -1.6018  0.0084
 1628TIP3   OH226298   0.116   1.954  12.765 -0.1397 -0.8626  0.1862
 1628TIP3    H126299   0.038   1.899  12.772 -0.8116  0.1161  0.6193
 1628TIP3    H226300   0.124   1.972  12.671 -0.9859 -0.2314  0.2163
 1629TIP3   OH226301   1.999   0.686   2.710  0.6258 -0.0949  0.3762
 1629TIP3    H126302   2.068   0.730   2.661  1.0686 -0.5288  0.6121
 1629TIP3    H226303   1.928   0.750   2.714  1.3376  0.6730  0.8919
 1630TIP3   OH226304   2.806   1.407  15.003  1.4773  0.1124 -0.0530
 1630TIP3    H126305   2.718   1.396  15.038  1.8909 -0.5026  0.8143
 1630TIP3    H226306   2.811   1.344  14.931  1.7431 -1.0218  0.9341
 1631TIP3   OH226307   6.769   0.357  12.546 -0.3361 -0.0068 -0.3181
 1631TIP3    H126308   6.775   0.289  12.613  0.0220 -1.6340 -1.9217
 1631TIP3    H226309   6.701   0.326  12.487  0.0772  0.8625 -1.2797
 1632TIP3   OH226310   0.940   5.639  14.406 -0.2317 -0.0068 -0.4997
 1632TIP3    H126311   0.956   5.545  14.403  1.1119  0.1726  0.2160
 1632TIP3    H226312   0.845   5.648  14.397 -0.5365 -1.5048  0.9074
 1633TIP3   OH226313   5.383   0.580  16.292  0.1458  0.0175  0.1918
 1633TIP3    H126314   5.458   0.639  16.278  0.9114 -1.1762 -0.9437
 1633TIP3    H226315   5.325   0.598  16.217  0.4773 -0.7998 -0.2666
 1634TIP3   OH226316   1.952   1.924  11.253 -0.0631 -0.0596  0.2425
 1634TIP3    H126317   1.939   1.874  11.173 -0.5398 -0.4760  0.5753
 1634TIP3    H226318   1.878   1.901  11.309  0.2770  0.2019  0.8180
 1635TIP3   OH226319   4.747   4.241  16.130 -0.2305  0.0665 -0.5411
 1635TIP3    H126320   4.801   4.174  16.088 -0.6625 -0.8690  0.3646
 1635TIP3    H226321   4.776   4.242  16.221 -0.2546  1.1027 -0.5320
 1636TIP3   OH226322   2.056   4.393  13.388  0.3303  0.1432 -0.0151
 1636TIP3    H126323   1.974   4.370  13.344  0.5185  1.5617 -1.1972
 1636TIP3    H226324   2.119   4.406  13.317  0.9554  1.3315  0.7225
 1637TIP3   OH226325   0.938   6.293  17.308 -0.0277  0.8770 -0.1290
 1637TIP3    H126326   0.991   6.316  17.384 -1.5603  0.9029  0.9879
 1637TIP3    H226327   0.849   6.283  17.343 -0.7814  0.8860 -1.9243
 1638TIP3   OH226328   5.717   6.702  14.305  0.2399 -0.1742 -0.0862
 1638TIP3    H126329   5.724   6.628  14.244 -0.5119 -0.1977 -0.1507
 1638TIP3    H226330   5.782   6.764  14.275  1.8271 -1.3486  0.7388
 1639TIP3   OH226331   5.486   0.132  12.402  0.0431 -0.3114 -0.0249
 1639TIP3    H126332   5.453   0.161  12.317 -1.5816  0.3245  0.7625
 1639TIP3    H226333   5.461   0.039  12.407 -0.0244 -0.3007 -0.1625
 1640TIP3   OH226334   6.720   0.656  12.908  0.2605  0.6883 -0.1217
 1640TIP3    H126335   6.718   0.713  12.831  0.4206  0.7856 -0.0544
 1640TIP3    H226336   6.658   0.586  12.888 -0.3418  1.1819  0.0276
 1641TIP3   OH226337   4.445   0.515   2.900  0.5425  0.3891 -0.6840
 1641TIP3    H126338   4.458   0.510   2.805  1.7822  0.7697 -0.5581
 1641TIP3    H226339   4.452   0.609   2.920 -1.4928  0.5259 -0.4232
 1642TIP3   OH226340   1.669   5.118   4.650  0.5681 -0.6167 -0.6761
 1642TIP3    H126341   1.727   5.195   4.652  0.4572 -0.5414 -0.1443
 1642TIP3    H226342   1.588   5.150   4.612  1.4887 -1.1731 -3.3108
 1643TIP3   OH226343   1.462   5.129  13.848 -0.2913 -0.5906  0.5258
 1643TIP3    H126344   1.440   5.090  13.764  0.9579  0.4347 -0.3195
 1643TIP3    H226345   1.379   5.131  13.896 -1.1328 -0.7706 -0.8559
 1644TIP3   OH226346   0.445   3.081   0.553 -0.4055  0.1041  0.0609
 1644TIP3    H126347   0.393   3.098   0.632  0.3932  0.8115  0.4580
 1644TIP3    H226348   0.413   2.998   0.520  0.0950 -0.8613  1.8574
 1645TIP3   OH226349   5.451   3.273  12.892 -0.5170  0.2106 -0.3285
 1645TIP3    H126350   5.420   3.341  12.832 -0.7364  1.8050  1.4698
 1645TIP3    H226351   5.466   3.320  12.975  3.1214 -1.1671 -0.0237
 1646TIP3   OH226352   2.118   2.438  13.287 -0.0591 -0.3816 -0.0059
 1646TIP3    H126353   2.100   2.429  13.193 -0.0199  0.1825 -0.0714
 1646TIP3    H226354   2.088   2.356  13.325  1.3257 -1.2571 -0.7242
 1647TIP3   OH226355   2.558   5.379   1.267 -0.2834 -0.3057 -0.6405
 1647TIP3    H126356   2.465   5.356   1.262 -0.8359  1.8277 -1.4446
 1647TIP3    H226357   2.562   5.470   1.236  1.9625 -0.0449  0.2085
 1648TIP3   OH226358   4.971   0.274   0.720 -0.2206 -0.4589 -0.0658
 1648TIP3    H126359   4.992   0.181   0.713  2.0140  0.0543 -0.9386
 1648TIP3    H226360   4.950   0.301   0.631 -2.4215 -0.3965  0.4090
 1649TIP3   OH226361   1.464   4.796   0.394  0.0719  0.3035  0.0739
 1649TIP3    H126362   1.518   4.768   0.469  0.0370 -1.6862 -0.5764
 1649TIP3    H226363   1.513   4.868   0.355  0.5307  0.7971  1.4833
 1650TIP3   OH226364   4.082   0.450   5.932  0.1196  0.0066 -0.2144
 1650TIP3    H126365   4.092   0.541   5.904  0.5913 -0.3737 -1.3679
 1650TIP3    H226366   4.134   0.443   6.012  0.4524  0.6428 -0.3717
 1651TIP3   OH226367   3.225   2.906  15.018 -0.5125  0.0805  0.1974
 1651TIP3    H126368   3.231   2.816  15.049 -0.8996  0.4024  1.2529
 1651TIP3    H226369   3.284   2.956  15.074  1.1881  0.2109 -1.6207
 1652TIP3   OH226370   2.042   6.532   2.727  0.1069 -0.0768  0.1552
 1652TIP3    H126371   2.028   6.556   2.635  0.8262  1.1290  0.3490
 1652TIP3    H226372   2.118   6.474   2.725 -0.9994 -1.5720 -0.1961
 1653TIP3   OH226373   6.610   0.866  16.694  0.0863  0.2498 -0.7073
 1653TIP3    H126374   6.693   0.913  16.706  0.2490  0.2346 -1.6826
 1653TIP3    H226375   6.599   0.862  16.599 -1.6200  1.2794 -0.5962
 1654TIP3   OH226376   1.341   2.738  14.105  0.3086  0.1642 -0.1128
 1654TIP3    H126377   1.333   2.708  14.014  1.3583 -1.3308  0.2499
 1654TIP3    H226378   1.252   2.763  14.130  0.1372  1.4253 -1.7917
 1655TIP3   OH226379   0.813   6.412   3.037 -0.2538 -0.0630  0.0476
 1655TIP3    H126380   0.802   6.337   2.978 -0.1913 -1.0797  1.2953
 1655TIP3    H226381   0.724   6.429   3.070  0.0966 -1.3110  1.7787
 1656TIP3   OH226382   0.788   0.191   1.391  0.0546  0.1629  0.1016
 1656TIP3    H126383   0.814   0.283   1.379 -1.2197  0.6442  0.8348
 1656TIP3    H226384   0.825   0.166   1.475 -0.4078  0.3137  0.3520
 1657TIP3   OH226385   4.974   0.164   3.921 -0.3309 -0.6609 -0.3482
 1657TIP3    H126386   5.058   0.192   3.957  0.2739 -0.3599 -1.9122
 1657TIP3    H226387   4.919   0.149   3.998  0.8138  0.1806  0.6817
 1658TIP3   OH226388   0.441   1.914   4.725  0.1294 -0.2513 -0.8331
 1658TIP3    H126389   0.458   1.988   4.667  0.9766  0.4951  0.3252
 1658TIP3    H226390   0.456   1.836   4.671 -0.8716  0.4045 -2.0933
 1659TIP3   OH226391   3.801   1.067   1.339 -0.1217  0.1432  0.0378
 1659TIP3    H126392   3.847   1.123   1.277 -0.8635 -0.1247 -0.7680
 1659TIP3    H226393   3.709   1.092   1.331 -0.3738 -0.7027  0.1723
 1660TIP3   OH226394   2.752   1.937  11.857 -0.0410  0.0131 -0.8736
 1660TIP3    H126395   2.731   1.873  11.925 -0.6531 -1.0662 -2.0261
 1660TIP3    H226396   2.703   2.015  11.882  2.6679  0.9992  1.9270
 1661TIP3   OH226397   0.773   4.515  15.224  0.2298  0.3415 -0.3140
 1661TIP3    H126398   0.840   4.492  15.288 -0.8409 -1.2187  0.3093
 1661TIP3    H226399   0.812   4.491  15.140  0.9778  0.7572 -0.0969
 1662TIP3   OH226400   2.977   1.575  12.300  1.1840 -0.0348  0.1153
 1662TIP3    H126401   2.988   1.670  12.297 -0.7576  0.2654  1.2379
 1662TIP3    H226402   3.065   1.541  12.286  1.8615  1.9043 -0.7526
 1663TIP3   OH226403   6.395   2.939   1.352  0.2388 -0.1458 -0.4350
 1663TIP3    H126404   6.452   2.960   1.426  0.0364  0.5557 -0.4726
 1663TIP3    H226405   6.401   2.844   1.343 -0.1170 -0.3044  0.7982
 1664TIP3   OH226406   1.103   0.301  15.374 -0.1974  0.2864  0.0307
 1664TIP3    H126407   1.085   0.207  15.371 -0.6146  0.2978  1.4978
 1664TIP3    H226408   1.175   0.310  15.436 -0.3712  0.9583  0.1458
 1665TIP3   OH226409   3.677   0.136   2.779  0.5517 -0.0159  0.1310
 1665TIP3    H126410   3.720   0.062   2.822 -0.4553 -0.3843  0.5289
 1665TIP3    H226411   3.620   0.173   2.846  0.8790  1.0030 -0.1291
 1666TIP3   OH226412   3.739   2.904  12.976 -0.3337 -0.1268  0.1421
 1666TIP3    H126413   3.667   2.950  12.933 -0.4978  0.0622  0.6140
 1666TIP3    H226414   3.714   2.902  13.069 -0.1551 -0.8505  0.1758
 1667TIP3   OH226415   3.294   2.935   2.852 -0.4903 -0.1759  0.1355
 1667TIP3    H126416   3.212   2.896   2.881 -0.6675 -0.3720 -0.5964
 1667TIP3    H226417   3.293   2.925   2.757  0.7687 -0.9470  0.1733
 1668TIP3   OH226418   2.911   0.585   2.926 -0.4934 -0.2127 -0.3039
 1668TIP3    H126419   2.879   0.624   3.008 -0.5634  0.6936 -0.7517
 1668TIP3    H226420   2.880   0.643   2.857  1.4137  0.2747 -0.8212
 1669TIP3   OH226421   4.368   4.080   1.106  0.0791 -0.3115  0.2693
 1669TIP3    H126422   4.366   4.012   1.039  0.9467 -0.8468  0.7730
 1669TIP3    H226423   4.318   4.043   1.179  0.2661 -0.2706  0.4176
 1670TIP3   OH226424   0.771   1.200   5.838 -0.1117 -0.3670  0.5638
 1670TIP3    H126425   0.715   1.277   5.841  2.2216  1.5217 -0.5819
 1670TIP3    H226426   0.808   1.200   5.750  2.1218 -1.1105  1.4074
 1671TIP3   OH226427   4.809   5.994   4.993  0.0783 -0.1404 -0.2337
 1671TIP3    H126428   4.876   6.058   5.014 -1.6432  1.9159 -0.6916
 1671TIP3    H226429   4.818   5.979   4.898 -0.9196  1.1762 -0.5598
 1672TIP3   OH226430   4.053   6.465   5.504  0.0635  0.6087 -0.3380
 1672TIP3    H126431   4.068   6.380   5.547 -1.9084 -0.4338 -1.5308
 1672TIP3    H226432   4.138   6.489   5.469  0.9260 -0.2963  1.0003
 1673TIP3   OH226433   4.368   5.876  16.411  0.5039 -0.0366  0.1331
 1673TIP3    H126434   4.434   5.916  16.354 -0.5927  0.8201 -0.5697
 1673TIP3    H226435   4.373   5.926  16.493  1.8297 -1.0348  0.7064
 1674TIP3   OH226436   2.636   2.765   3.113 -0.0102  0.0063 -0.4619
 1674TIP3    H126437   2.670   2.730   3.196  1.6772  0.2398 -1.0339
 1674TIP3    H226438   2.554   2.717   3.100  1.4993 -2.7902 -0.5013
 1675TIP3   OH226439   4.499   1.864  15.085 -0.1785  0.0117  0.1215
 1675TIP3    H126440   4.412   1.843  15.052  0.2101 -1.0521 -0.3035
 1675TIP3    H226441   4.493   1.953  15.118 -1.5710 -0.2536  0.6139
 1676TIP3   OH226442   1.614   5.718  17.066 -0.2658 -0.5936  0.2002
 1676TIP3    H126443   1.524   5.708  17.098 -0.9787 -0.0149 -1.5021
 1676TIP3    H226444   1.627   5.812  17.058 -0.0851 -0.6950 -1.0260
 1677TIP3   OH226445   0.273   5.105  17.202 -0.0470 -0.2757 -0.1322
 1677TIP3    H126446   0.267   5.072  17.291 -1.8985 -2.1453 -0.8687
 1677TIP3    H226447   0.360   5.078  17.172  0.6468  0.5030  1.1220
 1678TIP3   OH226448   4.007   1.782  17.060 -0.0276  0.0559 -0.0752
 1678TIP3    H126449   4.031   1.690  17.076 -0.7251  0.0801  1.3241
 1678TIP3    H226450   3.989   1.786  16.966  1.5250 -0.8671 -0.4461
 1679TIP3   OH226451   4.587   0.248  15.056  0.2966  0.7629 -0.0629
 1679TIP3    H126452   4.518   0.267  15.120 -1.5242 -1.1740 -1.3211
 1679TIP3    H226453   4.612   0.158  15.074  0.5035  0.5382 -1.3768
 1680TIP3   OH226454   6.038   5.998  10.529 -0.5485 -0.0321 -0.6662
 1680TIP3    H126455   5.963   6.057  10.528 -1.3894 -1.0449 -0.0859
 1680TIP3    H226456   6.011   5.925  10.473 -0.9538 -1.4657  1.2779
 1681TIP3   OH226457   3.129   1.596   2.638 -0.0019 -0.7335 -0.1085
 1681TIP3    H126458   3.066   1.559   2.699  0.4803 -0.3329  0.6608
 1681TIP3    H226459   3.205   1.538   2.643  0.1424 -0.5490 -0.1167
 1682TIP3   OH226460   2.958   1.393  17.406  0.3940 -0.6520  0.1519
 1682TIP3    H126461   2.899   1.330  17.447 -1.0484  1.0719  0.8392
 1682TIP3    H226462   3.046   1.359  17.425 -0.3177 -2.6500  0.1174
 1683TIP3   OH226463   5.257   2.869   6.506  0.0835 -0.3763 -0.2190
 1683TIP3    H126464   5.244   2.931   6.578  2.0461 -1.7134  1.3997
 1683TIP3    H226465   5.169   2.840   6.484 -0.6177  0.3549  1.4020
 1684TIP3   OH226466   5.688   1.199  11.620  0.3755 -0.0745 -0.1670
 1684TIP3    H126467   5.605   1.211  11.666  0.8635  1.9374  0.2909
 1684TIP3    H226468   5.668   1.216  11.528  0.5978  2.4649  0.1885
 1685TIP3   OH226469   0.328   0.234  15.386 -0.6581  0.1808 -0.3750
 1685TIP3    H126470   0.398   0.275  15.336  1.2710 -1.3174  0.9633
 1685TIP3    H226471   0.323   0.145  15.353 -0.9753 -0.1383  0.5110
 1686TIP3   OH226472   2.083   6.568  16.755  0.0335 -0.1134 -0.2886
 1686TIP3    H126473   2.146   6.595  16.822 -1.2023  0.3270  0.7537
 1686TIP3    H226474   2.109   6.616  16.677 -0.0755  1.5059  0.6173
 1687TIP3   OH226475   3.789   5.744  10.364 -0.0138 -0.0890  0.6387
 1687TIP3    H126476   3.699   5.712  10.369 -0.0099 -1.2009 -3.3029
 1687TIP3    H226477   3.841   5.666  10.346  2.0305  0.3771  3.7250
 1688TIP3   OH226478   6.292   0.238  13.343  0.2838  0.3900 -0.2131
 1688TIP3    H126479   6.373   0.288  13.350  0.5926 -0.1196 -0.0388
 1688TIP3    H226480   6.255   0.263  13.259  0.8121  0.3496 -0.4625
 1689TIP3   OH226481   6.034   1.606   3.453  0.1509  0.2792  0.0180
 1689TIP3    H126482   6.004   1.629   3.365  2.1779 -0.2779 -0.8781
 1689TIP3    H226483   5.957   1.569   3.496 -0.5780 -0.6056 -1.9545
 1690TIP3   OH226484   6.349   5.701   2.803 -0.8482 -0.2207  0.4683
 1690TIP3    H126485   6.350   5.635   2.872  0.6388  1.0817  1.7849
 1690TIP3    H226486   6.434   5.694   2.761 -0.6638  0.8191  0.6235
 1691TIP3   OH226487   5.160   3.375   2.795  0.7527  0.2952 -0.2582
 1691TIP3    H126488   5.179   3.355   2.704 -0.0336 -1.0855 -0.1455
 1691TIP3    H226489   5.204   3.306   2.845  1.5059  1.2576  0.4439
 1692TIP3   OH226490   2.358   3.682   5.580 -0.2067 -0.6041  0.1764
 1692TIP3    H126491   2.348   3.639   5.495  0.1575 -1.0612  0.3608
 1692TIP3    H226492   2.370   3.611   5.642  0.1082 -0.2463  0.5317
 1693TIP3   OH226493   5.026   3.695   2.530 -0.6612 -0.7948  1.3583
 1693TIP3    H126494   5.098   3.700   2.592 -0.9808 -0.1333  1.6860
 1693TIP3    H226495   5.035   3.773   2.476  0.5653 -2.1535 -0.5210
 1694TIP3   OH226496   3.066   2.890  13.059 -0.0349 -0.4148  0.6178
 1694TIP3    H126497   3.007   2.857  13.126 -0.5439 -1.6370 -0.3923
 1694TIP3    H226498   3.024   2.970  13.028 -0.4486 -0.5321  0.8668
 1695TIP3   OH226499   1.919   6.442  13.345 -0.0990  0.6141  0.2647
 1695TIP3    H126500   1.939   6.484  13.261  0.7416 -0.2649  0.0005
 1695TIP3    H226501   1.873   6.509  13.395 -0.4814  1.2104 -0.8386
 1696TIP3   OH226502   6.580   1.544  11.813 -0.5595  0.2016 -0.0872
 1696TIP3    H126503   6.648   1.483  11.842 -1.4219 -0.1124  1.3665
 1696TIP3    H226504   6.620   1.630  11.825 -0.3703  0.0180  0.6685
 1697TIP3   OH226505   1.837   2.045   2.220  0.0983 -0.1411 -0.2367
 1697TIP3    H126506   1.819   2.123   2.272  0.6823 -0.1168 -0.0619
 1697TIP3    H226507   1.896   2.075   2.151 -0.4122 -0.2412 -0.7319
 1698TIP3   OH226508   4.873   0.816   3.899  0.2536  0.0648  0.5439
 1698TIP3    H126509   4.923   0.874   3.842 -1.1548 -1.3016 -2.2358
 1698TIP3    H226510   4.789   0.861   3.911 -0.5629 -0.9904 -1.0007
 1699TIP3   OH226511   2.351   4.962   0.523  0.1909  0.4885  0.0981
 1699TIP3    H126512   2.279   5.016   0.557  0.7945  0.3418  1.6956
 1699TIP3    H226513   2.418   5.025   0.496 -0.0577  0.5926 -0.2778
 1700TIP3   OH226514   6.464   2.822   2.477 -0.1368 -0.3211  0.0459
 1700TIP3    H126515   6.486   2.911   2.505  0.8518 -0.7318  0.6208
 1700TIP3    H226516   6.481   2.821   2.383 -1.4569  0.4660 -0.2279
 1701TIP3   OH226517   0.337   6.285  16.131  0.5829  0.5495 -0.1373
 1701TIP3    H126518   0.274   6.298  16.061  2.2055  0.4700 -1.6926
 1701TIP3    H226519   0.380   6.369  16.141  0.3801  0.5535  0.7757
 1702TIP3   OH226520   6.588   3.732  14.654 -0.3414 -0.6641 -0.2165
 1702TIP3    H126521   6.648   3.678  14.706 -0.7448 -1.1352 -0.2329
 1702TIP3    H226522   6.548   3.792  14.716  1.0024  0.4713 -0.3754
 1703TIP3   OH226523   2.686   4.548  10.629 -0.0506  0.2100  0.5862
 1703TIP3    H126524   2.607   4.547  10.683 -1.2636 -1.1498 -1.0753
 1703TIP3    H226525   2.722   4.460  10.638  0.9607  0.6367  0.8524
 1704TIP3   OH226526   4.221   4.379  15.543  0.0145 -0.0237 -0.0497
 1704TIP3    H126527   4.299   4.395  15.490  0.9869 -0.6604  1.1287
 1704TIP3    H226528   4.185   4.297  15.510 -1.2960  1.1862 -1.8455
 1705TIP3   OH226529   0.494   5.769  11.588  0.0663  0.6372 -0.0469
 1705TIP3    H126530   0.583   5.768  11.623 -0.9362  1.8091  2.8682
 1705TIP3    H226531   0.439   5.788  11.664 -2.5938  1.0116 -1.9333
 1706TIP3   OH226532   3.667   1.655   1.585  0.1310  0.2460 -0.2915
 1706TIP3    H126533   3.653   1.733   1.639 -1.3836  1.2252 -2.0029
 1706TIP3    H226534   3.579   1.619   1.572  0.8153 -2.0670  0.7971
 1707TIP3   OH226535   2.318   0.690   3.966 -0.1808  0.0222  0.2939
 1707TIP3    H126536   2.346   0.729   3.883 -1.0491 -0.4051 -0.2112
 1707TIP3    H226537   2.302   0.765   4.024  1.8526  0.2876  0.5710
 1708TIP3   OH226538   4.391   6.260  14.622  0.0705 -0.3008  0.3613
 1708TIP3    H126539   4.431   6.224  14.543  0.8090  0.0257  0.5665
 1708TIP3    H226540   4.333   6.329  14.590  1.0031  0.4065  0.1264
 1709TIP3   OH226541   3.716   2.907  11.430  0.2288  0.1473 -0.2907
 1709TIP3    H126542   3.638   2.895  11.377  1.3147 -1.1907 -1.6729
 1709TIP3    H226543   3.756   2.988  11.397  0.0132  0.2282 -0.3524
 1710TIP3   OH226544   5.278   4.621   3.328 -0.1791 -0.1823  0.4187
 1710TIP3    H126545   5.232   4.586   3.404 -0.2320  0.3036  0.6156
 1710TIP3    H226546   5.346   4.677   3.364 -1.4673  1.6658  0.1230
 1711TIP3   OH226547   0.988   6.469   4.441  0.3005 -0.2204  0.6165
 1711TIP3    H126548   1.081   6.475   4.463  0.3931 -0.2079  0.2266
 1711TIP3    H226549   0.943   6.484   4.524  0.5089  4.0450  0.1652
 1712TIP3   OH226550   0.906   6.241   1.849  0.5080 -0.4822  0.2890
 1712TIP3    H126551   0.870   6.155   1.869  0.2955 -0.6560 -0.7935
 1712TIP3    H226552   0.852   6.273   1.777  0.3817  0.6984  0.8740
 1713TIP3   OH226553   0.784   3.687  10.992 -0.2034 -0.1164 -0.1881
 1713TIP3    H126554   0.780   3.750  11.064 -1.3325  0.0505 -0.3821
 1713TIP3    H226555   0.695   3.686  10.956 -0.0683 -1.4321 -0.5231
 1714TIP3   OH226556   4.493   3.035   1.847  0.0282 -0.5733 -0.7481
 1714TIP3    H126557   4.480   3.100   1.778 -1.0628 -0.8316 -0.7977
 1714TIP3    H226558   4.410   3.034   1.895  1.5769  1.6320  2.3792
 1715TIP3   OH226559   4.331   2.312  15.856 -0.5658  0.3606 -0.1039
 1715TIP3    H126560   4.288   2.275  15.933 -1.3790  0.8756 -0.2879
 1715TIP3    H226561   4.314   2.249  15.786  0.9077 -0.5242  0.3203
 1716TIP3   OH226562   4.039   3.340  16.411  0.9239 -0.6060  0.5362
 1716TIP3    H126563   3.960   3.354  16.462  1.2025 -0.0529  0.8371
 1716TIP3    H226564   4.109   3.378  16.465  1.4757 -1.5961  0.5370
 1717TIP3   OH226565   1.394   3.442  16.326  0.0367 -0.2099 -0.5220
 1717TIP3    H126566   1.340   3.495  16.385  1.0175  0.9194 -0.6150
 1717TIP3    H226567   1.349   3.358  16.322 -0.8177  0.1627  0.7114
 1718TIP3   OH226568   0.414   0.724  14.480 -0.0523  0.4756  0.1738
 1718TIP3    H126569   0.388   0.645  14.432  0.0140  0.4411  0.1944
 1718TIP3    H226570   0.464   0.775  14.416  0.6754  0.0873  0.4197
 1719TIP3   OH226571   2.818   5.428   1.635 -0.2482 -0.2539  0.0938
 1719TIP3    H126572   2.851   5.516   1.617 -0.6519  0.0117  0.6335
 1719TIP3    H226573   2.750   5.441   1.700  0.6882 -1.1193  1.2798
 1720TIP3   OH226574   6.683   4.890  16.800  0.2825  0.3386  1.1081
 1720TIP3    H126575   6.778   4.895  16.787  0.0895  1.3822 -0.0418
 1720TIP3    H226576   6.654   4.981  16.799 -0.7323  0.0293  1.5299
 1721TIP3   OH226577   6.769   0.085   1.060 -0.6708  0.3420 -0.0188
 1721TIP3    H126578   6.699   0.041   1.012 -1.5317  1.2162  0.4170
 1721TIP3    H226579   6.760   0.052   1.150 -0.3411  0.2547 -0.0146
 1722TIP3   OH226580   6.289   0.937   1.064  0.3291 -0.3676 -0.5783
 1722TIP3    H126581   6.234   0.907   0.992  2.6640  0.5453 -2.9196
 1722TIP3    H226582   6.253   1.022   1.088 -1.8882 -1.6708  1.0718
 1723TIP3   OH226583   2.434   0.676   3.162 -0.1402 -0.2751 -0.3147
 1723TIP3    H126584   2.439   0.648   3.254  0.6099 -0.1412 -0.3082
 1723TIP3    H226585   2.436   0.771   3.166  2.7486 -0.2591 -0.5822
 1724TIP3   OH226586   6.284   1.467   0.814 -0.5435 -0.6332  0.0121
 1724TIP3    H126587   6.213   1.458   0.751 -0.9286  0.1250  0.3247
 1724TIP3    H226588   6.267   1.550   0.858  1.2075  0.1831 -0.7556
 1725TIP3   OH226589   5.955   6.292  14.090  0.0126 -0.1592 -0.3484
 1725TIP3    H126590   6.026   6.290  14.025  1.5723 -2.4956  1.2920
 1725TIP3    H226591   5.951   6.202  14.124 -2.4089  0.4024  1.0629
 1726TIP3   OH226592   2.850   5.895   2.503  0.1590 -0.8767  0.3234
 1726TIP3    H126593   2.927   5.844   2.478  0.4516 -0.8298  1.1039
 1726TIP3    H226594   2.870   5.984   2.473  0.6632 -0.7452  1.0164
 1727TIP3   OH226595   3.655   3.577  14.489  0.2843  0.0192  0.0017
 1727TIP3    H126596   3.580   3.634  14.470 -1.0689 -1.7238 -0.1620
 1727TIP3    H226597   3.628   3.491  14.459  1.1539 -1.3103  2.6860
 1728TIP3   OH226598   4.300   1.391  15.371 -0.3383  0.4007 -0.2747
 1728TIP3    H126599   4.231   1.366  15.432 -0.0957 -2.6244 -1.0687
 1728TIP3    H226600   4.253   1.409  15.289 -0.4558  2.3141  0.1518
 1729TIP3   OH226601   6.758   3.394  13.167 -0.2987  0.2620 -0.1807
 1729TIP3    H126602   6.799   3.344  13.237  0.6626  0.2923 -0.7117
 1729TIP3    H226603   6.666   3.401  13.193 -0.0279 -0.0382  0.8899
 1730TIP3   OH226604   6.258   1.139  13.350  0.0131 -0.7876 -0.3493
 1730TIP3    H126605   6.350   1.132  13.374 -0.1172 -1.8192 -0.1243
 1730TIP3    H226606   6.242   1.233  13.345  1.5271 -0.5529 -2.1411
 1731TIP3   OH226607   3.569   5.727  16.795 -0.3746 -0.2606  0.5876
 1731TIP3    H126608   3.589   5.636  16.774 -0.4797 -0.1621  0.0459
 1731TIP3    H226609   3.596   5.776  16.717 -0.3508  0.1669  0.8616
 1732TIP3   OH226610   5.757   2.088  14.563 -0.0495  0.3218 -0.0563
 1732TIP3    H126611   5.664   2.064  14.567 -0.3972  1.3540 -1.2301
 1732TIP3    H226612   5.758   2.169  14.512  1.5604 -0.0426 -0.6542
 1733TIP3   OH226613   1.276   3.720   3.596 -0.4859  0.5244  0.4536
 1733TIP3    H126614   1.207   3.654   3.593 -0.1304  0.1196  0.9895
 1733TIP3    H226615   1.244   3.786   3.657 -0.0000 -0.1453  1.4686
 1734TIP3   OH226616   1.846   6.166   0.283 -0.4280 -0.2480  0.0425
 1734TIP3    H126617   1.843   6.148   0.376 -0.5871 -0.5446 -0.0198
 1734TIP3    H226618   1.920   6.226   0.272 -0.8157  0.3089  0.4468
 1735TIP3   OH226619   1.582   6.619  13.713  0.0941 -0.3876  0.0047
 1735TIP3    H126620   1.489   6.637  13.698  0.1777 -0.4043 -0.5438
 1735TIP3    H226621   1.583   6.533  13.755 -0.2665  0.5697  2.0818
 1736TIP3   OH226622   4.228   3.647   2.298 -0.3812  0.1662 -0.2612
 1736TIP3    H126623   4.295   3.578   2.302 -0.5638 -0.1193 -1.6913
 1736TIP3    H226624   4.164   3.622   2.364 -0.2388 -0.8213 -0.4868
 1737TIP3   OH226625   4.614   2.859  13.315 -0.3858  0.0624 -0.0038
 1737TIP3    H126626   4.686   2.797  13.308  1.2382  2.0069 -1.6798
 1737TIP3    H226627   4.601   2.869  13.410  1.3661 -0.5165  0.3308
 1738TIP3   OH226628   3.006   3.728  15.493  0.0899  0.4060 -0.5112
 1738TIP3    H126629   2.967   3.665  15.434  1.3024  0.7023 -1.6599
 1738TIP3    H226630   3.017   3.807  15.441  1.3727  0.6144  0.0323
 1739TIP3   OH226631   3.812   2.126  14.278  0.8231  0.0067  0.0244
 1739TIP3    H126632   3.827   2.197  14.340 -0.3594 -0.3734  0.7789
 1739TIP3    H226633   3.810   2.046  14.331 -0.1084 -0.3391 -0.4946
 1740TIP3   OH226634   6.752   5.849   0.618  0.1824  0.2391  0.4646
 1740TIP3    H126635   6.675   5.894   0.583  0.0385 -0.0341  0.4181
 1740TIP3    H226636   6.778   5.900   0.694 -0.9203 -0.4547  1.3434
 1741TIP3   OH226637   5.462   3.875  14.744  0.1033  0.1866  0.7336
 1741TIP3    H126638   5.510   3.957  14.746  1.3910 -0.5371  0.8636
 1741TIP3    H226639   5.374   3.899  14.715  0.7958  1.4350 -0.4608
 1742TIP3   OH226640   3.246   0.496  15.548  0.5251  0.1159 -0.0660
 1742TIP3    H126641   3.202   0.485  15.464 -0.9089 -1.0301  0.7883
 1742TIP3    H226642   3.206   0.574  15.587  0.3402 -0.0383  0.0547
 1743TIP3   OH226643   2.857   1.442  11.185 -0.5040  0.1104 -0.0691
 1743TIP3    H126644   2.948   1.436  11.157 -0.9880  0.4433 -1.8179
 1743TIP3    H226645   2.811   1.374  11.135 -1.0696 -0.8044  1.5976
 1744TIP3   OH226646   1.709   4.108  12.257  0.0786 -0.1506  0.0912
 1744TIP3    H126647   1.663   4.096  12.340  2.3140 -0.6533  1.3519
 1744TIP3    H226648   1.729   4.201  12.253  2.4053 -0.4778  1.6300
 1745TIP3   OH226649   1.138   3.604   5.973  0.2679 -0.8490  0.2793
 1745TIP3    H126650   1.103   3.660   5.904 -0.3000  1.8514  2.5870
 1745TIP3    H226651   1.066   3.543   5.993 -0.5167  0.0180  0.1884
 1746TIP3   OH226652   3.715   6.529  15.917 -0.4213 -0.0142 -0.1286
 1746TIP3    H126653   3.727   6.616  15.877 -0.1940 -0.0530 -0.1492
 1746TIP3    H226654   3.636   6.538  15.970  0.6574  0.7787  1.4050
 1747TIP3   OH226655   3.939   4.700   5.068 -0.5522 -0.0110 -0.4540
 1747TIP3    H126656   4.015   4.662   5.024  0.0628  2.0388 -1.2669
 1747TIP3    H226657   3.864   4.672   5.016 -0.6250 -3.1971  1.1119
 1748TIP3   OH226658   4.220   1.691  10.587 -1.0036 -0.5349  0.5163
 1748TIP3    H126659   4.204   1.784  10.604 -0.7974 -0.2759 -0.6043
 1748TIP3    H226660   4.176   1.674  10.504  0.7662 -0.8760 -0.4112
 1749TIP3   OH226661   6.685   0.394  13.305 -0.0188  0.5020  0.3879
 1749TIP3    H126662   6.758   0.443  13.343 -0.4052  1.0272  0.4672
 1749TIP3    H226663   6.629   0.462  13.267 -0.3982  0.0914  0.2160
 1750TIP3   OH226664   6.674   1.508   1.345  0.0130  0.3190  0.3542
 1750TIP3    H126665   6.632   1.495   1.430  1.0620  1.6984  1.1400
 1750TIP3    H226666   6.602   1.517   1.283 -0.7792 -0.2078  1.1779
 1751TIP3   OH226667   0.228   2.969   4.275 -0.4175  0.2708  0.2608
 1751TIP3    H126668   0.240   3.020   4.195  0.3518  0.3141  0.3957
 1751TIP3    H226669   0.134   2.959   4.283 -0.5004  0.2071 -0.6838
 1752TIP3   OH226670   3.113   6.467  13.474  0.1577  0.3508  0.2758
 1752TIP3    H126671   3.054   6.511  13.413  1.1074  0.0523 -0.8997
 1752TIP3    H226672   3.086   6.375  13.470  1.2650  0.0537 -0.9857
 1753TIP3   OH226673   0.794   1.135   1.046 -0.3726 -0.1418 -0.3167
 1753TIP3    H126674   0.807   1.045   1.074 -2.3792 -0.1849  0.7262
 1753TIP3    H226675   0.761   1.129   0.957  0.3724 -0.3732 -0.5795
 1754TIP3   OH226676   4.179   6.713   0.072 -0.0730  0.2169  0.4734
 1754TIP3    H126677   4.111   6.723   0.005  0.5854  2.4156  0.0442
 1754TIP3    H226678   4.241   6.651   0.033  0.9931  2.4545 -1.6741
 1755TIP3   OH226679   3.645   6.237  14.169 -0.2083 -0.1548  0.2078
 1755TIP3    H126680   3.611   6.148  14.172 -0.3643 -0.2679 -2.5362
 1755TIP3    H226681   3.593   6.281  14.102 -0.4742  2.2145  1.8270
 1756TIP3   OH226682   6.722   3.524   2.783  0.1515 -0.3119 -0.6907
 1756TIP3    H126683   6.730   3.535   2.878  0.3472  1.7920 -0.9042
 1756TIP3    H226684   6.809   3.494   2.756  0.8641  1.3755 -0.4312
 1757TIP3   OH226685   5.448   5.256  15.130  0.2414 -0.0042 -0.1493
 1757TIP3    H126686   5.518   5.209  15.083  1.4920 -1.7888  3.2064
 1757TIP3    H226687   5.475   5.348  15.128  0.4190 -0.0390 -2.4539
 1758TIP3   OH226688   2.097   0.051   4.014 -0.5211  1.1540  0.2401
 1758TIP3    H126689   2.021   0.009   3.974  1.0353 -2.0333  0.3109
 1758TIP3    H226690   2.100   0.016   4.103  1.4598  0.5175 -0.0296
 1759TIP3   OH226691   5.131   1.431  14.989 -0.6920 -0.4778  0.2241
 1759TIP3    H126692   5.209   1.393  14.949 -1.3434 -2.8603  1.0459
 1759TIP3    H226693   5.165   1.502  15.044  0.5453  0.5241 -1.7299
 1760TIP3   OH226694   4.879   4.257   0.779 -0.6145 -0.2047  0.3014
 1760TIP3    H126695   4.932   4.331   0.809 -0.6991  0.0224 -0.1042
 1760TIP3    H226696   4.792   4.293   0.765  0.0201  0.4147 -2.9475
 1761TIP3   OH226697   0.691   0.868  10.298  0.4372 -0.4086 -0.1732
 1761TIP3    H126698   0.605   0.910  10.302  0.6817  0.1380 -0.5148
 1761TIP3    H226699   0.676   0.787  10.249 -0.0342 -0.7063  0.4624
 1762TIP3   OH226700   2.469   6.208  14.829 -0.5821 -0.1429 -0.0834
 1762TIP3    H126701   2.451   6.131  14.883  1.1089 -1.6955 -1.6141
 1762TIP3    H226702   2.507   6.272  14.890 -0.6878 -1.0393  0.9453
 1763TIP3   OH226703   1.364   2.120   2.582  0.4908 -0.2547  0.1027
 1763TIP3    H126704   1.381   2.211   2.608  1.9328 -0.9295  1.7256
 1763TIP3    H226705   1.299   2.089   2.645  0.6001 -0.5809  0.0558
 1764TIP3   OH226706   2.346   0.069   1.713 -0.4605 -0.0855  0.1015
 1764TIP3    H126707   2.438   0.092   1.723 -0.6907  1.3817 -0.8752
 1764TIP3    H226708   2.346  -0.007   1.655  0.0885  0.5657 -0.7696
 1765TIP3   OH226709   1.194   6.430  12.341  0.0944  0.5125  0.4644
 1765TIP3    H126710   1.279   6.427  12.298  0.2814 -0.9104  0.8849
 1765TIP3    H226711   1.131   6.406  12.273 -0.2168  3.2564 -0.3135
 1766TIP3   OH226712   5.443   1.892  11.292 -0.3209  0.2120  0.1189
 1766TIP3    H126713   5.510   1.855  11.350 -0.5327 -0.5480 -0.1113
 1766TIP3    H226714   5.491   1.920  11.214 -0.2471 -0.2333  0.0006
 1767TIP3   OH226715   1.940   0.052  10.727  0.0187 -0.2808  0.2059
 1767TIP3    H126716   2.008   0.010  10.674  1.4879  2.0839  0.1048
 1767TIP3    H226717   1.898   0.114  10.667 -2.0043 -1.3770  0.3918
 1768TIP3   OH226718   0.789   1.781  11.687 -0.0046 -0.1454 -0.2312
 1768TIP3    H126719   0.734   1.703  11.682 -0.9666  0.4469  0.9017
 1768TIP3    H226720   0.816   1.796  11.596 -1.8937 -0.3193 -0.8675
 1769TIP3   OH226721   1.505   3.931   3.174  0.8407 -0.1086 -0.0951
 1769TIP3    H126722   1.547   3.995   3.117 -0.3716 -0.4370 -1.4021
 1769TIP3    H226723   1.450   3.985   3.232  0.8087  0.1249 -0.3384
 1770TIP3   OH226724   0.776   1.554   0.941 -0.1215  0.7673 -0.1140
 1770TIP3    H126725   0.755   1.599   1.022  2.8134  0.6506  0.8143
 1770TIP3    H226726   0.872   1.547   0.941 -0.1947 -1.7609 -2.2121
 1771TIP3   OH226727   4.229   5.354   2.175  0.1271  0.5301  0.0547
 1771TIP3    H126728   4.155   5.346   2.235  0.3530  1.1782  0.4319
 1771TIP3    H226729   4.262   5.264   2.165 -0.2311  0.3447  0.4947
 1772TIP3   OH226730   1.437   6.633   1.483  0.4641  0.6306 -0.2673
 1772TIP3    H126731   1.458   6.542   1.460  1.3977  0.6527  0.4041
 1772TIP3    H226732   1.364   6.656   1.427  1.7512  0.2466 -2.2154
 1773TIP3   OH226733   4.128   2.419  17.085 -0.5070 -0.6593  0.4030
 1773TIP3    H126734   4.048   2.467  17.062 -0.1343 -1.0265 -1.9720
 1773TIP3    H226735   4.197   2.485  17.080 -0.3788 -0.8103  0.1655
 1774TIP3   OH226736   3.062   2.901  14.515  0.2378 -0.0833 -0.0365
 1774TIP3    H126737   3.074   2.894  14.610  1.4096  0.3431 -0.1413
 1774TIP3    H226738   2.977   2.861  14.499 -0.3426  0.5471  1.2962
 1775TIP3   OH226739   0.098   1.006  15.284  0.0283  0.4869 -0.4429
 1775TIP3    H126740   0.090   1.101  15.290 -0.3782  0.5374 -1.5529
 1775TIP3    H226741   0.034   0.972  15.346 -0.3014  0.9367 -0.5344
 1776TIP3   OH226742   2.036   4.025   2.696 -0.0433 -0.2583 -0.1753
 1776TIP3    H126743   1.964   3.982   2.742 -1.8393  1.5110 -1.1937
 1776TIP3    H226744   2.085   4.070   2.765  0.4876 -1.9509  0.5976
 1777TIP3   OH226745   4.530   5.328  16.989  0.2301  0.1253  0.2934
 1777TIP3    H126746   4.566   5.307  17.075  1.8151  0.6034 -0.2206
 1777TIP3    H226747   4.544   5.422  16.980 -0.8454  0.2550 -0.0863
 1778TIP3   OH226748   2.927   5.719   3.959 -0.1315 -0.0207 -0.3028
 1778TIP3    H126749   2.952   5.663   3.885  0.0718  0.0984 -0.3232
 1778TIP3    H226750   2.890   5.797   3.919 -0.8688 -0.3445 -0.2715
 1779TIP3   OH226751   1.626   1.545   3.302 -0.0751  0.0307 -0.4023
 1779TIP3    H126752   1.619   1.519   3.210 -0.5704  0.6740 -0.5632
 1779TIP3    H226753   1.569   1.622   3.308 -0.5657 -0.4014  0.5938
 1780TIP3   OH226754   3.130   2.985   3.444 -0.4797  0.1887 -0.1406
 1780TIP3    H126755   3.101   3.037   3.369  0.9492  0.2653 -0.6794
 1780TIP3    H226756   3.200   3.038   3.483 -0.2239 -0.5254  0.3787
 1781TIP3   OH226757   5.406   0.224   0.778 -0.2764 -0.4241 -0.4554
 1781TIP3    H126758   5.339   0.219   0.846  0.3294  1.0332  0.3067
 1781TIP3    H226759   5.464   0.150   0.795 -1.7054 -1.7796 -1.2024
 1782TIP3   OH226760   2.071   2.811  16.592 -0.1549 -0.1644 -0.4998
 1782TIP3    H126761   2.078   2.874  16.664  1.7055  0.9264 -1.5336
 1782TIP3    H226762   1.978   2.795  16.583 -0.8144  3.1018 -0.6827
 1783TIP3   OH226763   6.274   1.660   2.603  0.2124 -0.3652  0.1950
 1783TIP3    H126764   6.257   1.595   2.672 -1.1693  1.2763  1.5025
 1783TIP3    H226765   6.272   1.744   2.648 -1.1749  0.8290 -1.8904
 1784TIP3   OH226766   1.178   1.488   4.647  0.0025 -0.8777  0.2274
 1784TIP3    H126767   1.253   1.538   4.616 -0.8484 -0.3467 -1.0774
 1784TIP3    H226768   1.216   1.414   4.694  1.2895  1.0036  2.2834
 1785TIP3   OH226769   3.354   2.490   2.548 -0.0775  0.2552 -0.2897
 1785TIP3    H126770   3.369   2.395   2.554 -0.5680 -0.0041 -2.2688
 1785TIP3    H226771   3.293   2.499   2.474  0.3430  2.1455 -0.4409
 1786TIP3   OH226772   5.227   5.964   1.655 -0.0945  0.4689  0.4404
 1786TIP3    H126773   5.172   5.946   1.732  2.3533 -4.2236  1.4476
 1786TIP3    H226774   5.309   5.996   1.692  0.8768 -1.1995 -0.1742
 1787TIP3   OH226775   4.173   4.065  16.216  0.7795  0.0279  0.7445
 1787TIP3    H126776   4.176   4.078  16.122 -0.2447 -1.4009  0.4837
 1787TIP3    H226777   4.246   4.006  16.235  0.2598 -0.6680  0.6420
 1788TIP3   OH226778   6.693   1.919  17.228  0.6596  0.2995  0.1241
 1788TIP3    H126779   6.727   1.840  17.187  0.2273 -0.0548  0.4389
 1788TIP3    H226780   6.668   1.975  17.155  1.2485  0.2726 -0.1013
 1789TIP3   OH226781   3.701   1.429  14.854 -0.0209 -0.4309 -0.3677
 1789TIP3    H126782   3.769   1.477  14.902 -1.4959 -0.5327  1.9740
 1789TIP3    H226783   3.672   1.489  14.786 -0.8556  1.5448  1.6153
 1790TIP3   OH226784   4.014   4.749  16.992 -0.4629 -0.1482  0.4985
 1790TIP3    H126785   4.048   4.737  17.080 -0.3569 -0.0315  0.4731
 1790TIP3    H226786   4.079   4.802  16.947  0.1167 -1.2802 -0.0351
 1791TIP3   OH226787   6.070   3.515   0.201 -0.0244  0.0765  0.0206
 1791TIP3    H126788   6.049   3.602   0.168 -0.8344  0.3958  1.3092
 1791TIP3    H226789   6.017   3.506   0.280 -0.8622 -2.0681 -0.7233
 1792TIP3   OH226790   4.129   5.105  12.380  0.3809 -0.0728  0.3864
 1792TIP3    H126791   4.099   5.150  12.459  1.0848 -0.7827  1.0647
 1792TIP3    H226792   4.110   5.167  12.309 -1.4530  0.0473  0.9378
 1793TIP3   OH226793   6.102   5.414   4.710 -0.3217 -0.8333 -0.2452
 1793TIP3    H126794   6.146   5.329   4.713  0.2690 -0.6807 -2.4087
 1793TIP3    H226795   6.010   5.393   4.697 -0.5379 -1.1288  1.5442
 1794TIP3   OH226796   6.021   5.454   3.332 -0.0909  0.3171 -0.2723
 1794TIP3    H126797   5.942   5.496   3.364 -0.5577 -0.4628 -0.3966
 1794TIP3    H226798   5.998   5.362   3.321  0.5257  0.2596 -1.2723
 1795TIP3   OH226799   6.042   4.015   2.125 -0.6577 -0.3960 -0.1812
 1795TIP3    H126800   6.120   4.069   2.138 -1.0662  0.3726 -0.7874
 1795TIP3    H226801   5.974   4.078   2.102 -0.9836 -1.2224 -1.6214
 1796TIP3   OH226802   1.733   1.803  15.479 -0.2344  0.0211 -0.1519
 1796TIP3    H126803   1.797   1.869  15.451  0.6130 -0.8319 -0.2761
 1796TIP3    H226804   1.778   1.719  15.466 -1.6940 -0.6516 -1.0444
 1797TIP3   OH226805   6.344   0.217   0.221 -0.3766 -0.1498 -0.6436
 1797TIP3    H126806   6.312   0.203   0.132 -0.3904 -0.0378 -0.6569
 1797TIP3    H226807   6.347   0.130   0.260  1.2208 -0.4075 -1.2882
 1798TIP3   OH226808   0.873   1.072   1.681 -0.3977 -0.4728  0.4940
 1798TIP3    H126809   0.905   1.139   1.621  0.2470  0.7440  2.1333
 1798TIP3    H226810   0.782   1.094   1.696 -0.1170  0.2332  1.2389
 1799TIP3   OH226811   5.575   5.223   4.264 -0.7472  0.7496  0.3367
 1799TIP3    H126812   5.530   5.295   4.219 -0.9883 -1.1615 -2.7713
 1799TIP3    H226813   5.662   5.220   4.223 -0.3162 -0.0234  1.2668
 1800TIP3   OH226814   6.017   5.596  15.377 -1.0225 -0.4070  0.3139
 1800TIP3    H126815   6.039   5.590  15.470 -0.4129  0.2820  0.2255
 1800TIP3    H226816   5.971   5.679  15.369 -0.8430 -0.3407 -0.0396
 1801TIP3   OH226817   5.366   6.722   0.200  0.0410 -0.9335  0.1187
 1801TIP3    H126818   5.271   6.732   0.190  0.0313 -1.0501  0.0881
 1801TIP3    H226819   5.395   6.686   0.116  0.1706 -0.5141 -0.0171
 1802TIP3   OH226820   2.696   4.150  15.129  0.0767 -0.4254 -0.1229
 1802TIP3    H126821   2.646   4.086  15.179  2.4212 -2.4565 -0.1351
 1802TIP3    H226822   2.721   4.217  15.193  0.0794 -1.1111  0.6114
 1803TIP3   OH226823   3.352   2.582  13.018  0.7499 -0.2954 -0.4015
 1803TIP3    H126824   3.447   2.584  13.030  0.7299  2.5100 -0.1830
 1803TIP3    H226825   3.336   2.622  12.933 -0.2287 -2.3103 -1.2587
 1804TIP3   OH226826   2.713   3.246  15.461 -0.2829  0.5456  0.0977
 1804TIP3    H126827   2.678   3.177  15.405  1.3110 -0.0420 -0.2290
 1804TIP3    H226828   2.637   3.300  15.483 -1.2292 -0.1712 -1.2636
 1805TIP3   OH226829   0.348   0.991  14.641  0.1688  0.2113 -0.1543
 1805TIP3    H126830   0.404   0.928  14.688  0.2934  0.8842  0.6280
 1805TIP3    H226831   0.261   0.977  14.679  0.5789  1.9144  1.5512
 1806TIP3   OH226832   4.302   2.168  15.022  0.2889 -0.2429  0.2621
 1806TIP3    H126833   4.257   2.252  15.020  2.0706  0.7673 -0.0166
 1806TIP3    H226834   4.269   2.120  14.946  0.6971  1.0395 -0.7572
 1807TIP3   OH226835   1.640   0.430   6.003  0.5259 -0.0095  0.3552
 1807TIP3    H126836   1.685   0.346   6.013  2.3332  0.8397 -0.1082
 1807TIP3    H226837   1.585   0.419   5.926  1.7332 -0.3983 -0.4865
 1808TIP3   OH226838   0.992   1.382   4.144 -0.1991  0.5831  0.5616
 1808TIP3    H126839   1.010   1.395   4.051  1.2422 -0.7922  0.5964
 1808TIP3    H226840   0.926   1.447   4.165 -0.9835  0.5538 -1.5568
 1809TIP3   OH226841   4.194   2.476   4.867  0.4327 -0.4079 -0.1034
 1809TIP3    H126842   4.233   2.427   4.793  1.5446 -0.5181  0.5281
 1809TIP3    H226843   4.249   2.452   4.942  0.4976  1.1939  0.3833
 1810TIP3   OH226844   5.295   0.695  11.726  0.2428 -0.1862 -0.0977
 1810TIP3    H126845   5.313   0.654  11.811 -0.7380 -0.9346 -0.2269
 1810TIP3    H226846   5.256   0.779  11.748 -1.6023 -1.0737  0.2642
 1811TIP3   OH226847   6.403   3.235  12.359  0.1548  0.2488 -0.2507
 1811TIP3    H126848   6.462   3.214  12.286  0.4891  0.6651 -0.1051
 1811TIP3    H226849   6.324   3.268  12.318  0.0530 -0.2324 -0.4477
 1812TIP3   OH226850   2.755   5.766  15.059 -0.1323 -0.6220 -0.1261
 1812TIP3    H126851   2.770   5.673  15.043 -1.3328 -0.7411 -0.7248
 1812TIP3    H226852   2.842   5.802  15.075  0.2106 -2.1335  1.8231
 1813TIP3   OH226853   4.181   2.824   4.357 -0.5808 -0.0118 -0.2048
 1813TIP3    H126854   4.187   2.919   4.356  0.0268 -0.0490 -0.8053
 1813TIP3    H226855   4.131   2.804   4.436  0.3309  0.7487  0.5923
 1814TIP3   OH226856   0.612   5.260  10.980  0.1011 -0.2888  0.0302
 1814TIP3    H126857   0.644   5.221  10.898 -1.9743 -0.3616 -0.8054
 1814TIP3    H226858   0.531   5.304  10.956  0.1640  0.9154  1.8099
 1815TIP3   OH226859   6.218   0.283   4.215  0.5879  0.5791  0.2111
 1815TIP3    H126860   6.252   0.204   4.172  2.8626  2.6065 -2.0020
 1815TIP3    H226861   6.283   0.302   4.283 -0.3999  0.1436  1.3083
 1816TIP3   OH226862   0.720   4.698   1.192 -0.4201  0.2023 -0.3897
 1816TIP3    H126863   0.813   4.705   1.213 -0.3823 -0.3053 -0.3718
 1816TIP3    H226864   0.706   4.759   1.120 -0.5302  1.9069  1.0184
 1817TIP3   OH226865   5.745   4.854   3.883  1.0180  0.1740  0.0344
 1817TIP3    H126866   5.741   4.780   3.944 -1.0547 -0.9601 -1.3458
 1817TIP3    H226867   5.822   4.835   3.829  0.9925 -0.5277  0.2341
 1818TIP3   OH226868   1.283   0.646   5.639 -0.3295  0.0623 -0.8152
 1818TIP3    H126869   1.227   0.635   5.563  1.1725 -0.0158 -1.9562
 1818TIP3    H226870   1.298   0.740   5.645  0.5749 -0.0334 -1.4071
 1819TIP3   OH226871   0.815   0.980   3.049 -0.4171  0.2878  0.2567
 1819TIP3    H126872   0.828   1.029   2.967  0.2518  0.2710  0.3482
 1819TIP3    H226873   0.725   1.000   3.074 -1.1020 -0.7658 -1.1787
 1820TIP3   OH226874   5.849   5.381  14.671  0.0251 -0.3660  0.3129
 1820TIP3    H126875   5.824   5.442  14.740 -2.1085 -1.1643  0.3208
 1820TIP3    H226876   5.777   5.385  14.608  1.8793  0.3070 -1.8908
 1821TIP3   OH226877   0.084   3.733  13.752 -0.3327 -0.1061 -0.0463
 1821TIP3    H126878   0.058   3.822  13.725 -1.2505  0.1970  1.7401
 1821TIP3    H226879   0.005   3.681  13.741  0.0055 -0.5550 -0.3734
 1822TIP3   OH226880   5.003   5.537  13.426  0.2710  0.2109 -0.4273
 1822TIP3    H126881   4.924   5.577  13.389 -1.3698  0.0602  2.5927
 1822TIP3    H226882   4.983   5.444  13.429 -0.5311  0.3724  2.4056
 1823TIP3   OH226883   4.599   5.943   5.928  0.0102  0.1043 -0.3455
 1823TIP3    H126884   4.657   5.933   5.853 -0.1647  0.1352 -0.4868
 1823TIP3    H226885   4.600   5.857   5.971 -0.9083 -0.3254 -1.1307
 1824TIP3   OH226886   3.742   5.016   4.433 -0.0471 -0.1469  0.7110
 1824TIP3    H126887   3.677   4.948   4.453 -1.5208  0.8924 -0.3695
 1824TIP3    H226888   3.745   5.019   4.337  1.1469  0.2707  0.7431
 1825TIP3   OH226889   0.212   0.199   6.566 -0.0398 -0.3880 -0.2961
 1825TIP3    H126890   0.120   0.223   6.558 -0.0321 -0.0799  0.5027
 1825TIP3    H226891   0.221   0.162   6.653  0.3980 -1.3492 -0.7277
 1826TIP3   OH226892   6.666   6.156  16.684  0.5304  0.2295 -0.0840
 1826TIP3    H126893   6.726   6.089  16.652  1.3864  0.8128  0.2704
 1826TIP3    H226894   6.585   6.108  16.703  1.5200 -0.9832  1.4011
 1827TIP3   OH226895   1.969   3.888  15.580  0.2084 -0.6637 -0.9073
 1827TIP3    H126896   1.949   3.817  15.519  0.1218 -2.1832  0.8240
 1827TIP3    H226897   1.896   3.888  15.642  2.0801 -1.7044  1.4360
 1828TIP3   OH226898   4.563   6.200   4.925 -0.0104  0.2474  0.0764
 1828TIP3    H126899   4.621   6.178   4.998 -0.8919  1.4248  1.1777
 1828TIP3    H226900   4.480   6.159   4.947 -0.1031  0.0285 -0.6332
 1829TIP3   OH226901   1.102   5.131  10.614 -0.6088  0.4331  0.3300
 1829TIP3    H126902   1.139   5.151  10.528 -2.8850  2.7278 -0.2773
 1829TIP3    H226903   1.161   5.174  10.676 -0.4991  1.2683 -0.3315
 1830TIP3   OH226904   5.519   3.412  17.229  0.3583  0.4448 -0.3651
 1830TIP3    H126905   5.440   3.451  17.265  2.1057  3.7738  0.1894
 1830TIP3    H226906   5.577   3.486  17.211  2.4492 -1.6230 -3.1142
 1831TIP3   OH226907   4.144   2.738   2.039  0.0553  0.4080  0.6855
 1831TIP3    H126908   4.196   2.664   2.071 -0.0906 -1.2046 -2.4509
 1831TIP3    H226909   4.055   2.703   2.032 -0.1594  1.0866 -0.1100
 1832TIP3   OH226910   6.375   0.937  15.755  0.0582 -0.4666  0.7806
 1832TIP3    H126911   6.312   0.890  15.701 -0.4211  1.9546 -0.9449
 1832TIP3    H226912   6.323   0.975  15.826 -0.1067  0.0181  0.4008
 1833TIP3   OH226913   3.295   1.577  12.478 -0.0900  0.0635  0.6490
 1833TIP3    H126914   3.372   1.586  12.534  0.4420 -0.2113 -0.0113
 1833TIP3    H226915   3.291   1.660  12.430 -0.6005  0.3369  1.1577
 1834TIP3   OH226916   2.212   2.297  12.454 -0.5740 -0.0442 -0.4568
 1834TIP3    H126917   2.173   2.246  12.524  1.7432 -0.9469  0.2809
 1834TIP3    H226918   2.173   2.263  12.374 -2.0185 -0.1479  0.2558
 1835TIP3   OH226919   3.635   0.585  15.168  0.0166 -0.0225 -0.3912
 1835TIP3    H126920   3.682   0.591  15.085  1.1220  0.4214  0.2447
 1835TIP3    H226921   3.577   0.510  15.158 -0.2241  0.3242 -1.7386
 1836TIP3   OH226922   5.281   4.655   4.261 -0.0997  0.1784  0.3075
 1836TIP3    H126923   5.194   4.693   4.274  0.5222  1.3379  1.2535
 1836TIP3    H226924   5.332   4.726   4.222  0.8469  0.0391  1.2508
 1837TIP3   OH226925   5.607   3.990  13.402  0.1928 -0.0710 -0.2033
 1837TIP3    H126926   5.603   4.085  13.387  0.4224 -0.1381 -0.7350
 1837TIP3    H226927   5.517   3.961  13.395  0.2083  0.0087 -0.7605
 1838TIP3   OH226928   0.380   2.508   5.653  0.3020 -1.0616 -0.8420
 1838TIP3    H126929   0.455   2.528   5.597  2.5290 -2.1841  1.5441
 1838TIP3    H226930   0.401   2.549   5.737 -2.2786 -0.5550 -0.3531
 1839TIP3   OH226931   3.327   2.216   5.009 -0.0831  0.1564  0.1820
 1839TIP3    H126932   3.363   2.151   5.069 -0.1401  1.3498  1.5442
 1839TIP3    H226933   3.232   2.204   5.015 -0.0627 -1.1006 -1.2853
 1840TIP3   OH226934   0.068   2.565  15.379  0.4327  0.2852  0.1131
 1840TIP3    H126935   0.002   2.613  15.329 -0.3662  0.0084  0.8747
 1840TIP3    H226936   0.021   2.490  15.414  0.8328  0.7335  1.6931
 1841TIP3   OH226937   2.757   1.265  12.791  0.0265  0.5126 -0.0801
 1841TIP3    H126938   2.805   1.339  12.755  0.3785  0.6689  0.6972
 1841TIP3    H226939   2.813   1.231  12.860 -1.4808  1.4842  1.7352
 1842TIP3   OH226940   5.477   5.462   2.253 -0.3974 -0.1342 -0.5247
 1842TIP3    H126941   5.538   5.420   2.314 -0.8665  0.3298  0.2951
 1842TIP3    H226942   5.532   5.514   2.195 -0.0129  0.3633  0.2671
 1843TIP3   OH226943   6.369   1.886   0.785 -0.2564 -0.4032  0.3498
 1843TIP3    H126944   6.291   1.940   0.793  0.7945  1.2117  0.0115
 1843TIP3    H226945   6.374   1.837   0.868 -0.8935  0.4682  0.9077
 1844TIP3   OH226946   4.899   1.753   5.269 -0.0299 -0.4479 -0.4272
 1844TIP3    H126947   4.899   1.812   5.193  1.1062 -1.0053 -0.8775
 1844TIP3    H226948   4.992   1.740   5.290 -0.3129  0.3568  1.6072
 1845TIP3   OH226949   2.802   5.664  16.759  0.3084 -0.3136  0.2804
 1845TIP3    H126950   2.875   5.668  16.820 -0.3705 -0.3749  1.1057
 1845TIP3    H226951   2.726   5.690  16.810 -0.3457 -0.8257 -0.4091
 1846TIP3   OH226952   5.896   2.332   2.210 -0.4346  0.8839 -0.0412
 1846TIP3    H126953   5.878   2.296   2.297  0.7373 -0.4968 -0.3184
 1846TIP3    H226954   5.873   2.425   2.217 -2.0244  0.4493  1.2071
 1847TIP3   OH226955   1.190   1.710   1.707  0.1653  0.5648 -0.2818
 1847TIP3    H126956   1.251   1.674   1.771 -0.0236 -0.2867 -0.5698
 1847TIP3    H226957   1.160   1.634   1.657 -1.0395  0.9781 -0.2230
 1848TIP3   OH226958   5.319   3.308   4.141  0.2600  0.0099 -0.4178
 1848TIP3    H126959   5.237   3.264   4.119  0.6717 -1.4984  0.8671
 1848TIP3    H226960   5.370   3.242   4.187  2.1256  0.9805 -0.9891
 1849TIP3   OH226961   0.020   4.342  14.978  0.0894  0.1142  0.3679
 1849TIP3    H126962  -0.044   4.343  15.049 -0.9826 -0.4640 -0.5544
 1849TIP3    H226963   0.018   4.431  14.942  0.4915  0.3522  0.9164
 1850TIP3   OH226964   2.333   3.766  14.704  0.4284  0.3673 -0.1034
 1850TIP3    H126965   2.349   3.672  14.697  0.6235 -0.0215  3.5745
 1850TIP3    H226966   2.419   3.806  14.696  0.8357 -0.1280  1.3662
 1851TIP3   OH226967   3.821   1.273  12.469  0.2478  0.1356 -0.1545
 1851TIP3    H126968   3.852   1.305  12.385 -0.0738  0.6191 -0.0901
 1851TIP3    H226969   3.725   1.278  12.463  0.1987  2.9710  1.2778
 1852TIP3   OH226970   6.183   5.762  11.552  0.1394 -0.1596  0.2403
 1852TIP3    H126971   6.261   5.778  11.606  1.1907  0.2725 -1.3562
 1852TIP3    H226972   6.203   5.804  11.468 -0.7825 -2.1547 -1.0410
 1853TIP3   OH226973   5.620   4.921  14.433 -0.1058 -0.0262 -0.1127
 1853TIP3    H126974   5.638   4.947  14.342  1.8102 -0.7097  0.0294
 1853TIP3    H226975   5.567   4.842  14.424 -2.9490  1.7953 -0.5579
 1854TIP3   OH226976   5.879   0.764   1.364  0.4140 -0.1938  0.5130
 1854TIP3    H126977   5.943   0.831   1.340  0.3905  0.1223  1.3036
 1854TIP3    H226978   5.829   0.750   1.284  2.1325 -1.2152 -0.4436
 1855TIP3   OH226979   6.232   5.961   4.326  0.1135  0.1002  0.2289
 1855TIP3    H126980   6.317   5.956   4.281 -0.2255 -1.7895 -0.2818
 1855TIP3    H226981   6.252   5.938   4.417  0.3581  1.1867  0.4698
 1856TIP3   OH226982   5.712   3.411   0.792  0.3235  0.5215  0.1222
 1856TIP3    H126983   5.724   3.424   0.887  1.2887  0.1853  0.0561
 1856TIP3    H226984   5.650   3.339   0.785 -1.0887  1.6485  0.4870
 1857TIP3   OH226985   6.551   4.799  15.750 -0.5699 -0.3873 -0.7165
 1857TIP3    H126986   6.631   4.840  15.716 -0.4981 -0.8205 -1.0928
 1857TIP3    H226987   6.518   4.748  15.676 -0.3465 -1.4517 -0.1082
 1858TIP3   OH226988   1.953   0.700  13.500 -0.0433 -0.1273 -0.1992
 1858TIP3    H126989   1.866   0.681  13.535  0.2880 -1.4677 -0.0581
 1858TIP3    H226990   1.959   0.649  13.419  0.4716  0.2452 -0.4019
 1859TIP3   OH226991   0.941   5.803  16.255  0.0535  0.4134  0.0100
 1859TIP3    H126992   0.861   5.765  16.218  0.3942  0.2580 -0.5667
 1859TIP3    H226993   1.011   5.775  16.196  0.4012  1.3752 -0.0432
 1860TIP3   OH226994   0.517   3.643  14.472  0.1172  0.4125  0.0137
 1860TIP3    H126995   0.546   3.672  14.385  3.5073 -0.7385  0.6401
 1860TIP3    H226996   0.486   3.554  14.458  4.3028 -1.2974  0.4042
 1861TIP3   OH226997   4.120   5.702   2.870 -0.3376  0.5531 -0.0648
 1861TIP3    H126998   4.184   5.742   2.929 -1.0225  1.2200  0.2361
 1861TIP3    H226999   4.151   5.726   2.783  0.3748  0.0194  0.0269
 1862TIP3   OH227000   6.729   1.527  11.548 -0.3793  0.5913  0.1668
 1862TIP3    H127001   6.652   1.563  11.505  0.0469 -0.2634 -1.3874
 1862TIP3    H227002   6.802   1.580  11.515 -0.3172  1.7502  2.0397
 1863TIP3   OH227003   0.719   5.025   1.647  0.6013  0.9680  0.5663
 1863TIP3    H127004   0.763   5.099   1.688  1.5405  0.6005  0.2440
 1863TIP3    H227005   0.747   5.027   1.556 -1.7011  1.9476 -0.2007
 1864TIP3   OH227006   1.442   0.969  16.076 -0.0034 -0.2949 -1.1942
 1864TIP3    H127007   1.466   0.881  16.103 -1.0414 -0.3936 -0.5599
 1864TIP3    H227008   1.409   1.011  16.155  0.5539  0.7018 -1.4662
 1865TIP3   OH227009   3.335   3.936   6.174  0.0779  0.2155 -0.3511
 1865TIP3    H127010   3.255   3.951   6.226  1.0238  1.2418  0.8648
 1865TIP3    H227011   3.383   3.870   6.223  1.0719  1.3364  0.2355
 1866TIP3   OH227012   2.078   4.450  15.689 -0.0228 -0.0111 -0.3410
 1866TIP3    H127013   2.063   4.486  15.602  1.1891 -1.3887 -1.1577
 1866TIP3    H227014   1.998   4.401  15.708 -1.1840  2.0056  0.2800
 1867TIP3   OH227015   2.304   3.971  16.261  0.4053 -0.0827 -0.5327
 1867TIP3    H127016   2.245   3.980  16.335  0.9936  0.6676 -0.1484
 1867TIP3    H227017   2.367   4.043  16.270  1.6162 -1.0712 -0.7026
 1868TIP3   OH227018   0.944   2.355   5.943  0.1193  0.6603 -0.1280
 1868TIP3    H127019   0.948   2.292   6.014  3.3831  0.9566  0.1266
 1868TIP3    H227020   0.875   2.416   5.968 -1.0055 -1.0405  1.1252
 1869TIP3   OH227021   5.100   4.161   1.855 -0.3807  0.2232 -0.1441
 1869TIP3    H127022   5.187   4.124   1.843 -0.3213  0.5527 -0.7777
 1869TIP3    H227023   5.052   4.135   1.777 -0.6585  0.5759 -0.0919
 1870TIP3   OH227024   5.780   2.109  12.444 -0.4692  0.0254 -0.0912
 1870TIP3    H127025   5.736   2.030  12.413 -0.5575 -0.4770  1.2627
 1870TIP3    H227026   5.709   2.167  12.470 -0.3806 -0.0424  0.3117
 1871TIP3   OH227027   5.435   4.197   1.955  0.0595 -0.0409 -0.0590
 1871TIP3    H127028   5.471   4.116   1.917 -0.4163 -0.4860  0.4253
 1871TIP3    H227029   5.489   4.213   2.032  0.9351  0.7865 -0.8138
 1872TIP3   OH227030   3.391   3.823  11.630  0.0944 -0.3508 -0.4845
 1872TIP3    H127031   3.411   3.789  11.717 -0.8919 -0.7093 -0.3809
 1872TIP3    H227032   3.301   3.857  11.638  0.7659  1.6445 -0.7738
 1873TIP3   OH227033   4.139   6.060   6.464 -0.2008 -0.5390  0.1998
 1873TIP3    H127034   4.153   5.971   6.497  1.0610 -0.4795 -0.1282
 1873TIP3    H227035   4.071   6.095   6.521  2.1440 -0.2929  3.1344
 1874TIP3   OH227036   5.083   2.918  11.041  0.1332  0.4845 -0.7124
 1874TIP3    H127037   5.015   2.963  10.992 -0.3571  0.0678 -0.4244
 1874TIP3    H227038   5.038   2.883  11.118  1.1288  2.2638  0.7669
 1875TIP3   OH227039   6.147   4.058   1.675  0.1733 -0.2868 -0.0804
 1875TIP3    H127040   6.204   3.994   1.718 -0.0561 -0.3272  0.1694
 1875TIP3    H227041   6.074   4.006   1.640  0.3614 -0.2539 -0.5254
 1876TIP3   OH227042   3.571   2.566  11.802 -0.1746  0.1735  0.3394
 1876TIP3    H127043   3.528   2.620  11.868 -1.4323 -0.8233  0.3666
 1876TIP3    H227044   3.559   2.615  11.720 -1.1359  0.0488  0.3938
 1877TIP3   OH227045   4.598   1.493  13.645  0.0854 -0.1506  0.1107
 1877TIP3    H127046   4.582   1.513  13.553 -3.1675 -1.0384  0.3474
 1877TIP3    H227047   4.511   1.477  13.681  1.4936 -4.2074  2.3197
 1878TIP3   OH227048   1.647   1.240  12.849  0.0765 -0.2110  0.1344
 1878TIP3    H127049   1.722   1.248  12.791  0.3021 -0.1487  0.4330
 1878TIP3    H227050   1.673   1.175  12.914 -1.0466 -2.0851 -1.1808
 1879TIP3   OH227051   5.365   2.223  12.156 -0.8150  0.7394 -0.5953
 1879TIP3    H127052   5.451   2.223  12.113 -0.8677 -0.5071 -0.7556
 1879TIP3    H227053   5.320   2.299  12.121  0.4581  1.7899 -0.0182
 1880TIP3   OH227054   4.053   0.897  11.785 -0.2288  0.0782  0.1525
 1880TIP3    H127055   4.118   0.948  11.736  3.4288 -1.8979  2.5276
 1880TIP3    H227056   4.072   0.916  11.877 -1.9972 -1.8105  0.9869
 1881TIP3   OH227057   2.969   4.176   4.042 -0.2413 -0.1819  0.2778
 1881TIP3    H127058   3.039   4.165   4.105 -0.1574  0.7995  0.3682
 1881TIP3    H227059   2.921   4.254   4.071  0.3292  0.8289 -1.3328
 1882TIP3   OH227060   2.094   3.133   1.593 -0.6851  0.7355  0.0320
 1882TIP3    H127061   2.072   3.223   1.618  0.7180  0.9127  0.7574
 1882TIP3    H227062   2.183   3.121   1.625 -1.0795 -1.1533  0.5352
 1883TIP3   OH227063   1.975   2.042   4.277  0.0584 -0.3970  0.2843
 1883TIP3    H127064   2.030   2.037   4.198  1.1790  0.7926  0.9445
 1883TIP3    H227065   1.909   2.108   4.257 -1.1401 -1.7837 -0.4883
 1884TIP3   OH227066   5.051   4.227   4.317 -0.2290  0.1676  0.0645
 1884TIP3    H127067   5.133   4.206   4.363 -0.9230 -1.1032  0.7615
 1884TIP3    H227068   5.000   4.276   4.381  0.2067  1.5191 -0.5822
 1885TIP3   OH227069   3.301   5.542   0.133  0.1414  0.7045 -0.4454
 1885TIP3    H127070   3.327   5.525   0.042 -0.6728  0.1389 -0.5823
 1885TIP3    H227071   3.222   5.595   0.126  2.0530  3.8297 -0.0184
 1886TIP3   OH227072   2.426   1.276  11.716  0.6574 -0.1137 -0.5499
 1886TIP3    H127073   2.489   1.303  11.784  0.9298 -1.0143 -0.4338
 1886TIP3    H227074   2.473   1.211  11.664 -0.1493 -0.7431 -0.5122
 1887TIP3   OH227075   2.202   1.093  13.934 -0.2761 -0.2128  0.2152
 1887TIP3    H127076   2.242   1.147  13.866 -1.0450  0.2486  0.1249
 1887TIP3    H227077   2.276   1.066  13.989  0.2785 -0.1280 -0.4706
 1888TIP3   OH227078   1.143   4.039  14.765  0.0792  0.1762  0.1854
 1888TIP3    H127079   1.188   4.027  14.849  0.6754 -0.0438 -0.1620
 1888TIP3    H227080   1.070   3.976  14.768  1.0631 -1.0181 -0.1256
 1889TIP3   OH227081   3.327   6.466   1.522  0.1931  0.3799 -0.2195
 1889TIP3    H127082   3.388   6.421   1.464 -0.7509 -0.4201 -0.6143
 1889TIP3    H227083   3.374   6.474   1.605  1.1536  0.5723 -0.7704
 1890TIP3   OH227084   2.425   4.027   3.963 -0.6192 -0.3574 -0.0373
 1890TIP3    H127085   2.463   3.963   3.903 -0.5154  0.3006 -0.6843
 1890TIP3    H227086   2.340   4.049   3.924 -1.4634 -1.4262  1.1218
 1891TIP3   OH227087   4.216   2.944  15.073  0.2916  0.2403  0.2934
 1891TIP3    H127088   4.121   2.950  15.065  0.1431 -0.4770  1.2794
 1891TIP3    H227089   4.249   3.023  15.030 -0.7618  0.6466  0.2048
 1892TIP3   OH227090   3.221   0.374  13.753  0.2507  0.1920  0.0160
 1892TIP3    H127091   3.162   0.362  13.678 -1.0115 -2.5968  1.3121
 1892TIP3    H227092   3.303   0.403  13.714 -0.0264 -2.1585 -2.6332
 1893TIP3   OH227093   2.242   2.955  14.402  0.0523  0.1943  0.2350
 1893TIP3    H127094   2.290   2.873  14.394  1.1069  0.9168 -1.5086
 1893TIP3    H227095   2.157   2.937  14.360  1.1804  0.6036 -2.4128
 1894TIP3   OH227096   5.438   1.318  12.174 -0.1872  0.2803 -0.1569
 1894TIP3    H127097   5.409   1.234  12.138 -2.2141  0.6800  0.4012
 1894TIP3    H227098   5.513   1.343  12.120 -0.6879 -1.0076 -1.5062
 1895TIP3   OH227099   5.263   0.218   5.451  0.0620 -0.5724  0.2839
 1895TIP3    H127100   5.295   0.136   5.414  0.0538 -0.4053 -0.0909
 1895TIP3    H227101   5.339   0.275   5.454 -0.3320  0.0922 -1.3320
 1896TIP3   OH227102   2.260   5.833  13.105  0.3572 -0.0067  0.7127
 1896TIP3    H127103   2.242   5.784  13.185 -2.9090  0.8609  0.6749
 1896TIP3    H227104   2.253   5.925  13.131  0.0788  0.2999 -0.3886
 1897TIP3   OH227105   2.139   3.848  14.514  0.2004  0.0941 -0.4446
 1897TIP3    H127106   2.173   3.783  14.453 -0.8537 -0.7790 -0.1372
 1897TIP3    H227107   2.202   3.847  14.587  1.9634  1.7924 -1.8385
 1898TIP3   OH227108   0.108   3.970  17.263  0.4633  0.8724  0.4786
 1898TIP3    H127109   0.177   3.904  17.273  0.9392  1.2077 -0.4317
 1898TIP3    H227110   0.141   4.046  17.311  1.4606  1.5451 -1.1861
 1899TIP3   OH227111   0.502   3.037  16.793  0.1454  0.0718  0.8602
 1899TIP3    H127112   0.559   3.020  16.867 -1.1614  0.0760  1.9064
 1899TIP3    H227113   0.493   2.953  16.749  1.1601  0.1311  0.5246
 1900TIP3   OH227114   1.856   6.439  12.817 -0.4643  0.6619 -0.1531
 1900TIP3    H127115   1.772   6.454  12.861 -1.0044  1.1500 -1.3163
 1900TIP3    H227116   1.858   6.504  12.747  0.2841 -0.2151 -0.9714
 1901TIP3   OH227117   5.913   2.452  15.270  0.1989  0.3565  0.0571
 1901TIP3    H127118   5.964   2.522  15.312 -0.1641 -0.6122  2.2636
 1901TIP3    H227119   5.954   2.371  15.300 -1.7689 -0.4225  0.8249
 1902TIP3   OH227120   5.177   1.100  11.252  0.1280  0.1769  0.6718
 1902TIP3    H127121   5.130   1.075  11.173  2.3029  2.2906 -1.4838
 1902TIP3    H227122   5.109   1.130  11.313 -1.5436 -0.6521 -0.7098
 1903TIP3   OH227123   4.582   5.604  16.157 -0.2305 -0.0812 -0.3723
 1903TIP3    H127124   4.633   5.530  16.122  0.5541  0.8822 -1.3508
 1903TIP3    H227125   4.512   5.616  16.093 -0.3986 -0.0258 -0.1756
 1904TIP3   OH227126   6.734   4.551  15.522 -0.1790 -0.4146  0.0806
 1904TIP3    H127127   6.778   4.537  15.438 -0.4388 -0.8279  0.0097
 1904TIP3    H227128   6.778   4.628  15.559 -0.7090  0.3696 -0.8707
 1905TIP3   OH227129   3.189   1.350   5.210  0.4239 -0.3125 -0.4771
 1905TIP3    H127130   3.233   1.369   5.127 -0.0755 -0.1437 -0.7080
 1905TIP3    H227131   3.215   1.260   5.231 -1.0087 -1.0849 -1.8213
 1906TIP3   OH227132   6.369   5.145  16.426  0.1852  0.0783 -0.8374
 1906TIP3    H127133   6.308   5.083  16.465 -0.6237 -0.6333 -3.0755
 1906TIP3    H227134   6.451   5.131  16.472 -0.9125 -0.0448  1.1753
 1907TIP3   OH227135   4.342   0.862   1.823  0.4956 -0.1406 -0.2370
 1907TIP3    H127136   4.388   0.928   1.772 -0.7759 -0.2507 -1.5974
 1907TIP3    H227137   4.253   0.896   1.832  0.1780 -1.0481  0.1898
 1908TIP3   OH227138   1.653   2.718   3.333  0.1174 -0.3495 -0.0111
 1908TIP3    H127139   1.596   2.666   3.390 -1.7465 -0.4593 -1.8317
 1908TIP3    H227140   1.704   2.771   3.393 -1.0040 -1.1830  1.7913
 1909TIP3   OH227141   2.052   0.779   3.355 -0.1080  0.1233  0.1298
 1909TIP3    H127142   2.029   0.695   3.315 -1.2896  0.5055 -0.0244
 1909TIP3    H227143   2.114   0.756   3.425  1.5764 -0.6134 -1.5065
 1910TIP3   OH227144   3.326   2.270   4.736 -0.6626  0.1131 -0.3600
 1910TIP3    H127145   3.334   2.254   4.830 -1.1381 -0.9516 -0.4853
 1910TIP3    H227146   3.275   2.351   4.729 -0.1143  0.5256  0.2896
 1911TIP3   OH227147   1.823   2.565   3.206 -0.1948  0.2363  0.4154
 1911TIP3    H127148   1.831   2.596   3.115  0.5132 -0.4186  0.2411
 1911TIP3    H227149   1.735   2.592   3.233 -0.0337  1.3513 -0.1129
 1912TIP3   OH227150   5.371   2.360  13.551 -0.1430 -0.3461  0.3482
 1912TIP3    H127151   5.430   2.370  13.626  0.2548 -2.3286  0.3441
 1912TIP3    H227152   5.292   2.320  13.588  0.0412 -1.2967 -0.2870
 1913TIP3   OH227153   3.115   2.667  14.243  0.3311  0.4662 -0.3582
 1913TIP3    H127154   3.097   2.757  14.218  1.4348  1.1998  1.3507
 1913TIP3    H227155   3.055   2.649  14.316  0.1649 -0.1699 -0.6380
 1914TIP3   OH227156   2.563   1.116  11.012 -0.1838  0.0590  0.0199
 1914TIP3    H127157   2.546   1.022  11.019 -1.3597  0.0525 -1.9082
 1914TIP3    H227158   2.490   1.157  11.058  0.9911  0.0867  1.9668
 1915TIP3   OH227159   2.956   4.352   1.905  0.1029  0.0407 -0.6336
 1915TIP3    H127160   2.936   4.311   1.822 -1.3843 -1.0464  0.2149
 1915TIP3    H227161   3.021   4.419   1.884 -0.3055 -0.1415 -2.6660
 1916TIP3   OH227162   3.514   4.058  15.276  0.6828  0.1123 -0.2940
 1916TIP3    H127163   3.558   4.108  15.343  0.5862  0.8654 -0.7810
 1916TIP3    H227164   3.553   3.971  15.281 -0.3629 -0.3098  1.7417
 1917TIP3   OH227165   0.942   1.428   5.334  0.0853 -0.8796  0.0271
 1917TIP3    H127166   0.956   1.474   5.416  0.1983 -0.2532 -0.3325
 1917TIP3    H227167   0.996   1.475   5.270 -1.1334 -0.4270 -0.7134
 1918TIP3   OH227168   4.717   5.629   2.958 -0.3155 -0.3614 -0.2152
 1918TIP3    H127169   4.744   5.653   3.046 -0.9525 -0.7981  0.0999
 1918TIP3    H227170   4.716   5.533   2.958  1.7130 -0.4403 -1.3141
 1919TIP3   OH227171   4.436   2.704   2.846 -0.4291 -0.0623 -0.2314
 1919TIP3    H127172   4.520   2.749   2.842 -0.2490 -0.4301 -0.7044
 1919TIP3    H227173   4.380   2.753   2.786 -0.6453  0.3641  0.3120
 1920TIP3   OH227174   2.883   3.881   3.014  0.4240  0.3463 -0.1422
 1920TIP3    H127175   2.844   3.930   3.087  2.2709  0.4905  0.8146
 1920TIP3    H227176   2.873   3.789   3.039  1.4344  0.4037  0.5499
 1921TIP3   OH227177   3.785   0.716   4.041  0.5288 -0.2926 -0.3087
 1921TIP3    H127178   3.739   0.655   4.099  1.3947  0.4359  1.1920
 1921TIP3    H227179   3.871   0.675   4.028  0.1274 -0.7684 -1.6479
 1922TIP3   OH227180   4.221   3.338  16.643  0.7294  0.3068  0.0908
 1922TIP3    H127181   4.203   3.432  16.639 -0.6070  0.1053  0.7909
 1922TIP3    H227182   4.299   3.326  16.590 -0.1804  1.5529 -1.6396
 1923TIP3   OH227183   5.136   6.228  16.370  0.0914  0.8731 -0.3790
 1923TIP3    H127184   5.110   6.197  16.284  0.8637  0.4928 -0.4837
 1923TIP3    H227185   5.057   6.221  16.424 -0.0173 -0.2471 -0.6782
 1924TIP3   OH227186   5.367   3.838  15.875  0.0957 -0.0174  0.6784
 1924TIP3    H127187   5.365   3.768  15.941 -1.2829  1.3019  2.1253
 1924TIP3    H227188   5.418   3.908  15.916 -0.7676  0.8170  0.3720
 1925TIP3   OH227189   5.800   3.004  10.953 -0.9157  0.3308  0.2753
 1925TIP3    H127190   5.802   3.077  11.014 -1.9508 -1.0708  2.1025
 1925TIP3    H227191   5.756   3.038  10.876  0.1543  2.0820  0.3924
 1926TIP3   OH227192   1.852   0.163  12.149  0.2203  0.2541  0.0690
 1926TIP3    H127193   1.804   0.129  12.073  1.1328  0.9650 -0.8565
 1926TIP3    H227194   1.797   0.233  12.183 -0.2399 -0.1300  0.1347
 1927TIP3   OH227195   0.154   4.938   4.652  0.1757  0.5484  0.3049
 1927TIP3    H127196   0.146   4.848   4.623  0.0766  0.4765  0.5484
 1927TIP3    H227197   0.085   4.985   4.605 -0.6978  0.2267  1.2257
 1928TIP3   OH227198   4.569   0.957  13.960  0.1412 -0.8203  0.2741
 1928TIP3    H127199   4.540   0.918  14.043 -1.1120 -2.6659 -0.9443
 1928TIP3    H227200   4.548   0.891  13.894  3.1204 -0.3891 -1.3057
 1929TIP3   OH227201   5.206   4.772   1.618  0.1402  0.2042 -0.5409
 1929TIP3    H127202   5.244   4.720   1.547  0.8312  0.9304 -0.7231
 1929TIP3    H227203   5.123   4.804   1.583 -0.1027 -0.4459 -0.5689
 1930TIP3   OH227204   0.988   6.221   5.641 -0.6443 -0.1287  0.0710
 1930TIP3    H127205   0.945   6.210   5.556 -0.9486 -0.8478  0.3106
 1930TIP3    H227206   1.082   6.219   5.621 -0.7047 -0.9196 -0.1927
 1931TIP3   OH227207   5.014   6.207   0.850  0.4988  0.0644 -0.5586
 1931TIP3    H127208   5.050   6.255   0.925  0.0037  0.2411 -0.4293
 1931TIP3    H227209   5.054   6.248   0.774 -0.4429  1.1539 -0.4859
 1932TIP3   OH227210   6.494   5.606  11.432 -0.2844  0.3122 -0.2193
 1932TIP3    H127211   6.539   5.523  11.448 -0.9424  0.1870  1.1239
 1932TIP3    H227212   6.402   5.586  11.446 -0.5024  1.1617 -0.3860
 1933TIP3   OH227213   5.886   6.275   5.181 -0.9808  0.1497  0.4545
 1933TIP3    H127214   5.913   6.224   5.257 -2.7108 -2.7097 -0.6804
 1933TIP3    H227215   5.967   6.285   5.130 -0.2366  0.2285  1.5959
 1934TIP3   OH227216   0.083   2.659  12.953  0.3336  0.2128  0.6311
 1934TIP3    H127217   0.079   2.741  12.903 -0.3775  0.3007  0.8168
 1934TIP3    H227218   0.084   2.591  12.886  0.0987  0.3485  0.4881
 1935TIP3   OH227219   5.875   1.698  13.874  0.0024  0.3781  0.2178
 1935TIP3    H127220   5.893   1.605  13.889 -0.4676  0.5136  1.7979
 1935TIP3    H227221   5.910   1.715  13.787 -3.3122 -2.2005 -1.8769
 1936TIP3   OH227222   1.826   6.342  10.931 -0.1823  0.5013 -0.1790
 1936TIP3    H127223   1.789   6.420  10.888  0.5307  0.1029 -1.5711
 1936TIP3    H227224   1.907   6.373  10.972  0.3169  0.4238 -1.0847
 1937TIP3   OH227225   1.030   4.770  14.997  0.5028  0.0306 -0.0150
 1937TIP3    H127226   1.093   4.809  14.936 -1.1467  0.6541 -1.4074
 1937TIP3    H227227   0.975   4.715  14.941 -0.5328 -0.0649  1.0774
 1938TIP3   OH227228   5.969   0.886  14.975  0.4678 -0.0258  0.2639
 1938TIP3    H127229   5.902   0.951  14.997  1.3681  0.0965  3.0527
 1938TIP3    H227230   6.020   0.875  15.055  2.3361 -1.8744 -1.0395
 1939TIP3   OH227231   3.603   2.577  12.882 -0.2412 -0.0555  0.6351
 1939TIP3    H127232   3.638   2.492  12.855 -1.2072 -0.9728  2.0947
 1939TIP3    H227233   3.634   2.588  12.972  2.4495  2.6426 -0.4306
 1940TIP3   OH227234   4.266   3.255  15.716  0.1127 -0.1290 -0.0281
 1940TIP3    H127235   4.186   3.304  15.697 -0.1713 -0.2906  0.7125
 1940TIP3    H227236   4.256   3.227  15.807  2.0780  1.9318  0.9107
 1941TIP3   OH227237   5.755   2.168  16.724  0.0694 -0.2515  0.4900
 1941TIP3    H127238   5.834   2.181  16.671 -0.0860  0.4696  0.4215
 1941TIP3    H227239   5.785   2.119  16.801  0.7323  0.6620  0.8214
 1942TIP3   OH227240   3.965   0.580  12.243  0.0801 -0.1181 -0.1706
 1942TIP3    H127241   4.041   0.637  12.225 -0.1929  0.7122  1.1437
 1942TIP3    H227242   3.891   0.627  12.206  0.2753 -1.4984 -2.5527
 1943TIP3   OH227243   4.825   6.001  16.844  0.5361  0.0147 -0.6939
 1943TIP3    H127244   4.880   6.073  16.876 -1.0059  1.0337 -0.2081
 1943TIP3    H227245   4.838   5.931  16.907  0.5680  0.5676 -0.0789
 1944TIP3   OH227246   0.869   6.727  14.156  0.3423  0.4123 -0.0560
 1944TIP3    H127247   0.893   6.698  14.067  0.8420 -0.4109  0.3334
 1944TIP3    H227248   0.944   6.780  14.184  0.0133  0.9963 -0.2633
 1945TIP3   OH227249   3.787   1.691  13.760 -0.3772  0.0769  0.1415
 1945TIP3    H127250   3.805   1.779  13.728 -3.7200  1.2320  1.0361
 1945TIP3    H227251   3.797   1.697  13.855 -1.0645 -0.3623  0.2504
 1946TIP3   OH227252   1.772   5.805  16.580 -0.2761  0.4110  0.2214
 1946TIP3    H127253   1.744   5.884  16.627 -0.5710 -0.3588  1.3827
 1946TIP3    H227254   1.697   5.780  16.526 -0.2888  0.7463  0.0817
 1947TIP3   OH227255   3.661   1.758  14.268 -0.6135  0.1015  0.1342
 1947TIP3    H127256   3.728   1.801  14.322 -1.8504  1.3382  0.7661
 1947TIP3    H227257   3.624   1.692  14.326  0.0229 -0.5616 -0.2050
 1948TIP3   OH227258   2.155   0.758   3.040 -0.2239 -0.2822  0.5930
 1948TIP3    H127259   2.171   0.683   2.984 -1.1154 -0.6228  0.7785
 1948TIP3    H227260   2.228   0.758   3.102  1.9982  1.3316 -1.7729
 1949TIP3   OH227261   2.595   4.240   2.932  0.4716  0.2137 -0.4544
 1949TIP3    H127262   2.528   4.308   2.942 -0.3150 -0.6340  0.2464
 1949TIP3    H227263   2.561   4.184   2.862 -0.6119 -1.3791  1.2636
 1950TIP3   OH227264   0.919   0.738  12.726  0.2885  0.0210 -0.1449
 1950TIP3    H127265   0.844   0.777  12.680 -2.2632 -4.6745 -0.5523
 1950TIP3    H227266   0.968   0.693  12.657  0.4409 -1.2901  0.7894
 1951TIP3   OH227267   6.306   1.104   3.290 -0.3297  0.3896  0.1790
 1951TIP3    H127268   6.238   1.155   3.245  0.0158 -0.1552 -0.9966
 1951TIP3    H227269   6.365   1.170   3.325  0.8826  0.8738 -2.5096
 1952TIP3   OH227270   1.568   5.957  13.185 -0.1859 -0.1218 -0.6308
 1952TIP3    H127271   1.564   5.885  13.248  1.1771  0.5691  0.3130
 1952TIP3    H227272   1.598   5.916  13.103 -0.0217 -0.7180 -0.2762
 1953TIP3   OH227273   2.566   4.796  16.813 -0.5152  0.1542  0.2021
 1953TIP3    H127274   2.554   4.729  16.880  1.5150 -0.2054  0.2571
 1953TIP3    H227275   2.618   4.864  16.856 -1.3950  1.1469 -0.2613
 1954TIP3   OH227276   2.475   2.249   2.291 -0.3004  0.4193  0.3467
 1954TIP3    H127277   2.488   2.336   2.327 -1.7887  0.1684  1.5795
 1954TIP3    H227278   2.391   2.253   2.246  0.7565  0.2624 -1.7809
 1955TIP3   OH227279   1.366   0.958   0.373 -0.0675  0.2151 -0.1795
 1955TIP3    H127280   1.372   1.041   0.326 -1.3311  1.0971  1.1580
 1955TIP3    H227281   1.363   0.982   0.465 -0.8281 -1.2931  0.2180
 1956TIP3   OH227282   3.419   0.889   2.010  0.1316  0.1877  0.5202
 1956TIP3    H127283   3.430   0.982   2.027 -2.3427  0.5324  0.6303
 1956TIP3    H227284   3.325   0.878   1.998  0.5674 -1.9639 -1.6196
 1957TIP3   OH227285   6.130   1.259  13.941  0.1914 -0.5354  0.0271
 1957TIP3    H127286   6.173   1.342  13.920  0.9036 -0.7323  0.6747
 1957TIP3    H227287   6.153   1.241  14.032  0.2393 -1.5590 -0.1663
 1958TIP3   OH227288   2.554   6.327  11.345  0.4460  0.1516 -0.1907
 1958TIP3    H127289   2.478   6.382  11.326 -0.3502 -0.3156  1.4599
 1958TIP3    H227290   2.528   6.276  11.422  2.1512 -0.5922 -0.0695
 1959TIP3   OH227291   1.849   6.682   3.845 -0.2571 -0.0282 -0.4384
 1959TIP3    H127292   1.886   6.689   3.757  0.8791  2.7640  0.1517
 1959TIP3    H227293   1.902   6.615   3.889  1.0393  0.5535 -1.0673
 1960TIP3   OH227294   6.395   3.367  11.946 -0.1907 -0.5910  0.1639
 1960TIP3    H127295   6.488   3.346  11.931 -0.2572 -0.8327  0.0804
 1960TIP3    H227296   6.393   3.462  11.957  0.1983 -0.6711  1.0652
 1961TIP3   OH227297   3.009   1.207  12.379  0.0290 -0.8817 -0.2732
 1961TIP3    H127298   3.035   1.277  12.438 -0.5224 -1.3456  0.5342
 1961TIP3    H227299   3.015   1.246  12.292  1.1875 -0.3012  0.0530
 1962TIP3   OH227300   2.309   6.115  11.209  0.0126  0.1085 -0.0318
 1962TIP3    H127301   2.308   6.026  11.173  1.7487  0.4798 -1.1534
 1962TIP3    H227302   2.263   6.108  11.293 -0.9093 -1.5850 -0.6361
 1963TIP3   OH227303   2.873   3.797   3.820  0.1820  0.0967 -0.1330
 1963TIP3    H127304   2.949   3.849   3.794  0.6964 -0.7539 -0.3536
 1963TIP3    H227305   2.894   3.708   3.792  0.1765 -0.6308  1.9771
 1964TIP3   OH227306   4.232   1.680  12.342 -0.4191  0.6050 -0.4831
 1964TIP3    H127307   4.189   1.620  12.403  0.1137  1.3284  0.6142
 1964TIP3    H227308   4.219   1.639  12.256 -0.5880 -0.7706  0.1748
 1965TIP3   OH227309   3.209   3.948  13.935 -0.1607 -0.0639 -0.0411
 1965TIP3    H127310   3.114   3.939  13.948 -0.2296  0.1702 -0.3614
 1965TIP3    H227311   3.229   3.889  13.862 -0.0406 -0.1939  0.0971
 1966TIP3   OH227312   1.992   5.244  17.123  0.5850 -0.2700  0.3366
 1966TIP3    H127313   1.956   5.181  17.184  2.5792 -0.9745  0.8465
 1966TIP3    H227314   1.952   5.222  17.039 -0.8937 -0.3561  1.0309
 1967TIP3   OH227315   4.540   1.310   3.380 -0.1165 -0.1728 -0.8857
 1967TIP3    H127316   4.617   1.366   3.370 -0.9579  1.3600  0.7466
 1967TIP3    H227317   4.576   1.227   3.414  0.7398  0.8466  0.8034
 1968TIP3   OH227318   3.527   1.077  14.308  0.5111  0.3502  0.0921
 1968TIP3    H127319   3.558   1.030  14.230  0.1123 -0.4767  0.4127
 1968TIP3    H227320   3.437   1.048  14.318  0.9223 -0.5158  1.5609
 1969TIP3   OH227321   6.113   3.494  11.185  1.1862  0.2189 -0.5574
 1969TIP3    H127322   6.121   3.413  11.236  1.4662  0.5376 -0.0810
 1969TIP3    H227323   6.042   3.477  11.123  0.0743  0.1927  0.6704
 1970TIP3   OH227324   1.112   2.787  15.656  0.5245 -0.4327  0.0181
 1970TIP3    H127325   1.097   2.715  15.595  0.6511 -0.0839 -0.4316
 1970TIP3    H227326   1.190   2.831  15.621 -0.6646  1.0868 -0.8273
 1971TIP3   OH227327   2.881   3.771  16.148 -0.4451  0.0183  0.4160
 1971TIP3    H127328   2.927   3.839  16.197 -0.4554  0.6643 -0.4507
 1971TIP3    H227329   2.793   3.806  16.134 -0.5510 -0.3148  0.2373
 1972TIP3   OH227330   3.814   1.503  12.199  0.0729  0.4436 -0.0205
 1972TIP3    H127331   3.836   1.538  12.113 -0.8007 -0.6797 -0.7271
 1972TIP3    H227332   3.732   1.456  12.186  0.1958 -0.1989  1.3130
 1973TIP3   OH227333   6.210   5.292  14.181 -0.1610 -0.1472  0.1144
 1973TIP3    H127334   6.263   5.293  14.261 -1.3550 -0.4169  0.9360
 1973TIP3    H227335   6.273   5.303  14.110  0.7223  2.9050  1.1863
 1974TIP3   OH227336   6.357   4.450   2.283 -0.0425  0.5919  0.7246
 1974TIP3    H127337   6.326   4.514   2.219  0.9385 -0.0251 -0.4110
 1974TIP3    H227338   6.417   4.499   2.339  1.8406  0.3898 -1.0408
 1975TIP3   OH227339   0.579   1.594  11.187  0.3224  0.2307  0.6527
 1975TIP3    H127340   0.598   1.586  11.281  0.4185 -1.3862  0.5324
 1975TIP3    H227341   0.657   1.635  11.150  0.4581  0.5002  1.2307
 1976TIP3   OH227342   6.608   4.445  16.574 -0.6905 -0.0513  0.2203
 1976TIP3    H127343   6.595   4.527  16.525  0.9485  0.6461  0.8691
 1976TIP3    H227344   6.691   4.458  16.620 -0.9203 -1.6932  1.1661
 1977TIP3   OH227345   4.806   1.660  10.279 -0.1867 -0.1836  0.0820
 1977TIP3    H127346   4.827   1.749  10.304  0.7816 -0.4958  0.4130
 1977TIP3    H227347   4.888   1.611  10.289 -0.8313 -1.2360  0.4890
 1978TIP3   OH227348   5.783   6.178   1.454 -0.2808  0.1830 -0.3434
 1978TIP3    H127349   5.757   6.151   1.542 -0.7411 -0.8425 -0.7709
 1978TIP3    H227350   5.731   6.257   1.437  1.0873  1.4135  0.9349
 1979TIP3   OH227351   0.967   2.744   0.073  0.0030  0.2075 -0.2155
 1979TIP3    H127352   0.876   2.731   0.049 -0.0473 -0.9985  0.5610
 1979TIP3    H227353   1.013   2.751  -0.010 -0.3312 -2.6307 -0.7233
 1980TIP3   OH227354   2.413   5.063   0.033 -0.0867  0.3129  0.3597
 1980TIP3    H127355   2.413   5.100  -0.056  0.6173 -0.5124  0.0047
 1980TIP3    H227356   2.506   5.053   0.054 -0.2533  0.4614  1.1760
 1981TIP3   OH227357   2.200   0.791   5.785 -0.0019  0.9018 -0.1158
 1981TIP3    H127358   2.174   0.841   5.708 -0.0722 -1.2277 -1.5593
 1981TIP3    H227359   2.119   0.751   5.817  0.0307  1.7244  1.0868
 1982TIP3   OH227360   3.418   3.220   2.621 -0.9176 -0.2187  0.4365
 1982TIP3    H127361   3.425   3.315   2.612 -1.6984  0.0501  2.1825
 1982TIP3    H227362   3.508   3.189   2.620 -0.5966  0.6754  0.9198
 1983TIP3   OH227363   0.776   2.823   1.396 -0.0247  0.4190  0.0268
 1983TIP3    H127364   0.863   2.859   1.374  1.1968 -2.3227  0.0170
 1983TIP3    H227365   0.734   2.808   1.311  0.2521 -0.0148 -0.0322
 1984TIP3   OH227366   2.550   6.607  15.449  0.6500  0.0152  0.4055
 1984TIP3    H127367   2.485   6.666  15.409 -0.1621 -1.1837 -0.1071
 1984TIP3    H227368   2.505   6.572  15.526  0.8316 -0.5129  0.2753
 1985TIP3   OH227369   6.185   1.861   4.183  0.0602  0.6973 -0.1188
 1985TIP3    H127370   6.094   1.889   4.183 -0.9439 -2.1058  1.5753
 1985TIP3    H227371   6.193   1.804   4.106 -0.2087 -0.5773  0.7704
 1986TIP3   OH227372   1.540   4.038  10.579 -0.2402 -0.0902 -0.0280
 1986TIP3    H127373   1.592   4.113  10.552  0.4141 -0.4622  0.1795
 1986TIP3    H227374   1.461   4.076  10.617  1.1481  0.6120  2.3836
 1987TIP3   OH227375   1.377   6.250   2.481  0.0084 -0.1757  0.5212
 1987TIP3    H127376   1.292   6.292   2.495 -0.3199 -0.9273  0.8773
 1987TIP3    H227377   1.379   6.231   2.387 -0.1103  0.0742  0.4690
 1988TIP3   OH227378   5.869   2.449  12.379 -0.2993  0.3639 -0.1088
 1988TIP3    H127379   5.954   2.405  12.374 -0.0814  0.8903 -2.3527
 1988TIP3    H227380   5.879   2.515  12.448  0.9098  0.0094  0.0682
 1989TIP3   OH227381   3.591   4.110   3.736  0.4797 -0.0609  0.6584
 1989TIP3    H127382   3.508   4.155   3.717  0.5746  0.5780  1.6923
 1989TIP3    H227383   3.643   4.175   3.784  0.7674 -1.1459  1.8608
 1990TIP3   OH227384   5.315   0.829   5.618  0.8863 -0.2443 -0.1391
 1990TIP3    H127385   5.302   0.757   5.680  1.6499 -1.1639 -1.0151
 1990TIP3    H227386   5.404   0.860   5.635  0.7450  0.1591 -0.1147
 1991TIP3   OH227387   5.785   1.916  15.761  0.3514 -0.2586  0.1215
 1991TIP3    H127388   5.880   1.920  15.769  0.3584  0.2571 -0.1738
 1991TIP3    H227389   5.769   1.910  15.667  0.0290  2.4043 -0.0828
 1992TIP3   OH227390   3.836   1.907   4.518 -0.2874  0.0605  0.1844
 1992TIP3    H127391   3.847   1.878   4.608 -0.3122 -1.0891 -0.1605
 1992TIP3    H227392   3.916   1.878   4.473 -1.6307 -2.3049 -0.8507
 1993TIP3   OH227393   3.198   6.476  15.079  0.0004 -0.3360  0.9401
 1993TIP3    H127394   3.167   6.553  15.031  1.6029 -0.3022 -0.1290
 1993TIP3    H227395   3.147   6.476  15.159  0.3123  2.1803  1.2383
 1994TIP3   OH227396   0.199   5.687   2.095  0.5229 -0.5490 -0.0236
 1994TIP3    H127397   0.254   5.639   2.032 -0.8089  0.7639 -2.3075
 1994TIP3    H227398   0.242   5.772   2.103 -0.1855 -0.1490 -0.4273
 1995TIP3   OH227399   4.545   0.872  15.437 -0.0943  0.8906  0.9284
 1995TIP3    H127400   4.640   0.867  15.443 -0.0475  1.2982  0.5951
 1995TIP3    H227401   4.528   0.948  15.381 -0.4984 -2.0059 -3.4008
 1996TIP3   OH227402   5.828   4.441   2.607  0.6696 -0.0709 -0.4390
 1996TIP3    H127403   5.840   4.520   2.554 -1.1555  1.1381  0.8547
 1996TIP3    H227404   5.870   4.461   2.690  1.1153 -0.8851 -0.4637
 1997TIP3   OH227405   0.895   6.066  14.148 -0.8255 -0.7658  0.8240
 1997TIP3    H127406   0.896   6.102  14.060  0.8805 -1.8438  0.3527
 1997TIP3    H227407   0.911   5.973  14.137  0.0206 -0.8367  2.2886
 1998TIP3   OH227408   6.639   1.536   3.970 -0.1631 -0.3556  0.1930
 1998TIP3    H127409   6.545   1.527   3.955 -0.2450  0.8605 -0.1614
 1998TIP3    H227410   6.645   1.581   4.054  0.1394 -1.4366  0.7593
 1999TIP3   OH227411   0.217   4.812  10.804  0.3336  0.4623 -0.0478
 1999TIP3    H127412   0.131   4.829  10.841  0.2315 -0.4006  0.1107
 1999TIP3    H227413   0.226   4.877  10.733 -0.0541  1.1597  0.5329
 2000TIP3   OH227414   0.778   2.803   5.744 -0.2062  0.0909  0.7580
 2000TIP3    H127415   0.788   2.896   5.763 -0.3809  0.7460 -1.9624
 2000TIP3    H227416   0.703   2.776   5.796 -1.4563  2.0029  0.0539
 2001TIP3   OH227417   6.017   1.467  16.307 -0.7150  0.3155  0.1260
 2001TIP3    H127418   6.104   1.503  16.287 -0.4941  0.7444  1.7607
 2001TIP3    H227419   5.972   1.466  16.222  0.9235 -0.0615 -0.7824
 2002TIP3   OH227420   6.299   2.534  10.958  0.4789 -0.4571  0.0850
 2002TIP3    H127421   6.367   2.504  10.898 -0.2322  0.2379 -1.1168
 2002TIP3    H227422   6.237   2.461  10.963  0.0415 -0.1572 -0.8196
 2003TIP3   OH227423   1.161   0.088  12.178 -0.4696  0.1003  0.2579
 2003TIP3    H127424   1.187   0.018  12.118 -0.3972 -0.2390  0.6810
 2003TIP3    H227425   1.120   0.043  12.252 -0.8625  0.5348  0.3092
 2004TIP3   OH227426   3.892   3.803  11.126 -0.3020 -0.4758  0.3351
 2004TIP3    H127427   3.860   3.866  11.191  2.5608  0.8187  0.6372
 2004TIP3    H227428   3.935   3.856  11.059  0.3250 -2.0025 -0.5388
 2005TIP3   OH227429   0.610   6.230  16.891 -0.4148 -0.2438  0.6727
 2005TIP3    H127430   0.705   6.224  16.901 -0.3121 -0.5898 -0.4452
 2005TIP3    H227431   0.598   6.267  16.804 -1.3202 -2.4620 -0.2162
 2006TIP3   OH227432   6.259   0.116   2.949 -0.1214  0.1591 -0.0116
 2006TIP3    H127433   6.251   0.127   2.854  1.1116 -0.8442 -0.2584
 2006TIP3    H227434   6.346   0.149   2.970 -0.3822  0.3680  0.7768
 2007TIP3   OH227435   3.356   5.545   4.151  0.3739  0.5404 -0.0235
 2007TIP3    H127436   3.446   5.572   4.174  0.7015 -0.4326 -0.1407
 2007TIP3    H227437   3.323   5.503   4.230 -0.0891  1.1407  0.1110
 2008TIP3   OH227438   5.103   0.351   1.141 -0.0066  0.3242 -0.3578
 2008TIP3    H127439   5.112   0.315   1.229  1.2076  0.0562 -0.5717
 2008TIP3    H227440   5.150   0.434   1.144  0.4076  0.1125 -0.8636
 2009TIP3   OH227441   5.159   2.471  14.350  0.7514  0.2343  1.1382
 2009TIP3    H127442   5.141   2.377  14.353  1.2872 -0.0139 -1.0687
 2009TIP3    H227443   5.228   2.485  14.415 -0.1719 -0.6497  2.3502
 2010TIP3   OH227444   2.443   0.651  14.037  0.5050 -1.0788  0.2695
 2010TIP3    H127445   2.489   0.727  14.072 -2.1084  0.4482  0.6898
 2010TIP3    H227446   2.496   0.622  13.962  2.2792  0.2698  0.9445
 2011TIP3   OH227447   5.548   2.420   0.176  0.2792  0.1570  0.1231
 2011TIP3    H127448   5.510   2.480   0.240  1.5159  1.2787 -0.1415
 2011TIP3    H227449   5.629   2.389   0.217  0.0571 -0.7284 -0.0772
 2012TIP3   OH227450   3.498   1.826  13.819  0.3501 -0.0763  0.0097
 2012TIP3    H127451   3.561   1.814  13.889 -1.0410  1.6152  1.6829
 2012TIP3    H227452   3.551   1.847  13.742  1.8682 -0.1874  0.9823
 2013TIP3   OH227453   4.728   3.883   5.890  0.4882  0.6293 -0.0500
 2013TIP3    H127454   4.804   3.941   5.887  2.9558 -2.3209  0.3736
 2013TIP3    H227455   4.717   3.862   5.983 -0.7926  0.8560 -0.1218
 2014TIP3   OH227456   0.102   5.164  10.793 -0.0659 -0.2269 -0.1501
 2014TIP3    H127457   0.127   5.197  10.879 -2.1150  2.1671 -0.3531
 2014TIP3    H227458   0.160   5.208  10.732  1.3661 -1.9011 -0.0820
 2015TIP3   OH227459   6.743   0.018   2.511  0.6057 -0.3624  0.4990
 2015TIP3    H127460   6.796   0.093   2.484 -0.2621 -0.0117 -0.2688
 2015TIP3    H227461   6.797  -0.058   2.490  1.1364  0.0095  0.4832
 2016TIP3   OH227462   0.954   2.856  13.993  0.7710 -0.1652  0.3608
 2016TIP3    H127463   0.919   2.810  13.917  1.3791  0.4838 -0.3299
 2016TIP3    H227464   0.980   2.942  13.959  0.1976  0.4917  1.4889
 2017TIP3   OH227465   5.144   4.071  11.513 -0.3213 -0.4167 -0.0443
 2017TIP3    H127466   5.164   4.159  11.545 -3.3332  1.2001 -2.2146
 2017TIP3    H227467   5.215   4.052  11.451  0.2186  0.6018  0.2294
 2018TIP3   OH227468   5.298   0.427   1.713  0.2630 -0.2544 -0.4150
 2018TIP3    H127469   5.275   0.352   1.768  2.7234  0.2401  1.4374
 2018TIP3    H227470   5.287   0.503   1.770 -0.6619  0.6708 -1.7782
 2019TIP3   OH227471   4.834   3.278  15.044  0.5102  0.5537 -0.2233
 2019TIP3    H127472   4.894   3.251  15.113 -0.0351  0.3019  0.1594
 2019TIP3    H227473   4.864   3.365  15.019 -0.7692  1.7653  2.0937
 2020TIP3   OH227474   3.589   2.770  13.472 -0.5138  0.4516 -0.1396
 2020TIP3    H127475   3.523   2.707  13.443 -0.4214  0.5271 -0.5263
 2020TIP3    H227476   3.539   2.840  13.514 -0.6213  0.1549  0.2322
 2021TIP3   OH227477   0.478   1.463   3.862  0.6021 -0.2043  0.0805
 2021TIP3    H127478   0.505   1.529   3.926  1.4161 -0.3830 -0.0665
 2021TIP3    H227479   0.540   1.474   3.789  0.9132 -1.2997  0.1621
 2022TIP3   OH227480   0.539   3.213  10.155  0.4338 -0.6451  0.2013
 2022TIP3    H127481   0.509   3.299  10.127 -0.1632 -1.1774 -0.8313
 2022TIP3    H227482   0.460   3.168  10.185  0.7604 -0.8041  0.8564
 2023TIP3   OH227483   3.549   1.375  11.558  0.1461 -0.8641  0.8736
 2023TIP3    H127484   3.595   1.354  11.639 -1.1096  1.8900  2.4249
 2023TIP3    H227485   3.594   1.451  11.523 -0.4167 -0.9418 -0.0631
 2024TIP3   OH227486   3.753   5.733  11.068  0.3021  0.3339  0.2859
 2024TIP3    H127487   3.737   5.649  11.110 -0.6408  1.0837  1.5104
 2024TIP3    H227488   3.847   5.747  11.077  0.7597 -1.2921 -1.3946
 2025TIP3   OH227489   1.612   3.286  10.181 -0.3778 -0.1863 -0.5869
 2025TIP3    H127490   1.549   3.247  10.242  0.3714  0.8137  0.8960
 2025TIP3    H227491   1.677   3.328  10.238  0.0428  1.2946 -2.0948
 2026TIP3   OH227492   3.493   5.727   4.665 -0.0106  0.2768 -0.1875
 2026TIP3    H127493   3.549   5.649   4.669 -0.5448 -0.1796 -1.2772
 2026TIP3    H227494   3.455   5.733   4.753  1.8027  0.6649  0.6159
 2027TIP3   OH227495   6.063   6.502  14.999 -0.0485 -0.5722 -0.0994
 2027TIP3    H127496   6.003   6.451  15.052 -1.4790  1.3314  0.2217
 2027TIP3    H227497   6.011   6.529  14.923 -0.2833  2.5386  0.9962
 2028TIP3   OH227498   3.724   3.862  15.234  0.2327 -0.6945 -0.7065
 2028TIP3    H127499   3.751   3.770  15.233 -3.1389 -1.8864  0.8585
 2028TIP3    H227500   3.712   3.885  15.142 -0.6000 -2.4465 -1.0814
 2029TIP3   OH227501   5.892   6.621  13.389 -0.3504 -0.4969  0.8162
 2029TIP3    H127502   5.872   6.667  13.308  1.7809 -1.8761 -0.5859
 2029TIP3    H227503   5.984   6.642  13.407  0.3624 -3.1646  0.7480
 2030TIP3   OH227504   3.891   3.356   4.167  0.5123  0.1840  0.3300
 2030TIP3    H127505   3.967   3.303   4.189 -0.2298 -1.0015  0.1477
 2030TIP3    H227506   3.833   3.347   4.242  1.2725  2.5459  1.2637
 2031TIP3   OH227507   1.292   2.578   5.540 -0.1046  0.6317  0.4898
 2031TIP3    H127508   1.255   2.550   5.623 -0.2382 -0.3730  0.1091
 2031TIP3    H227509   1.221   2.625   5.496  0.2255  1.9318  1.2768
 2032TIP3   OH227510   2.514   0.111   5.218  0.3892  0.2355 -0.0836
 2032TIP3    H127511   2.584   0.129   5.155  1.0154  0.7713  0.7399
 2032TIP3    H227512   2.478   0.198   5.240 -0.7908 -0.0604 -0.7711
 2033TIP3   OH227513   5.564   1.096  16.239  0.1922  0.1418  0.0886
 2033TIP3    H127514   5.558   1.167  16.175 -0.4030 -1.2272 -1.4370
 2033TIP3    H227515   5.498   1.117  16.304 -1.3059  0.0670 -1.3394
 2034TIP3   OH227516   5.830   3.526   3.506 -0.4372  0.7255  0.5022
 2034TIP3    H127517   5.765   3.506   3.573 -2.4271 -1.0243 -1.7448
 2034TIP3    H227518   5.858   3.441   3.473 -0.2489  1.5013 -1.5016
 2035TIP3   OH227519   2.877   6.115   4.208  0.1284  0.2087  0.6060
 2035TIP3    H127520   2.785   6.094   4.220 -0.5387  2.3916 -0.3313
 2035TIP3    H227521   2.921   6.029   4.208 -1.8594 -0.8708  1.0912
 2036TIP3   OH227522   1.641   6.757   5.408  0.2378  0.2377  0.0414
 2036TIP3    H127523   1.699   6.834   5.414  1.0772 -0.3594 -0.1627
 2036TIP3    H227524   1.693   6.692   5.361 -0.1559 -0.7388  0.9160
 2037TIP3   OH227525   2.243   5.868  11.058 -0.0980  0.1143 -0.3857
 2037TIP3    H127526   2.209   5.910  10.980 -1.1846 -0.9392 -0.5234
 2037TIP3    H227527   2.325   5.827  11.030 -0.0084  0.5180 -0.7232
 2038TIP3   OH227528   1.028   1.033  15.985  0.1784  0.0357 -0.4484
 2038TIP3    H127529   0.941   1.042  16.023 -0.2778  2.1913 -1.8125
 2038TIP3    H227530   1.022   0.954  15.931 -1.0326  0.3009 -0.7340
 2039TIP3   OH227531   1.055   4.868  11.707  0.0855  0.6213 -0.1532
 2039TIP3    H127532   1.126   4.930  11.692 -0.9914  2.2258  1.0719
 2039TIP3    H227533   1.043   4.867  11.802 -0.8313 -0.4371 -0.2547
 2040TIP3   OH227534   0.441   5.807  15.182 -0.2770 -0.2436 -0.6554
 2040TIP3    H127535   0.395   5.800  15.265  1.5685  0.4014  0.4753
 2040TIP3    H227536   0.423   5.724  15.137  0.9512 -1.8238  1.6026
 2041TIP3   OH227537   1.501   6.600   5.609 -0.0768  0.3661 -0.2333
 2041TIP3    H127538   1.496   6.692   5.636  0.8654  0.7216 -1.1989
 2041TIP3    H227539   1.556   6.601   5.531 -0.3233 -0.9882 -0.4467
 2042TIP3   OH227540   4.644   6.415   0.188 -0.0886 -0.3153  0.1210
 2042TIP3    H127541   4.593   6.463   0.124  1.4241  0.4094 -0.6007
 2042TIP3    H227542   4.672   6.336   0.142  0.1354 -0.2976  0.2243
 2043TIP3   OH227543   0.173   0.061   1.733  0.0833 -0.3145 -0.6193
 2043TIP3    H127544   0.174  -0.022   1.687 -1.8625 -1.0113  0.4836
 2043TIP3    H227545   0.098   0.108   1.696 -0.2262 -0.0203  0.3412
 2044TIP3   OH227546   0.166   3.938   2.286 -0.2799 -0.1565 -0.1288
 2044TIP3    H127547   0.196   3.999   2.218  1.1120 -0.0439  0.5306
 2044TIP3    H227548   0.117   3.871   2.239 -2.0261  1.5489 -0.8615
 2045TIP3   OH227549   0.353   5.869   3.468  0.4339 -0.4879 -0.1976
 2045TIP3    H127550   0.431   5.906   3.426 -1.5197  0.6864 -3.0828
 2045TIP3    H227551   0.342   5.783   3.427  0.6680 -1.0982  0.9381
 2046TIP3   OH227552   1.424   4.949   4.819  0.0506 -0.1434 -0.2727
 2046TIP3    H127553   1.473   4.913   4.745  0.5344  2.7023 -1.4690
 2046TIP3    H227554   1.471   5.029   4.842 -1.0850 -0.0590  2.0311
 2047TIP3   OH227555   2.379   1.915   1.136  0.1232 -0.1517  0.5020
 2047TIP3    H127556   2.324   1.839   1.117  0.7536 -0.1020 -1.7634
 2047TIP3    H227557   2.379   1.920   1.232 -2.5470 -1.0334  0.6303
 2048TIP3   OH227558   1.676   4.606  14.098 -0.8068  0.0642 -0.5199
 2048TIP3    H127559   1.646   4.536  14.041 -1.3594 -1.0773  1.1102
 2048TIP3    H227560   1.667   4.686  14.045 -2.3466 -0.8004 -1.6307
 2049TIP3   OH227561   2.627   2.053   4.577 -0.5282 -0.4143  0.2192
 2049TIP3    H127562   2.614   2.004   4.658  0.0991 -0.4377  0.3070
 2049TIP3    H227563   2.652   2.141   4.605  3.8652 -1.4476  0.1370
 2050TIP3   OH227564   2.465   1.951   4.027  0.1135  0.0012  1.1324
 2050TIP3    H127565   2.472   1.998   3.943  2.4600  1.6492  2.1176
 2050TIP3    H227566   2.546   1.900   4.032 -0.3555 -0.6753  2.0742
 2051TIP3   OH227567   3.906   2.128   0.174  0.1214  0.0279  0.4672
 2051TIP3    H127568   3.945   2.111   0.088  0.0866 -1.3248  0.6999
 2051TIP3    H227569   3.886   2.222   0.173 -1.1293 -0.1967 -1.5271
 2052TIP3   OH227570   0.972   2.714  12.663  0.0414  1.1253  0.0730
 2052TIP3    H127571   0.973   2.762  12.746  0.9103  0.5125  0.4263
 2052TIP3    H227572   1.052   2.663  12.663 -1.2707 -1.0576  0.1335
 2053TIP3   OH227573   4.325   5.735   4.885  0.4300 -0.7728 -0.1332
 2053TIP3    H127574   4.273   5.656   4.874  0.2351 -1.0398  2.2892
 2053TIP3    H227575   4.271   5.805   4.848 -1.5630 -1.0928  1.9741
 2054TIP3   OH227576   4.265   4.429   2.974 -0.0193  0.1141  0.5470
 2054TIP3    H127577   4.352   4.397   2.996 -0.4714 -1.4900  0.1779
 2054TIP3    H227578   4.280   4.514   2.932  1.3603 -0.1564  0.4442
 2055TIP3   OH227579   6.579   3.084  12.775 -0.1365  0.5448 -0.6362
 2055TIP3    H127580   6.499   3.051  12.734 -1.2370 -0.1989  1.8563
 2055TIP3    H227581   6.639   3.100  12.703 -1.4887 -1.7371 -2.4023
 2056TIP3   OH227582   0.400   1.438   2.021  0.2302 -0.5210  0.1485
 2056TIP3    H127583   0.334   1.391   1.971  0.3590 -0.1547 -0.3666
 2056TIP3    H227584   0.453   1.483   1.956  0.8207 -0.5871  0.5732
 2057TIP3   OH227585   5.238   3.944   4.875 -0.1704 -0.9696 -0.6283
 2057TIP3    H127586   5.219   3.875   4.813  2.6991  0.1151 -2.9284
 2057TIP3    H227587   5.331   3.935   4.895  0.3743  2.2005 -1.1142
 2058TIP3   OH227588   0.732   5.125  10.425 -0.6332 -0.0052 -0.2566
 2058TIP3    H127589   0.641   5.096  10.431 -0.3121 -1.0095 -0.1164
 2058TIP3    H227590   0.774   5.092  10.504 -0.3292  1.1733  0.0973
 2059TIP3   OH227591   1.016   0.596   1.973 -0.2096 -0.2925 -0.2776
 2059TIP3    H127592   0.999   0.561   1.886 -0.1471 -0.1333 -0.3537
 2059TIP3    H227593   0.931   0.594   2.017 -0.8921  2.2933 -1.2830
 2060TIP3   OH227594   1.190   4.426  16.725  0.2563 -0.4279  0.0150
 2060TIP3    H127595   1.204   4.462  16.813  0.3260  0.2349 -0.2618
 2060TIP3    H227596   1.253   4.472  16.670  0.5245 -1.1631 -0.3058
 2061TIP3   OH227597   4.676   0.032  13.342  0.2842  0.3445  0.2905
 2061TIP3    H127598   4.742   0.009  13.407  0.8801  1.9335  0.2998
 2061TIP3    H227599   4.659  -0.050  13.294  1.1445 -0.4239  1.2684
 2062TIP3   OH227600   5.323   1.110   3.626  0.1871  0.7557 -0.2867
 2062TIP3    H127601   5.328   1.196   3.666 -0.6825  0.2413  1.0147
 2062TIP3    H227602   5.392   1.059   3.669 -0.8981  0.1351  0.7901
 2063TIP3   OH227603   5.371   2.650   3.261 -0.3693 -0.2612 -0.0635
 2063TIP3    H127604   5.299   2.641   3.323 -0.8002  0.2880 -0.4700
 2063TIP3    H227605   5.328   2.669   3.177  0.2696  0.6525 -0.1970
 2064TIP3   OH227606   2.742   5.749   0.621 -0.5510  0.1887 -0.1539
 2064TIP3    H127607   2.679   5.758   0.548 -1.6285 -2.6839  0.2848
 2064TIP3    H227608   2.815   5.805   0.596 -1.8707  1.1081 -2.3060
 2065TIP3   OH227609   2.005   2.344   1.736  0.4872  0.0738  0.0328
 2065TIP3    H127610   2.094   2.326   1.705  0.5463  2.0463 -1.1166
 2065TIP3    H227611   1.988   2.275   1.800  3.4178  0.4824  1.4353
 2066TIP3   OH227612   2.060   5.068  14.508 -0.1422 -0.9200 -0.5515
 2066TIP3    H127613   2.030   5.074  14.599  0.6502 -1.7697 -0.2251
 2066TIP3    H227614   1.980   5.051  14.458 -1.4581  4.1659 -0.7102
 2067TIP3   OH227615   4.964   4.936  16.329  0.5938 -0.2258  0.8095
 2067TIP3    H127616   4.898   4.997  16.297  1.1165  0.8636  1.7312
 2067TIP3    H227617   5.032   4.992  16.367  2.5176 -1.2537 -0.9146
 2068TIP3   OH227618   5.721   1.898   2.528 -0.3368 -0.1330 -0.2673
 2068TIP3    H127619   5.744   1.920   2.618  0.0964  0.5091 -0.5283
 2068TIP3    H227620   5.759   1.811   2.514 -0.9514 -0.5112  0.3599
 2069TIP3   OH227621   1.020   3.881  11.497  0.0942  0.5023 -0.3176
 2069TIP3    H127622   1.016   3.935  11.418 -1.6952  1.0276  0.0738
 2069TIP3    H227623   0.933   3.841  11.502 -0.8663  2.5858  2.7838
 2070TIP3   OH227624   6.055   5.747  11.840  0.3394 -0.1160 -0.9409
 2070TIP3    H127625   6.085   5.696  11.766  0.7154 -0.2304 -0.7140
 2070TIP3    H227626   5.994   5.690  11.886  0.9220 -0.4462 -0.5687
 2071TIP3   OH227627   1.513   1.720  12.943  0.0877  0.2795 -0.2092
 2071TIP3    H127628   1.449   1.699  12.875 -1.2823 -0.9343  1.4009
 2071TIP3    H227629   1.472   1.789  12.995  0.9628  0.9141 -0.3183
 2072TIP3   OH227630   1.851   5.293   0.950 -0.0467 -0.1508 -0.1257
 2072TIP3    H127631   1.811   5.365   0.901  0.4343 -0.6365 -1.2851
 2072TIP3    H227632   1.777   5.239   0.976 -0.3857  0.5903  0.4844
 2073TIP3   OH227633   5.918   2.018   2.342 -0.7277 -0.3023  0.3859
 2073TIP3    H127634   6.005   2.033   2.380 -0.3479 -0.3650 -0.4476
 2073TIP3    H227635   5.934   2.010   2.248 -1.6444 -0.2639  0.2225
 2074TIP3   OH227636   5.444   4.028  14.395  0.4759 -0.9208 -0.1915
 2074TIP3    H127637   5.389   4.062  14.466 -0.7606 -0.6485 -1.2467
 2074TIP3    H227638   5.409   4.068  14.316  1.3981 -1.7513 -1.0518
 2075TIP3   OH227639   3.026   6.041  12.405 -0.4080  0.0505  0.0500
 2075TIP3    H127640   3.046   6.053  12.312 -1.2849 -1.0547 -0.3129
 2075TIP3    H227641   2.955   5.976  12.406  1.2207 -1.8251  1.5804
 2076TIP3   OH227642   0.496   5.315  15.214  0.1781  0.0048 -0.3717
 2076TIP3    H127643   0.549   5.240  15.186  0.2898 -0.5858  1.3181
 2076TIP3    H227644   0.549   5.359  15.280 -1.0229 -0.0162  0.6381
 2077TIP3   OH227645   4.776   5.241   3.980 -0.2973 -0.1536 -0.2116
 2077TIP3    H127646   4.825   5.324   3.978  1.2879 -1.0712 -0.6319
 2077TIP3    H227647   4.841   5.174   3.958 -1.8858 -1.3595 -1.4469
 2078TIP3   OH227648   4.782   6.162  13.906  0.1560  0.0068  0.5251
 2078TIP3    H127649   4.741   6.243  13.935  2.9401  1.4902  0.6574
 2078TIP3    H227650   4.765   6.158  13.812  0.0192  0.7582  0.5127
 2079TIP3   OH227651   5.733   5.717   3.068  0.0921  0.1452  0.3466
 2079TIP3    H127652   5.815   5.671   3.050 -0.7685 -0.6284 -1.9511
 2079TIP3    H227653   5.754   5.810   3.055  0.6310 -0.0359 -0.1087
 2080TIP3   OH227654   3.203   6.204  15.150  0.2633  0.0735 -0.3949
 2080TIP3    H127655   3.206   6.203  15.246  0.3817  3.0198 -0.3010
 2080TIP3    H227656   3.233   6.291  15.125  1.2049 -0.9372 -3.1976
 2081TIP3   OH227657   5.237   2.988  12.060  0.2624  0.9387 -0.0484
 2081TIP3    H127658   5.260   2.929  11.988 -2.3893  0.6957 -0.8009
 2081TIP3    H227659   5.286   3.068  12.042 -0.3280  0.8855 -2.1639
 2082TIP3   OH227660   5.553   1.124   0.959 -0.0638 -0.6350  0.4351
 2082TIP3    H127661   5.587   1.141   1.047 -1.3759 -1.0120  1.0338
 2082TIP3    H227662   5.548   1.028   0.954  2.2739 -0.7658 -0.9695
 2083TIP3   OH227663   4.832   2.702  13.238  0.1614 -0.6287 -0.5326
 2083TIP3    H127664   4.857   2.630  13.179 -0.3404 -1.1746 -0.0949
 2083TIP3    H227665   4.913   2.723  13.284  0.0372 -1.8292  0.2864
 2084TIP3   OH227666   3.433   4.200   1.264  0.3329  0.6856  0.1623
 2084TIP3    H127667   3.524   4.175   1.250 -0.0752  0.0851 -1.7301
 2084TIP3    H227668   3.383   4.134   1.216 -1.0527  1.6691  0.1958
 2085TIP3   OH227669   2.279   1.771  14.176 -0.0933 -0.6980 -0.0113
 2085TIP3    H127670   2.332   1.698  14.143  1.0548 -0.7845  1.8771
 2085TIP3    H227671   2.229   1.734  14.249  1.0781  0.4943  1.4747
 2086TIP3   OH227672   2.033   4.250   1.940  0.2126 -0.1899 -0.1200
 2086TIP3    H127673   2.008   4.167   1.980  0.0871  0.0800  0.3761
 2086TIP3    H227674   2.115   4.274   1.982 -1.0047  1.1910  1.6798
 2087TIP3   OH227675   6.374   4.154   2.883  0.2545  0.5433  0.2778
 2087TIP3    H127676   6.467   4.143   2.864  0.2285  0.8785 -0.0483
 2087TIP3    H227677   6.369   4.233   2.937  0.4154 -0.8461  2.4430
 2088TIP3   OH227678   0.837   5.067  11.914  0.5302  0.0111 -0.6079
 2088TIP3    H127679   0.864   5.089  11.825  3.5623  0.4653  0.2774
 2088TIP3    H227680   0.909   5.100  11.969 -1.5536  0.4262  2.0948
 2089TIP3   OH227681   0.247   2.682  13.226  0.1731  0.6937  0.4952
 2089TIP3    H127682   0.194   2.694  13.147  0.6485 -0.2797  0.0075
 2089TIP3    H227683   0.192   2.630  13.284  0.9446 -1.2953 -0.4521
 2090TIP3   OH227684   0.625   2.140   1.922 -0.0270 -0.3690 -0.4619
 2090TIP3    H127685   0.616   2.194   1.843 -0.1231  1.2833  0.6211
 2090TIP3    H227686   0.694   2.184   1.973  0.5579 -1.8307  0.0542
 2091TIP3   OH227687   1.078   2.362  12.272 -0.5145  0.2118 -0.2083
 2091TIP3    H127688   1.050   2.454  12.262  2.1396  1.4902  2.4791
 2091TIP3    H227689   1.172   2.364  12.251 -0.4134 -1.9084 -0.0770
 2092TIP3   OH227690   3.873   1.325   4.398 -0.1190  0.1643 -0.1278
 2092TIP3    H127691   3.850   1.277   4.477  0.5938  2.0225  1.2993
 2092TIP3    H227692   3.954   1.284   4.368 -0.2534 -0.4004  0.2684
 2093TIP3   OH227693   6.211   1.633  16.240 -0.0182 -0.6229  0.4348
 2093TIP3    H127694   6.250   1.709  16.283  1.3010 -1.0929  0.1103
 2093TIP3    H227695   6.147   1.669  16.179  0.2820  0.2008  0.5992
 2094TIP3   OH227696   3.659   4.907   5.302  0.4803  1.0010 -0.0131
 2094TIP3    H127697   3.649   4.869   5.214  2.8352  1.4515 -0.5507
 2094TIP3    H227698   3.600   4.856   5.357 -0.1033 -0.1518 -1.6139
 2095TIP3   OH227699   4.603   2.010  11.221 -0.1332 -0.3434 -0.6787
 2095TIP3    H127700   4.645   1.942  11.273 -0.6041  0.6483  1.0845
 2095TIP3    H227701   4.676   2.065  11.190  0.0827 -0.2440 -0.0108
 2096TIP3   OH227702   4.288   1.263   4.836 -0.0612 -0.5227  0.5232
 2096TIP3    H127703   4.319   1.311   4.912 -1.9376 -0.3923  1.2680
 2096TIP3    H227704   4.207   1.307   4.811  0.9644  0.0182 -2.1685
 2097TIP3   OH227705   3.496   2.589  16.800 -0.1245 -0.2007 -0.4886
 2097TIP3    H127706   3.456   2.520  16.852  1.6037 -1.2360 -0.4525
 2097TIP3    H227707   3.443   2.594  16.721 -0.5842 -1.2037 -0.2589
 2098TIP3   OH227708   0.830   2.188  16.685  0.0075 -0.1392 -0.2224
 2098TIP3    H127709   0.880   2.195  16.766  1.1647 -0.0983 -0.9273
 2098TIP3    H227710   0.823   2.278  16.653  2.2431 -0.4366 -1.7393
 2099TIP3   OH227711   0.971   0.586   6.722 -0.0918 -0.1585  0.1113
 2099TIP3    H127712   0.889   0.542   6.698 -0.5634  0.3033  0.8490
 2099TIP3    H227713   0.983   0.653   6.655 -0.9495  0.5496  0.6405
 2100TIP3   OH227714   1.843   0.580   0.186 -0.1463  0.2078 -0.5411
 2100TIP3    H127715   1.890   0.520   0.128 -0.1668  0.5361 -0.8989
 2100TIP3    H227716   1.825   0.656   0.132 -0.6121  0.3091 -0.2457
 2101TIP3   OH227717   3.456   4.212  13.469  0.2672  0.1537  0.9423
 2101TIP3    H127718   3.488   4.290  13.515  1.9106 -0.2983  0.6254
 2101TIP3    H227719   3.431   4.152  13.539  1.4729 -0.0163  1.2444
 2102TIP3   OH227720   6.116   1.708  11.327 -0.4537 -0.4019  0.0074
 2102TIP3    H127721   6.165   1.731  11.249  0.2585 -1.1301  0.2222
 2102TIP3    H227722   6.070   1.627  11.304  0.7553 -1.3193  0.7232
 2103TIP3   OH227723   6.558   3.411   3.771 -0.7401  0.0866  0.4760
 2103TIP3    H127724   6.571   3.371   3.685  0.4409  0.9937  0.2030
 2103TIP3    H227725   6.499   3.485   3.754  0.4655  1.0139  0.1955
 2104TIP3   OH227726   6.587   1.846   4.530  0.0888  0.0063  0.3377
 2104TIP3    H127727   6.597   1.751   4.537 -1.2910 -0.2950 -1.0832
 2104TIP3    H227728   6.541   1.859   4.447  0.3731  1.9424  0.4280
 2105TIP3   OH227729   3.576   4.834   3.330  0.0710  0.7605  0.5208
 2105TIP3    H127730   3.654   4.828   3.274 -0.3242 -1.0694  0.1337
 2105TIP3    H227731   3.605   4.886   3.405  2.3536 -1.6715  1.4681
 2106TIP3   OH227732   4.003   0.577  17.162  0.1363  0.0662 -0.8061
 2106TIP3    H127733   3.930   0.638  17.150 -0.9295 -1.0100 -0.1304
 2106TIP3    H227734   3.994   0.547  17.252  0.0968 -1.6994 -1.3586
 2107TIP3   OH227735   5.789   4.161   4.490 -0.3605  0.0650 -0.4164
 2107TIP3    H127736   5.713   4.111   4.461 -0.6238 -0.6519  1.3366
 2107TIP3    H227737   5.813   4.121   4.574  0.4058  1.8917  0.2864
 2108TIP3   OH227738   3.285   3.766  13.757  0.4149 -0.2207 -0.2236
 2108TIP3    H127739   3.304   3.673  13.774 -0.0255 -0.3110 -0.2135
 2108TIP3    H227740   3.244   3.766  13.671 -0.0294 -0.0900 -0.0139
 2109TIP3   OH227741   5.260   2.568   1.872 -0.3298  0.4584  0.2862
 2109TIP3    H127742   5.337   2.592   1.923 -1.1491  2.2126  0.7664
 2109TIP3    H227743   5.292   2.500   1.812  1.4006  0.6211  0.9523
 2110TIP3   OH227744   1.969   0.120   1.469  0.4534 -0.1427  0.7116
 2110TIP3    H127745   1.976   0.057   1.541 -0.3396  0.0942  1.0156
 2110TIP3    H227746   1.901   0.181   1.498 -0.4495 -0.5026 -0.5825
 2111TIP3   OH227747   5.258   4.391  12.653  0.4527 -0.1828 -0.1146
 2111TIP3    H127748   5.171   4.420  12.625  0.3065 -1.0944 -0.6318
 2111TIP3    H227749   5.276   4.313  12.601  1.0175 -0.7879  0.9481
 2112TIP3   OH227750   5.183   6.405   3.753  0.0346  0.1406 -0.4502
 2112TIP3    H127751   5.090   6.405   3.733 -0.1573  0.9920  0.3535
 2112TIP3    H227752   5.226   6.419   3.668 -0.5433 -0.5269 -0.8623
 2113TIP3   OH227753   1.023   1.402  16.771 -0.7426 -0.4627 -0.1947
 2113TIP3    H127754   0.968   1.351  16.831 -1.8907 -0.3141 -1.0856
 2113TIP3    H227755   1.111   1.367  16.783 -0.9371 -0.4546  1.5570
 2114TIP3   OH227756   4.988   2.399   1.737 -0.0889  0.4947  0.2892
 2114TIP3    H127757   4.921   2.446   1.688 -1.3467 -1.1583  0.3310
 2114TIP3    H227758   5.067   2.452   1.728 -0.4688  0.6891 -2.8003
 2115TIP3   OH227759   2.974   6.281  13.308 -0.0841 -0.2008 -0.0513
 2115TIP3    H127760   2.991   6.187  13.318 -3.5954 -0.9719  0.0221
 2115TIP3    H227761   3.006   6.301  13.220 -0.3098 -1.7849 -0.5369
 2116TIP3   OH227762   6.683   0.769   0.423  0.2697 -0.3000 -0.7193
 2116TIP3    H127763   6.615   0.811   0.476 -0.3236 -1.2749 -0.6817
 2116TIP3    H227764   6.763   0.814   0.448  0.0040 -0.6849  0.9901
 2117TIP3   OH227765   1.740   2.548   1.924  0.7934  0.4064 -0.2943
 2117TIP3    H127766   1.798   2.477   1.898  1.2271  1.0866 -1.2393
 2117TIP3    H227767   1.655   2.525   1.887  0.9433  0.3904 -0.6335
 2118TIP3   OH227768   3.203   1.630   6.371 -1.1259 -0.0818 -0.0176
 2118TIP3    H127769   3.275   1.686   6.342 -0.4117 -0.6187  0.6664
 2118TIP3    H227770   3.128   1.689   6.376 -0.0316  1.2674  2.2841
 2119TIP3   OH227771   6.117   4.591   4.442 -0.1491 -0.2168  0.1278
 2119TIP3    H127772   6.189   4.540   4.404  0.3132 -0.8170  1.7316
 2119TIP3    H227773   6.125   4.678   4.402 -0.0129 -0.9308 -1.4905
 2120TIP3   OH227774   3.641   6.092  11.179 -0.2904  0.2817  0.3117
 2120TIP3    H127775   3.710   6.137  11.130 -0.1465 -0.4410 -0.1594
 2120TIP3    H227776   3.563   6.147  11.166 -0.0314  0.5899  0.0422
 2121TIP3   OH227777   0.102   3.016   0.267  0.3933 -0.7859 -0.3472
 2121TIP3    H127778   0.088   3.108   0.246 -1.2872 -0.4521  1.9951
 2121TIP3    H227779   0.067   2.969   0.191 -1.7577  0.4400 -0.1768
 2122TIP3   OH227780   5.576   5.187   2.898 -0.2232  0.2003 -0.1286
 2122TIP3    H127781   5.519   5.110   2.904 -0.4047  0.2096 -1.3475
 2122TIP3    H227782   5.516   5.262   2.901 -0.1808  0.2421 -0.2664
 2123TIP3   OH227783   2.683   1.543  12.313  0.0072 -0.1068  0.3675
 2123TIP3    H127784   2.772   1.577  12.319  1.2306 -2.6025 -1.4662
 2123TIP3    H227785   2.681   1.470  12.375 -1.2967  0.7860  1.4441
 2124TIP3   OH227786   6.336   0.194   4.964  0.3474  0.0759  0.0213
 2124TIP3    H127787   6.379   0.133   4.903  1.0521 -1.5054  1.9808
 2124TIP3    H227788   6.408   0.240   5.007 -0.1481  1.3055 -0.4324
 2125TIP3   OH227789   5.894   0.076  16.023  0.2402 -0.1422  0.9161
 2125TIP3    H127790   5.858   0.165  16.016 -0.0266 -0.1734  1.7973
 2125TIP3    H227791   5.937   0.074  16.108  0.7352 -0.6891  0.6603
 2126TIP3   OH227792   4.048   4.516  11.315  0.3124 -0.2779 -0.2701
 2126TIP3    H127793   3.970   4.516  11.260  0.1549 -1.7005 -0.0773
 2126TIP3    H227794   4.112   4.568  11.266 -0.8509  1.2209 -0.2602
 2127TIP3   OH227795   5.914   6.195  17.364  0.5888  0.1359 -0.0781
 2127TIP3    H127796   5.916   6.101  17.349 -0.1455 -0.0676  1.0197
 2127TIP3    H227797   5.852   6.228  17.299 -0.0731 -0.3047  0.3191
 2128TIP3   OH227798   2.898   0.201   1.804  0.0293 -0.4345  0.0520
 2128TIP3    H127799   2.990   0.201   1.830 -0.2781 -0.1172  1.1942
 2128TIP3    H227800   2.899   0.226   1.711  1.0683 -0.0732  0.1527
 2129TIP3   OH227801   0.958   3.955  16.576  0.1046  0.3895  0.2638
 2129TIP3    H127802   1.019   4.024  16.547 -0.1007  0.1676 -0.7328
 2129TIP3    H227803   0.902   3.998  16.641  0.7534  0.8315  0.5422
 2130TIP3   OH227804   5.247   5.616   0.258 -0.0559 -0.2254 -0.2331
 2130TIP3    H127805   5.164   5.659   0.237  0.3199  1.0903  0.7803
 2130TIP3    H227806   5.306   5.688   0.278  0.7746 -1.1932  0.9806
 2131TIP3   OH227807   2.360   5.734  15.378  0.6101 -0.7094  0.0419
 2131TIP3    H127808   2.424   5.734  15.308  1.5619 -2.4381  0.8385
 2131TIP3    H227809   2.391   5.667  15.439 -1.4101 -0.8942  0.9628
 2132TIP3   OH227810   5.755   4.848   1.622  0.4258  0.0001 -0.1098
 2132TIP3    H127811   5.696   4.798   1.565  0.4401  0.5078 -0.5720
 2132TIP3    H227812   5.697   4.884   1.690  0.2573  0.1798 -0.3462
 2133TIP3   OH227813   0.947   5.780  11.711  0.2113  0.1164 -0.7610
 2133TIP3    H127814   1.014   5.835  11.670 -2.0859  3.0249 -0.9325
 2133TIP3    H227815   0.900   5.742  11.637 -0.0480  0.3512 -0.7201
 2134TIP3   OH227816   3.700   4.116   2.966  0.0049  0.1787  0.1359
 2134TIP3    H127817   3.770   4.088   3.026 -0.2172  0.8343  0.7210
 2134TIP3    H227818   3.741   4.182   2.911 -0.1134  0.4756  0.3987
 2135TIP3   OH227819   3.491   2.013  12.213  0.6157  0.6101  0.7571
 2135TIP3    H127820   3.403   2.018  12.250  0.4236  1.4933  0.1881
 2135TIP3    H227821   3.481   1.956  12.137  0.6212  0.4052  0.9067
 2136TIP3   OH227822   0.546   0.625   0.486 -0.2190 -0.3341  0.3136
 2136TIP3    H127823   0.507   0.585   0.408  0.7304  0.7824 -0.7591
 2136TIP3    H227824   0.612   0.562   0.515  1.2074  0.3411 -1.3141
 2137TIP3   OH227825   6.503   1.503   1.070  0.4247  0.0155  0.2483
 2137TIP3    H127826   6.494   1.425   1.125 -0.0488  2.0997  3.3393
 2137TIP3    H227827   6.418   1.511   1.026  0.3217 -0.9379  0.2465
 2138TIP3   OH227828   0.306   4.532  15.071  0.4485  0.4512  0.2391
 2138TIP3    H127829   0.301   4.437  15.080  0.0252  0.6445  2.5802
 2138TIP3    H227830   0.394   4.549  15.037  0.6551 -0.7513  0.1471
 2139TIP3   OH227831   1.576   0.753   4.299  0.2731  0.1675 -0.0677
 2139TIP3    H127832   1.658   0.721   4.338  0.2133 -0.2941 -0.3174
 2139TIP3    H227833   1.572   0.845   4.325  0.6890  0.0991  0.2546
 2140TIP3   OH227834   5.370   3.411  16.759  0.1895 -0.0518  0.4086
 2140TIP3    H127835   5.347   3.464  16.682  0.4399 -0.6088 -0.0542
 2140TIP3    H227836   5.417   3.471  16.816  1.3478 -0.0184 -0.5509
 2141TIP3   OH227837   1.446   5.723  10.880 -0.5679 -0.5108 -0.2244
 2141TIP3    H127838   1.427   5.756  10.968  1.2370 -1.7936  0.7021
 2141TIP3    H227839   1.535   5.751  10.863 -0.8900 -0.3152 -1.6462
 2142TIP3   OH227840   6.151   1.396  16.709  0.2682  0.2582 -0.5256
 2142TIP3    H127841   6.097   1.473  16.694  1.7991  1.3101 -0.9000
 2142TIP3    H227842   6.208   1.391  16.632  0.3715 -1.0954 -0.3863
 2143TIP3   OH227843   1.122   3.623   1.390 -0.1097  0.1785  0.3942
 2143TIP3    H127844   1.139   3.714   1.368 -0.8159  0.4302  0.8598
 2143TIP3    H227845   1.067   3.627   1.468  0.7618 -0.6615  1.0724
 2144TIP3   OH227846   4.471   6.063   2.226  0.0507 -0.1545  0.4342
 2144TIP3    H127847   4.541   6.030   2.281  2.2352  1.3350 -1.2815
 2144TIP3    H227848   4.482   6.016   2.143 -1.5250 -0.4753  0.3724
 2145TIP3   OH227849   1.244   2.793   4.150 -0.3123  0.2187  0.0093
 2145TIP3    H127850   1.287   2.859   4.095  0.3388 -1.4441 -1.5789
 2145TIP3    H227851   1.296   2.791   4.231 -0.3956  1.6878  0.1139
 2146TIP3   OH227852   0.777   2.367  16.971  0.1189  0.6605  0.3208
 2146TIP3    H127853   0.690   2.342  16.940  0.6005  1.6743 -2.0246
 2146TIP3    H227854   0.816   2.286  17.002 -0.8335 -0.2257 -0.7456
 2147TIP3   OH227855   0.234   0.493   5.458 -0.3698 -0.2585 -0.6051
 2147TIP3    H127856   0.226   0.502   5.363  0.6247  0.0578 -0.6758
 2147TIP3    H227857   0.315   0.540   5.479  0.3772 -1.8159  0.1610
 2148TIP3   OH227858   4.331   3.296   2.007 -0.0451 -0.2080 -0.2631
 2148TIP3    H127859   4.262   3.307   1.942 -0.7626 -2.3394  0.0330
 2148TIP3    H227860   4.366   3.208   1.989  1.6134  0.2642  0.5090
 2149TIP3   OH227861   4.116   0.557   4.978  0.3252 -0.2129 -0.3149
 2149TIP3    H127862   4.083   0.636   4.935  2.6229  0.2865 -1.3010
 2149TIP3    H227863   4.076   0.558   5.065  0.2958  2.0473 -0.2951
 2150TIP3   OH227864   5.925   6.028   4.512  0.5468 -0.1669 -0.8896
 2150TIP3    H127865   5.892   6.010   4.424  1.0871 -1.5226 -0.8548
 2150TIP3    H227866   5.998   5.966   4.522  0.3621 -0.1797  0.5824
 2151TIP3   OH227867   2.944   6.565   1.125 -0.1271  0.3389 -0.0354
 2151TIP3    H127868   2.975   6.654   1.112 -2.9325  1.4812  0.3569
 2151TIP3    H227869   2.881   6.571   1.196  0.7181 -2.2921  1.0926
 2152TIP3   OH227870   4.840   5.015  14.739 -0.2369 -0.5725 -0.3929
 2152TIP3    H127871   4.861   5.089  14.797 -0.7961  0.2921 -1.2483
 2152TIP3    H227872   4.911   4.953  14.752  0.1435  0.0303  0.4995
 2153TIP3   OH227873   6.744   0.310  13.030  0.4544  0.0147  0.1959
 2153TIP3    H127874   6.664   0.321  12.978  0.4048 -1.8519 -0.2046
 2153TIP3    H227875   6.722   0.347  13.116 -0.7953 -0.3201  0.0391
 2154TIP3   OH227876   0.944   1.929   0.232  0.5830  0.2647  0.9283
 2154TIP3    H127877   0.994   1.877   0.294 -0.4335 -0.6773  0.9662
 2154TIP3    H227878   0.914   2.005   0.282 -1.1218 -1.0079  1.9008
 2155TIP3   OH227879   5.512   4.628   3.104 -1.2766 -0.4976 -0.0367
 2155TIP3    H127880   5.494   4.534   3.112  0.5051 -0.9380 -0.8237
 2155TIP3    H227881   5.454   4.657   3.033 -2.3732 -0.8202  0.6995
 2156TIP3   OH227882   6.732   2.127   2.374  0.5461 -0.1124 -0.1047
 2156TIP3    H127883   6.641   2.098   2.371  0.4673  0.0773  0.4237
 2156TIP3    H227884   6.771   2.078   2.445  0.6109  0.4997  0.2904
 2157TIP3   OH227885   4.538   3.643  13.910 -0.1263  0.1259 -0.0010
 2157TIP3    H127886   4.532   3.710  13.978 -0.4371 -0.2540  0.3488
 2157TIP3    H227887   4.572   3.565  13.955 -0.1977 -0.0861 -0.3088
 2158TIP3   OH227888   6.549   6.220  13.516 -0.4678  0.0977 -0.1253
 2158TIP3    H127889   6.508   6.133  13.514 -0.3251  0.0427 -1.1301
 2158TIP3    H227890   6.634   6.205  13.556 -0.7694 -0.0841  0.4521
 2159TIP3   OH227891   4.624   5.934  16.141  0.0224 -0.4256 -0.0475
 2159TIP3    H127892   4.713   5.946  16.174  0.0196  1.9957 -0.6674
 2159TIP3    H227893   4.624   5.847  16.101  1.6422 -1.0961  1.3089
 2160TIP3   OH227894   2.596   4.232   4.644  0.1570  0.1240 -0.0304
 2160TIP3    H127895   2.635   4.264   4.563  2.0720 -0.6465  0.5507
 2160TIP3    H227896   2.650   4.270   4.714 -1.0792  0.2677  0.8917
 2161TIP3   OH227897   1.532   2.316  16.673 -0.0414 -0.1421  0.1353
 2161TIP3    H127898   1.492   2.363  16.746 -0.2234 -0.0164 -0.0473
 2161TIP3    H227899   1.506   2.365  16.595  1.2429  0.5186  0.0779
 2162TIP3   OH227900   2.729   1.788  10.072  0.0876  0.3360  0.3538
 2162TIP3    H127901   2.797   1.787  10.004 -1.0763 -1.9400 -0.8632
 2162TIP3    H227902   2.772   1.829  10.148  1.6306  2.3591 -1.4826
 2163TIP3   OH227903   1.468   3.088   0.016 -0.1235  0.2841  0.2332
 2163TIP3    H127904   1.452   3.166  -0.037 -2.9931 -0.1896  0.2692
 2163TIP3    H227905   1.392   3.032   0.002  1.3460 -2.1009  1.0181
 2164TIP3   OH227906   4.235   1.512  11.303 -0.3072 -0.4059 -0.7180
 2164TIP3    H127907   4.223   1.580  11.369 -1.5370 -0.5721 -0.7393
 2164TIP3    H227908   4.232   1.430  11.353  2.2725 -0.4715 -0.5331
 2165TIP3   OH227909   3.958   6.431  16.148 -0.0099  0.0074 -0.0727
 2165TIP3    H127910   3.912   6.378  16.083 -1.2742  0.1839  0.6432
 2165TIP3    H227911   3.894   6.443  16.219  1.4066 -0.4563  1.3555
 2166TIP3   OH227912   0.248   4.346  13.461  0.1025 -0.1718  0.0726
 2166TIP3    H127913   0.265   4.440  13.462 -0.8474  0.0257  1.7413
 2166TIP3    H227914   0.307   4.311  13.528 -0.3023 -0.6051  0.2092
 2167TIP3   OH227915   5.137   5.775  13.326  0.1780 -0.3967 -0.2105
 2167TIP3    H127916   5.102   5.696  13.366  0.2856 -0.5737 -0.4683
 2167TIP3    H227917   5.214   5.796  13.380 -0.3360  0.0129  0.3740
 2168TIP3   OH227918   0.884   4.989   0.061 -0.1828 -0.1831 -0.3521
 2168TIP3    H127919   0.976   5.014   0.070 -0.5390  0.5101  2.3050
 2168TIP3    H227920   0.873   4.916   0.123 -1.7008  0.6926  0.4723
 2169TIP3   OH227921   0.533   1.382   4.671 -0.0729  0.2974  0.2035
 2169TIP3    H127922   0.584   1.343   4.600  2.0330  0.4179  1.5682
 2169TIP3    H227923   0.495   1.307   4.717  0.7114  0.0366  0.4579
 2170TIP3   OH227924   5.529   1.366   2.134  0.4542 -0.1180 -0.7220
 2170TIP3    H127925   5.550   1.388   2.043  1.3494 -0.0288 -0.5020
 2170TIP3    H227926   5.548   1.272   2.140  2.0991  0.2066 -0.1929
 2171TIP3   OH227927   1.297   5.920   1.668  0.1939  0.1963  0.5695
 2171TIP3    H127928   1.369   5.928   1.607  1.2263  0.9271  1.8253
 2171TIP3    H227929   1.285   6.008   1.704 -1.7578  0.2441 -0.0477
 2172TIP3   OH227930   1.061   2.343   4.889  0.1790 -0.0665  0.3666
 2172TIP3    H127931   0.984   2.286   4.879  1.0263 -1.3972  1.1953
 2172TIP3    H227932   1.113   2.325   4.811  0.9964 -1.3505  1.1660
 2173TIP3   OH227933   0.882   2.010  15.088  0.0782 -0.0274 -0.3682
 2173TIP3    H127934   0.820   1.983  15.156  0.3449  0.4490  0.0695
 2173TIP3    H227935   0.947   1.939  15.086 -0.9853 -1.0065 -1.5031
 2174TIP3   OH227936   2.968   4.790   6.757 -0.0807  0.4947 -0.2017
 2174TIP3    H127937   3.045   4.775   6.812 -0.0614 -0.3506 -0.4322
 2174TIP3    H227938   3.004   4.807   6.670 -0.0917  2.4146  0.1441
 2175TIP3   OH227939   5.084   3.475  11.664 -0.6000  0.4179  0.5719
 2175TIP3    H127940   5.028   3.450  11.738  1.2405 -1.6706  1.3890
 2175TIP3    H227941   5.137   3.547  11.698 -0.7453  0.4183  0.8058
 2176TIP3   OH227942   2.937   1.135   2.003  0.7207  0.1552 -0.1410
 2176TIP3    H127943   2.925   1.145   2.097  2.4858 -1.4653  0.3282
 2176TIP3    H227944   2.858   1.089   1.973  0.5493 -0.1195  0.7095
 2177TIP3   OH227945   1.399   3.202   0.471 -0.2563 -0.2842 -0.2015
 2177TIP3    H127946   1.481   3.205   0.520 -0.8887 -1.3686  0.9860
 2177TIP3    H227947   1.410   3.129   0.411  0.0698  0.3057 -0.8770
 2178TIP3   OH227948   2.220   0.975   4.029  0.6930  0.7825  0.5201
 2178TIP3    H127949   2.221   1.060   3.986 -0.0618  0.9494  0.8134
 2178TIP3    H227950   2.129   0.946   4.021  0.5090  0.8582  2.0770
 2179TIP3   OH227951   3.452   5.343   5.407 -0.1948  0.3656 -0.4829
 2179TIP3    H127952   3.500   5.261   5.416 -0.3507  0.3278 -0.0038
 2179TIP3    H227953   3.477   5.394   5.484  3.3780  2.5859 -2.8055
 2180TIP3   OH227954   3.693   4.090  12.270 -0.3066  0.1885 -0.2641
 2180TIP3    H127955   3.612   4.061  12.228  0.4816  1.5905 -2.9827
 2180TIP3    H227956   3.696   4.184  12.255  2.2983  0.0462 -1.2827
 2181TIP3   OH227957   2.668   4.102  14.116 -0.3305 -0.0533  0.0487
 2181TIP3    H127958   2.683   4.024  14.064  1.8894 -0.0261  0.5591
 2181TIP3    H227959   2.584   4.086  14.160 -0.4967 -1.6011 -0.7781
 2182TIP3   OH227960   1.120   2.015   2.722  0.9645  0.1093  0.0674
 2182TIP3    H127961   1.131   2.110   2.730 -0.7835  0.2999  0.6155
 2182TIP3    H227962   1.124   1.983   2.812 -1.2476  0.0397  0.1763
 2183TIP3   OH227963   1.796   1.322   3.723  0.0886  0.3240  1.0732
 2183TIP3    H127964   1.789   1.227   3.714 -0.0458  0.5255 -1.8370
 2183TIP3    H227965   1.720   1.356   3.676  1.2750  1.9129  0.2303
 2184TIP3   OH227966   6.187   2.957  14.624 -0.1671 -0.1085 -0.0353
 2184TIP3    H127967   6.128   2.937  14.551  0.9638  1.1431 -1.3727
 2184TIP3    H227968   6.274   2.939  14.588  0.3419 -1.0957  1.6070
 2185TIP3   OH227969   1.518   5.582   3.122 -0.1561 -0.2588 -0.2323
 2185TIP3    H127970   1.501   5.518   3.053 -0.3862  0.0397 -0.4542
 2185TIP3    H227971   1.458   5.558   3.193  1.3163 -1.6697  0.6040
 2186TIP3   OH227972   0.658   6.062   2.023  0.1800 -0.1639  0.0590
 2186TIP3    H127973   0.589   6.096   1.967  0.0235  1.2644  1.0604
 2186TIP3    H227974   0.630   5.973   2.045 -1.2319  0.3162  0.2642
 2187TIP3   OH227975   1.536   3.344   2.654  0.2011  0.3895  0.0945
 2187TIP3    H127976   1.631   3.354   2.662  0.1330  0.5737  0.7122
 2187TIP3    H227977   1.522   3.250   2.646  0.2567  0.0809  2.8139
 2188TIP3   OH227978   6.760   1.351  11.762 -0.2185 -0.0053  0.3171
 2188TIP3    H127979   6.718   1.408  11.697  0.0399  1.4932  1.3949
 2188TIP3    H227980   6.854   1.363  11.747 -0.1023 -2.1081 -1.0424
 2189TIP3   OH227981   5.804   0.876   6.150  0.4535 -0.1936  0.0170
 2189TIP3    H127982   5.869   0.929   6.104  1.6140 -0.9576  0.7230
 2189TIP3    H227983   5.804   0.911   6.239  0.1112 -0.4076  0.1042
 2190TIP3   OH227984   1.686   4.052  12.887  0.2743 -0.9651 -0.3292
 2190TIP3    H127985   1.618   3.997  12.849  0.2506 -2.1508  1.3232
 2190TIP3    H227986   1.736   4.084  12.812 -0.2188 -2.6053 -1.3969
 2191TIP3   OH227987   4.707   4.107  11.032  0.3233  0.1798 -0.6549
 2191TIP3    H127988   4.708   4.051  10.954 -0.0103  0.8384 -1.1527
 2191TIP3    H227989   4.636   4.072  11.086  0.3927 -0.1318 -0.7623
 2192TIP3   OH227990   5.477   2.201   6.289 -0.0724  0.0292 -0.1802
 2192TIP3    H127991   5.433   2.268   6.341  0.5748 -0.1210  0.6006
 2192TIP3    H227992   5.473   2.123   6.344 -1.5362 -0.8183 -1.4258
 2193TIP3   OH227993   6.519   5.364  13.204 -0.0616 -0.1305  0.9567
 2193TIP3    H127994   6.475   5.310  13.269 -1.6749  2.0194  1.7814
 2193TIP3    H227995   6.570   5.302  13.152 -1.3437 -2.3417  2.1653
 2194TIP3   OH227996   5.792   1.351  16.090  0.3293  0.8022  0.2214
 2194TIP3    H127997   5.731   1.323  16.022  0.9877 -2.0925  0.6854
 2194TIP3    H227998   5.738   1.395  16.155 -0.7991  0.7279 -0.6391
 2195TIP3   OH227999   5.675   6.149   3.910  0.6308 -0.1738  0.6687
 2195TIP3    H128000   5.687   6.228   3.964 -0.1682 -0.2297  0.9441
 2195TIP3    H228001   5.667   6.182   3.821 -0.5176  0.1459  0.8707
 2196TIP3   OH228002   0.086   5.885   2.342  0.5296 -0.3864  0.3216
 2196TIP3    H128003   0.030   5.848   2.274 -2.3245  1.4502  1.4670
 2196TIP3    H228004   0.122   5.965   2.302  1.0496 -0.7172  0.1181
 2197TIP3   OH228005   5.685   3.199   5.684 -0.1285 -0.5864  1.1435
 2197TIP3    H128006   5.676   3.188   5.778  0.0128  0.3022  1.2679
 2197TIP3    H228007   5.776   3.229   5.672  0.5782 -2.7293  0.5284
 2198TIP3   OH228008   0.585   1.151  14.449  0.5433 -0.5152  0.0788
 2198TIP3    H128009   0.516   1.137  14.385 -1.3940  0.7976  1.7814
 2198TIP3    H228010   0.624   1.064  14.461  0.0142 -1.0571 -1.7536
 2199TIP3   OH228011   0.345   2.878  11.763  0.6253  0.3537  0.9940
 2199TIP3    H128012   0.318   2.865  11.672  0.4786 -2.2283  1.3459
 2199TIP3    H228013   0.440   2.867  11.762  0.6449  0.4960  1.1440
 2200TIP3   OH228014   5.888   1.732   0.037  0.6354 -0.1862 -0.6832
 2200TIP3    H128015   5.915   1.651   0.079 -0.3990 -0.1061  0.1978
 2200TIP3    H228016   5.854   1.786   0.109  0.5259  0.6832 -1.3700
 2201TIP3   OH228017   5.829   1.650  11.755 -0.2320 -0.2362 -0.0154
 2201TIP3    H128018   5.859   1.671  11.844 -0.2957 -1.0085  0.1911
 2201TIP3    H228019   5.838   1.555  11.748  0.1750 -0.1387 -0.9878
 2202TIP3   OH228020   1.502   4.041   2.169  0.0303 -0.0706  0.1235
 2202TIP3    H128021   1.476   3.974   2.106  1.1003 -0.0239 -0.3944
 2202TIP3    H228022   1.511   3.994   2.252 -2.0261 -0.0168  0.4393
 2203TIP3   OH228023   4.033   5.414  15.249 -0.6564  0.0725 -0.0613
 2203TIP3    H128024   4.049   5.394  15.157 -1.0111  0.7501 -0.2772
 2203TIP3    H228025   4.031   5.510  15.252 -1.9720  0.0419  0.4244
 2204TIP3   OH228026   2.128   2.087  13.776 -0.0866  0.3950 -0.9405
 2204TIP3    H128027   2.139   2.089  13.871  1.3860 -0.8463 -1.0346
 2204TIP3    H228028   2.053   2.145  13.759 -0.4240  0.5954  0.9618
 2205TIP3   OH228029   2.367   2.896  15.591 -0.1970  0.2747  0.6267
 2205TIP3    H128030   2.427   2.834  15.549 -1.0332  0.0179 -0.2324
 2205TIP3    H228031   2.294   2.905  15.529 -1.2693  0.2390  1.8241
 2206TIP3   OH228032   0.704   4.268   4.910  0.4345  0.5157  0.1621
 2206TIP3    H128033   0.772   4.256   4.976  0.3571  0.0770  0.1619
 2206TIP3    H228034   0.736   4.220   4.834 -0.8339 -1.4984  0.8274
 2207TIP3   OH228035   4.526   5.971  11.396 -0.2892  0.0975 -1.0670
 2207TIP3    H128036   4.479   5.889  11.410 -1.4045  1.0322  0.9457
 2207TIP3    H228037   4.472   6.038  11.437  1.5010  1.6082 -1.0366
 2208TIP3   OH228038   6.167   1.174   1.183 -0.2717  0.1778 -0.2528
 2208TIP3    H128039   6.134   1.239   1.245  0.6080  1.0964 -0.7194
 2208TIP3    H228040   6.197   1.225   1.108  1.4221 -0.6512 -0.1865
 2209TIP3   OH228041   5.020   2.817  12.104  0.3003 -0.3105  0.3499
 2209TIP3    H128042   5.087   2.885  12.111  0.9243 -0.9442  0.7414
 2209TIP3    H228043   5.016   2.796  12.011  0.3903 -0.0189  0.2805
 2210TIP3   OH228044   2.024   3.376   4.847 -0.6198  0.3453  0.2372
 2210TIP3    H128045   2.119   3.376   4.858 -0.4038  0.2179 -1.4533
 2210TIP3    H228046   2.010   3.390   4.754 -2.2528 -0.2989  0.3466
 2211TIP3   OH228047   5.185   6.000  15.400  0.4523  0.1159 -0.1250
 2211TIP3    H128048   5.181   5.995  15.305  1.1371 -0.2775 -0.1449
 2211TIP3    H228049   5.116   6.061  15.424  1.6446  1.9158 -1.0437
 2212TIP3   OH228050   3.437   5.468  15.981  0.9103 -0.0807 -0.2778
 2212TIP3    H128051   3.382   5.423  15.917 -1.1235  0.9946  0.6151
 2212TIP3    H228052   3.411   5.430  16.065 -0.0125  1.8663  0.3680
 2213TIP3   OH228053   5.675   3.771   4.669  1.0080  0.3785 -0.0045
 2213TIP3    H128054   5.696   3.755   4.577  1.1413  1.8381 -0.2529
 2213TIP3    H228055   5.742   3.724   4.718  0.9453 -0.3907 -0.6451
 2214TIP3   OH228056   0.654   6.518   1.392  0.5905  0.1697 -0.0385
 2214TIP3    H128057   0.742   6.487   1.373  0.7321  0.4186  0.2115
 2214TIP3    H228058   0.613   6.446   1.441  0.6774  0.0826 -0.0950
 2215TIP3   OH228059   4.371   2.286   2.718 -0.5172 -0.5553  0.1028
 2215TIP3    H128060   4.286   2.328   2.733 -0.4635 -0.3518 -0.1615
 2215TIP3    H228061   4.429   2.326   2.783 -1.0792 -2.1189  1.6319
 2216TIP3   OH228062   0.329   4.594  11.364  0.4121  0.6100  0.6750
 2216TIP3    H128063   0.318   4.682  11.398 -0.0581  2.0481 -2.7706
 2216TIP3    H228064   0.424   4.583  11.358  0.5047  1.9814 -1.1994
 2217TIP3   OH228065   3.146   0.014  11.513  0.6740 -0.2244  0.5300
 2217TIP3    H128066   3.164   0.080  11.446  0.6854 -1.2367 -0.4906
 2217TIP3    H228067   3.232  -0.018  11.539  0.6031 -1.5757 -0.7859
 2218TIP3   OH228068   0.092   4.520   2.173  0.2267 -0.2629 -0.5263
 2218TIP3    H128069   0.161   4.486   2.230  1.0178  2.0444  0.0028
 2218TIP3    H228070   0.020   4.457   2.183  1.4316 -1.5509  0.6337
 2219TIP3   OH228071   3.769   6.493   1.212 -0.6762  0.1542  0.0813
 2219TIP3    H128072   3.836   6.485   1.281  1.0411 -3.1421 -1.6942
 2219TIP3    H228073   3.753   6.587   1.206  4.1378  1.2904  0.4364
 2220TIP3   OH228074   4.746   5.981  11.029  0.1471 -0.3020 -0.3469
 2220TIP3    H128075   4.774   6.040  10.958  0.1012 -2.4528 -2.2870
 2220TIP3    H228076   4.663   6.017  11.059  0.8002  1.3959 -0.4516
 2221TIP3   OH228077   3.681   1.645   3.634  0.3222 -0.7184 -0.0804
 2221TIP3    H128078   3.606   1.585   3.638 -1.0264  0.9140  0.4404
 2221TIP3    H228079   3.724   1.636   3.719 -0.4844 -0.2500  0.3944
 2222TIP3   OH228080   4.946   6.711   3.737 -1.0298 -0.4679  0.1813
 2222TIP3    H128081   4.896   6.677   3.811  0.7046  0.8455  2.0465
 2222TIP3    H228082   4.948   6.806   3.751  0.2648 -0.3031 -0.9241
 2223TIP3   OH228083   3.409   5.705   4.919  0.5553 -0.1040 -0.1398
 2223TIP3    H128084   3.357   5.651   4.979 -0.3345  0.2062 -0.6020
 2223TIP3    H228085   3.458   5.765   4.976 -1.0894  0.9091  0.2887
 2224TIP3   OH228086   0.487   2.452  11.939 -0.0123  0.2885  0.1221
 2224TIP3    H128087   0.421   2.411  11.882  0.0156  2.1504 -1.3700
 2224TIP3    H228088   0.525   2.379  11.988 -0.9380 -1.2499 -1.3184
 2225TIP3   OH228089   1.428   5.539  14.961 -0.2143  0.0794 -0.3913
 2225TIP3    H128090   1.357   5.524  14.898 -3.1136  1.5841  2.2394
 2225TIP3    H228091   1.425   5.463  15.019  0.6485 -0.0407 -0.4883
 2226TIP3   OH228092   1.875   2.515   2.391 -0.0019  0.0966 -0.5367
 2226TIP3    H128093   1.939   2.585   2.386  0.1292 -0.0378 -0.7670
 2226TIP3    H228094   1.822   2.524   2.311  0.5736 -0.5960 -1.0131
 2227TIP3   OH228095   6.660   0.765  16.074 -0.0198  0.1967  0.4884
 2227TIP3    H128096   6.676   0.798  16.162 -0.8244 -1.1516  1.1722
 2227TIP3    H228097   6.566   0.780  16.059 -0.2088 -0.9453  0.4717
 2228TIP3   OH228098   3.920   6.233   1.578  0.0778  0.0348  0.2767
 2228TIP3    H128099   3.839   6.259   1.622 -1.3418 -0.7330 -1.6707
 2228TIP3    H228100   3.977   6.309   1.583 -0.6700  0.5272  1.8795
 2229TIP3   OH228101   4.345   0.593   1.901 -0.3539  0.4757  0.5991
 2229TIP3    H128102   4.421   0.552   1.860  0.1980 -0.4303  2.3871
 2229TIP3    H228103   4.361   0.687   1.896  0.2482  0.3306 -0.1889
 2230TIP3   OH228104   0.737   5.149  15.808 -0.4445  0.0223 -0.4040
 2230TIP3    H128105   0.653   5.104  15.817 -0.2731 -0.0537  1.0035
 2230TIP3    H228106   0.716   5.241  15.822 -0.7476  0.4302 -2.9940
 2231TIP3   OH228107   1.004   3.343   2.878 -0.0454 -0.3923  0.5099
 2231TIP3    H128108   1.076   3.372   2.933  0.7234 -1.8342  0.3226
 2231TIP3    H228109   0.977   3.421   2.830  1.4309  0.1670  0.5522
 2232TIP3   OH228110   2.630   0.495   4.291  0.5836  0.2598 -0.1768
 2232TIP3    H128111   2.615   0.432   4.220 -2.6325 -0.6501  1.1263
 2232TIP3    H228112   2.550   0.547   4.294  2.0822  2.6704  0.5704
 2233TIP3   OH228113   1.404   6.108  12.326  0.5732 -0.1643  0.3559
 2233TIP3    H128114   1.497   6.095  12.344  0.7679 -0.0979 -0.5329
 2233TIP3    H228115   1.365   6.021  12.334  0.7016 -0.1881  0.7469
 2234TIP3   OH228116   2.520   3.270   2.291  0.1798  0.3845 -0.1414
 2234TIP3    H128117   2.609   3.240   2.303 -0.0164  0.4022  1.7813
 2234TIP3    H228118   2.529   3.362   2.265  0.7100 -0.0380 -1.5307
 2235TIP3   OH228119   0.940   1.419  15.845  0.2827 -0.3951 -0.9062
 2235TIP3    H128120   0.885   1.375  15.909  0.4337 -0.7191 -0.9967
 2235TIP3    H228121   0.926   1.513  15.861 -0.7188 -0.4660 -1.2832
 2236TIP3   OH228122   6.201   3.497   5.097 -0.8464 -0.7549  0.1550
 2236TIP3    H128123   6.219   3.429   5.162 -3.0954 -1.5701  0.0362
 2236TIP3    H228124   6.276   3.494   5.038  0.3534 -1.2941  1.6335
 2237TIP3   OH228125   2.356   4.610  16.539  0.1176 -0.2614  0.2184
 2237TIP3    H128126   2.301   4.551  16.487 -2.2651  2.6550 -0.8602
 2237TIP3    H228127   2.418   4.648  16.477 -0.0102  0.1910  0.3632
 2238TIP3   OH228128   4.352   1.219   2.555  0.0442 -0.1252 -0.4579
 2238TIP3    H128129   4.325   1.288   2.494 -2.0186 -1.0007 -0.6248
 2238TIP3    H228130   4.271   1.193   2.598  1.2496 -0.4537  1.7202
 2239TIP3   OH228131   1.666   3.630   2.486  0.4209 -0.2066  0.4301
 2239TIP3    H128132   1.747   3.663   2.445  0.8704 -2.0108 -0.2320
 2239TIP3    H228133   1.694   3.553   2.534 -0.8060 -0.4310  0.8112
 2240TIP3   OH228134   5.713   5.385  12.289 -0.0198 -0.1036 -0.1761
 2240TIP3    H128135   5.673   5.434  12.360  0.7627 -0.5889  0.6188
 2240TIP3    H228136   5.662   5.409  12.211 -1.4671 -0.2794  0.6934
 2241TIP3   OH228137   3.003   5.519  12.900  0.5980 -0.6516  0.1437
 2241TIP3    H128138   2.922   5.567  12.886  0.8191  1.1905  3.9435
 2241TIP3    H228139   2.975   5.431  12.924 -0.2885 -0.1954  0.8337
 2242TIP3   OH228140   5.751   3.130   2.180 -0.0256 -0.6757  0.0012
 2242TIP3    H128141   5.838   3.133   2.141  0.1417  1.1076  0.4269
 2242TIP3    H228142   5.724   3.222   2.185 -1.7648 -1.1720  0.2546
 2243TIP3   OH228143   5.264   6.145   5.005 -0.4698  0.2096 -0.3117
 2243TIP3    H128144   5.296   6.233   4.984 -1.8839  0.9617  0.5511
 2243TIP3    H228145   5.337   6.088   4.981  0.8196  1.6746 -0.1033
 2244TIP3   OH228146   2.357   4.406   3.648  0.0053 -0.0205 -0.4349
 2244TIP3    H128147   2.271   4.364   3.653  0.0026  0.1538  1.8450
 2244TIP3    H228148   2.386   4.414   3.739  2.4070  0.0240 -1.1304
 2245TIP3   OH228149   4.262   5.618  13.975  0.1882 -0.2564  0.5343
 2245TIP3    H128150   4.222   5.531  13.982  0.1322 -0.2313  0.5250
 2245TIP3    H228151   4.353   5.600  13.955  0.3898 -0.3420  1.4785
 2246TIP3   OH228152   0.076   5.583   4.145 -0.2032  0.5318  0.0254
 2246TIP3    H128153  -0.017   5.567   4.162 -0.3748  2.3761  1.0542
 2246TIP3    H228154   0.077   5.639   4.068  0.1540 -0.6993 -0.8848
 2247TIP3   OH228155   4.088   1.378   3.026  0.0795 -0.0696  0.3313
 2247TIP3    H128156   4.007   1.327   3.018  0.7845 -1.2789  0.7382
 2247TIP3    H228157   4.151   1.318   3.066  1.1870  0.8508  0.0222
 2248TIP3   OH228158   3.708   1.618  14.541  0.2396  0.3392 -0.1380
 2248TIP3    H128159   3.731   1.535  14.499 -2.1546 -0.7364  0.5033
 2248TIP3    H228160   3.617   1.607  14.567  0.5209  2.3328  2.0251
 2249TIP3   OH228161   2.035   2.658   1.024 -0.3223  0.7030  0.0924
 2249TIP3    H128162   2.109   2.628   1.077  0.7733 -0.3492 -1.9011
 2249TIP3    H228163   1.998   2.731   1.073 -0.1083 -0.8825  2.8180
 2250TIP3   OH228164   4.213   0.268  13.564  0.3634  0.2635  0.7948
 2250TIP3    H128165   4.280   0.313  13.615  1.6484  0.9865 -1.3771
 2250TIP3    H228166   4.261   0.232  13.489 -1.3745 -0.9801  0.2251
 2251TIP3   OH228167   1.388   3.451  13.128  0.5887 -0.2614 -0.2122
 2251TIP3    H128168   1.310   3.395  13.135  0.3911 -0.1500 -1.2717
 2251TIP3    H228169   1.359   3.536  13.160  1.5849 -1.2805  3.8939
 2252TIP3   OH228170   0.185   2.447  13.597 -0.5915 -0.2146 -0.6021
 2252TIP3    H128171   0.104   2.486  13.562 -0.2992  2.3247  1.2200
 2252TIP3    H228172   0.155   2.393  13.670 -0.8385 -2.0981 -2.0102
 2253TIP3   OH228173   4.379   1.006  16.205  0.1027  0.1631  0.0748
 2253TIP3    H128174   4.331   1.068  16.260 -0.4541  0.0572 -0.2919
 2253TIP3    H228175   4.357   1.032  16.115 -0.3806 -0.7622 -0.0798
 2254TIP3   OH228176   5.675   0.786  10.821 -0.0562  0.2163  0.1903
 2254TIP3    H128177   5.612   0.751  10.758 -0.8947  0.7387  0.7257
 2254TIP3    H228178   5.757   0.741  10.800 -0.8707 -1.3552  0.2269
 2255TIP3   OH228179   2.749   5.799  16.194 -0.2687 -0.2292 -0.6873
 2255TIP3    H128180   2.664   5.805  16.238  0.3173 -0.3703  0.4839
 2255TIP3    H228181   2.795   5.729  16.239  1.0836  0.8904 -0.2412
 2256TIP3   OH228182   0.516   0.516  11.505 -0.4199  0.1210 -0.0271
 2256TIP3    H128183   0.514   0.482  11.595 -1.7644  1.5333  0.5263
 2256TIP3    H228184   0.563   0.450  11.455 -0.9709 -1.4315  1.4303
 2257TIP3   OH228185   6.295   3.671   3.426  0.3560 -0.5048  0.1941
 2257TIP3    H128186   6.247   3.588   3.425 -0.7188  0.0160 -2.4919
 2257TIP3    H228187   6.257   3.721   3.498 -1.6688 -0.9578 -0.5009
 2258TIP3   OH228188   5.611   3.139   3.526 -0.3258 -0.1887 -0.0314
 2258TIP3    H128189   5.549   3.071   3.551  0.2128 -0.1148  1.6136
 2258TIP3    H228190   5.694   3.092   3.514 -0.1426  0.0570  0.2640
 2259TIP3   OH228191   3.871   1.840  15.065  0.7483  0.4245 -0.4564
 2259TIP3    H128192   3.876   1.891  15.146  0.7948  1.7270 -1.2544
 2259TIP3    H228193   3.781   1.807  15.064 -0.2085  2.8025 -1.2286
 2260TIP3   OH228194   1.565   1.100   2.632  0.1913 -0.2509 -0.0633
 2260TIP3    H128195   1.634   1.166   2.637  0.0932 -0.2376  1.2324
 2260TIP3    H228196   1.522   1.103   2.717 -0.1228 -1.6567 -0.1581
 2261TIP3   OH228197   5.992   2.416  14.193  0.7130 -0.0229 -0.0196
 2261TIP3    H128198   5.972   2.325  14.218  0.7740 -0.0921 -0.2155
 2261TIP3    H228199   6.028   2.455  14.272  0.9586 -0.2548 -0.0126
 2262TIP3   OH228200   1.208   6.218   3.886  0.0008 -0.5722  0.0203
 2262TIP3    H128201   1.268   6.277   3.840 -0.4773  0.0304  0.1568
 2262TIP3    H228202   1.216   6.135   3.839 -0.6233  0.0890 -1.3063
 2263TIP3   OH228203   1.162   5.707   6.291  0.0196  1.1249 -0.1289
 2263TIP3    H128204   1.195   5.651   6.220 -1.0890  0.0579  0.1666
 2263TIP3    H228205   1.130   5.785   6.247 -0.9483  0.3467 -0.8737
 2264TIP3   OH228206   1.708   2.810   1.755 -0.1106  0.2330  0.0942
 2264TIP3    H128207   1.720   2.900   1.786 -1.4806  0.3376  0.4063
 2264TIP3    H228208   1.697   2.758   1.835  0.1991 -0.1384 -0.0993
 2265TIP3   OH228209   3.301   0.711   2.371 -0.4952 -0.3962  0.0440
 2265TIP3    H128210   3.388   0.709   2.332 -0.6150 -2.6536 -0.2724
 2265TIP3    H228211   3.246   0.750   2.303  0.2916  1.4358  0.4088
 2266TIP3   OH228212   0.843   0.953   3.357  0.2747 -0.3625  0.4080
 2266TIP3    H128213   0.777   0.992   3.299  0.2022 -0.6539  0.2922
 2266TIP3    H228214   0.792   0.906   3.423  0.3638 -0.3952  0.4540
 2267TIP3   OH228215   2.511   2.622  12.440  0.4582 -0.4325  0.1399
 2267TIP3    H128216   2.579   2.556  12.453  2.0573  0.9974 -0.4223
 2267TIP3    H228217   2.488   2.616  12.347  1.5673  0.5926 -0.2373
 2268TIP3   OH228218   4.062   4.635   2.492 -0.7229 -0.1300 -0.4610
 2268TIP3    H128219   4.019   4.555   2.461  0.0624 -0.2540 -1.2623
 2268TIP3    H228220   4.155   4.613   2.494 -0.3502  1.1446 -1.9444
 2269TIP3   OH228221   5.123   2.446   5.737  0.1577 -0.4597  0.0845
 2269TIP3    H128222   5.178   2.482   5.668  0.0192  0.9632  0.6735
 2269TIP3    H228223   5.049   2.406   5.690  0.2516  0.1513 -0.6038
 2270TIP3   OH228224   4.902   2.002   2.680  0.2213  0.3309 -0.3377
 2270TIP3    H128225   4.965   1.932   2.699  1.5194  1.4072 -0.5294
 2270TIP3    H228226   4.903   2.057   2.758 -0.3920  0.4283 -0.3966
 2271TIP3   OH228227   0.421   4.249   4.997 -0.1931 -0.9050 -0.4551
 2271TIP3    H128228   0.516   4.251   5.010 -0.1702  1.0800 -0.6011
 2271TIP3    H228229   0.388   4.196   5.069  1.0881 -2.7770 -1.1526
 2272TIP3   OH228230   1.847   3.413   0.725 -0.3924  0.2734  0.3835
 2272TIP3    H128231   1.790   3.487   0.747  0.4517  1.4791 -1.2349
 2272TIP3    H228232   1.936   3.447   0.735  0.0282 -0.0254 -1.6861
 2273TIP3   OH228233   5.371   0.919  16.132 -0.2114  0.5331 -0.1683
 2273TIP3    H128234   5.353   0.957  16.046 -0.5187 -1.0168 -0.8208
 2273TIP3    H228235   5.424   0.985  16.176 -0.5711  1.6304 -1.3048
 2274TIP3   OH228236   5.105   2.680   1.628  0.5335 -0.4130 -0.1165
 2274TIP3    H128237   5.061   2.763   1.646  0.4029 -0.4039 -0.4737
 2274TIP3    H228238   5.163   2.667   1.703 -1.1730 -1.1807  1.1464
 2275TIP3   OH228239   2.744   5.205  16.745  0.0084 -0.0343  0.1663
 2275TIP3    H128240   2.749   5.264  16.820 -0.6742 -1.1948  1.1628
 2275TIP3    H228241   2.764   5.119  16.782  1.0484 -0.4336 -1.2566
 2276TIP3   OH228242   3.701   2.591   0.174 -0.1715 -0.3483  0.2064
 2276TIP3    H128243   3.728   2.672   0.129 -0.5933 -0.4587 -0.2581
 2276TIP3    H228244   3.607   2.585   0.156  0.0683 -1.5615 -0.7605
 2277TIP3   OH228245   5.708   0.017  13.546 -0.0020  0.4858 -0.2572
 2277TIP3    H128246   5.794   0.023  13.587 -0.4027  1.3145  0.5010
 2277TIP3    H228247   5.718  -0.050  13.478  1.0775  0.1619  0.2034
 2278TIP3   OH228248   4.099   0.446   3.442 -0.2022 -0.4214 -0.0220
 2278TIP3    H128249   4.096   0.542   3.439  1.2303 -0.3158  1.2397
 2278TIP3    H228250   4.038   0.419   3.373  0.1853  1.3971 -1.1608
 2279TIP3   OH228251   4.443   4.657  16.678 -0.5500 -0.0029 -0.4965
 2279TIP3    H128252   4.436   4.690  16.767  0.4613  0.9784 -0.7503
 2279TIP3    H228253   4.490   4.726  16.631  1.4252 -1.6862 -1.1330
 2280TIP3   OH228254   4.791   1.429  14.466  0.0183 -0.0841  0.1078
 2280TIP3    H128255   4.740   1.391  14.538  0.0564  1.5430  1.0346
 2280TIP3    H228256   4.877   1.448  14.504  0.5445 -0.6175 -0.7976
 2281TIP3   OH228257   0.035   6.710  15.920  0.0870  0.1811 -0.7122
 2281TIP3    H128258  -0.045   6.699  15.971  0.8542 -1.6554  0.1731
 2281TIP3    H228259   0.052   6.805  15.922 -0.7101  0.3195  1.1945
 2282TIP3   OH228260   3.741   1.603  11.547  0.1364  0.0623 -0.6510
 2282TIP3    H128261   3.834   1.592  11.571 -0.2435 -0.5031  0.6645
 2282TIP3    H228262   3.727   1.697  11.547  1.2761  0.3222 -3.2719
 2283TIP3   OH228263   5.704   3.961   3.249  0.4022  0.2101 -0.5783
 2283TIP3    H128264   5.728   3.909   3.326 -0.0682  0.7143 -0.0793
 2283TIP3    H228265   5.784   3.965   3.197  0.7048 -0.2035 -0.1529
 2284TIP3   OH228266   0.067   1.305   1.178 -0.2515  0.3920  0.7176
 2284TIP3    H128267   0.023   1.288   1.095  1.2578 -1.6918  0.2520
 2284TIP3    H228268   0.011   1.368   1.223 -3.7056 -2.0018  0.1937
 2285TIP3   OH228269   0.760   5.088  14.673  0.0034 -0.7370  0.2096
 2285TIP3    H128270   0.773   5.136  14.592 -0.2794  0.1173  0.6585
 2285TIP3    H228271   0.670   5.110  14.699  0.0655 -1.0686  0.7133
 2286TIP3   OH228272   5.837   3.984   5.153  0.7696 -0.1482 -0.7467
 2286TIP3    H128273   5.787   4.065   5.158  0.6031 -0.2316 -1.0553
 2286TIP3    H228274   5.926   4.010   5.177  0.7550  0.1626 -1.0139
 2287TIP3   OH228275   2.671   2.873   4.371  0.6585  0.4173 -0.3282
 2287TIP3    H128276   2.603   2.806   4.379  0.5743  0.6305  1.0707
 2287TIP3    H228277   2.659   2.911   4.284 -0.4367 -0.1467 -0.4341
 2288TIP3   OH228278   4.120   2.654  13.798  0.1804  0.3297  0.0242
 2288TIP3    H128279   4.039   2.649  13.746  0.8991 -1.5970 -1.0175
 2288TIP3    H228280   4.099   2.612  13.881 -0.8535  3.0545  1.2752
 2289TIP3   OH228281   0.395   3.135   2.930 -0.1530 -0.0399 -0.3495
 2289TIP3    H128282   0.460   3.205   2.931 -0.6953  0.5868 -2.9120
 2289TIP3    H228283   0.321   3.170   2.979  0.5886  0.0923  0.7021
 2290TIP3   OH228284   4.973   0.601  16.461 -0.3193 -0.3739  0.3940
 2290TIP3    H128285   4.959   0.563  16.547  0.9050  2.5194  2.0403
 2290TIP3    H228286   5.068   0.614  16.456 -0.3971 -0.2215 -1.2810
 2291TIP3   OH228287   0.937   2.087   3.885  0.3026 -0.3568 -0.8542
 2291TIP3    H128288   1.006   2.021   3.882 -0.4699 -1.2630  0.3018
 2291TIP3    H228289   0.984   2.170   3.902  1.1711 -0.8002 -1.0229
 2292TIP3   OH228290   2.816   6.423   0.102  0.8280 -0.3707 -0.1545
 2292TIP3    H128291   2.833   6.407   0.195 -0.6859 -2.7956 -0.2131
 2292TIP3    H228292   2.903   6.426   0.062  1.4618 -0.3024  1.1749
 2293TIP3   OH228293   6.234   3.224  14.726  0.2527  0.2034 -0.5517
 2293TIP3    H128294   6.205   3.137  14.698 -0.1765  0.3045 -0.4251
 2293TIP3    H228295   6.164   3.283  14.698 -0.7402  0.1776  1.6657
 2294TIP3   OH228296   1.222   5.391   4.165 -0.4185 -0.4843  0.5150
 2294TIP3    H128297   1.132   5.421   4.180  0.4282  1.8966  1.2567
 2294TIP3    H228298   1.276   5.446   4.221  1.4557 -2.7640  1.1487
 2295TIP3   OH228299   5.535   3.888  14.095  0.4684  0.2731 -0.5024
 2295TIP3    H128300   5.470   3.908  14.028  2.1292  0.1754 -2.2277
 2295TIP3    H228301   5.530   3.961  14.157 -0.8318  0.5732 -0.9371
 2296TIP3   OH228302   1.232   5.376  12.908  0.1837 -0.3613  0.4734
 2296TIP3    H128303   1.185   5.449  12.948 -1.6719 -0.7016 -0.9875
 2296TIP3    H228304   1.173   5.301  12.917  1.7304 -1.5571  1.2438
 2297TIP3   OH228305   4.709   5.073  15.077 -0.1415 -0.3243  0.0912
 2297TIP3    H128306   4.658   5.087  14.998 -1.8302 -0.0913  1.1757
 2297TIP3    H228307   4.701   5.155  15.126  0.3279 -0.6882  0.7954
 2298TIP3   OH228308   0.483   0.969  11.179  0.4370 -0.3869 -0.0219
 2298TIP3    H128309   0.413   0.977  11.114 -0.4909  0.6680  1.0801
 2298TIP3    H228310   0.564   0.978  11.127 -0.2907  1.0794 -0.9853
 2299TIP3   OH228311   0.737   1.568  15.306 -0.0823 -0.3459 -0.5805
 2299TIP3    H128312   0.817   1.518  15.323  0.3171 -0.0824 -1.6289
 2299TIP3    H228313   0.732   1.575  15.211 -1.3206 -0.2932 -0.5355
 2300TIP3   OH228314   2.999   3.629  15.174 -0.4707 -0.3482  0.5215
 2300TIP3    H128315   3.051   3.551  15.156  0.1909 -0.1040  1.3427
 2300TIP3    H228316   2.925   3.596  15.226 -0.7513 -0.5785 -0.0135
 2301TIP3   OH228317   6.401   5.784   4.020  0.1902 -0.0893  0.0236
 2301TIP3    H128318   6.386   5.749   3.932  0.1830  0.1578 -0.0741
 2301TIP3    H228319   6.415   5.706   4.075 -0.8479 -0.3072 -0.0001
 2302TIP3   OH228320   0.167   5.334   3.989 -0.1098  0.1873  0.0735
 2302TIP3    H128321   0.109   5.361   4.060 -0.5693  1.4640 -0.7410
 2302TIP3    H228322   0.254   5.360   4.018 -0.3793  1.3621 -0.0924
 2303TIP3   OH228323   0.865   2.460   5.522  0.1051  0.1952  0.2569
 2303TIP3    H128324   0.942   2.406   5.502  0.4000 -0.4208  2.7343
 2303TIP3    H228325   0.791   2.401   5.512  0.2092  0.0038  0.6095
 2304TIP3   OH228326   3.955   3.359  12.031  0.0809 -0.6643 -0.2031
 2304TIP3    H128327   3.879   3.399  12.074  0.1832 -1.4923  0.7898
 2304TIP3    H228328   3.928   3.347  11.940 -0.0637  1.3452 -0.4638
 2305TIP3   OH228329   2.272   4.461   4.398  0.5159 -0.8570 -0.8112
 2305TIP3    H128330   2.274   4.372   4.361 -1.4683 -0.5087 -1.8475
 2305TIP3    H228331   2.283   4.447   4.492  0.1188 -2.2176 -0.9374
 2306TIP3   OH228332   4.736   1.489   5.884 -0.3609  0.0227  0.4518
 2306TIP3    H128333   4.770   1.514   5.798 -2.7973 -1.9162 -1.2140
 2306TIP3    H228334   4.811   1.451   5.930  0.7116 -0.0624 -1.2995
 2307TIP3   OH228335   2.649   5.835   3.810 -0.0567  0.3399 -0.0222
 2307TIP3    H128336   2.560   5.837   3.776  0.0946 -1.5380 -0.6721
 2307TIP3    H228337   2.691   5.762   3.763  0.6612 -1.3334  2.9435
 2308TIP3   OH228338   3.113   0.491   1.011  0.3126 -0.1608  0.2403
 2308TIP3    H128339   3.203   0.511   0.988 -0.3963  1.0529 -1.6859
 2308TIP3    H228340   3.120   0.426   1.080  2.6510 -0.4190 -0.1677
 2309TIP3   OH228341   1.260   2.042   3.274  0.0093  0.2889  0.7387
 2309TIP3    H128342   1.355   2.055   3.284 -0.0619  1.5337 -0.0408
 2309TIP3    H228343   1.220   2.107   3.331 -0.3632  1.1778 -0.4958
 2310TIP3   OH228344   2.092   3.716   0.960  0.1139  0.5759  0.1842
 2310TIP3    H128345   2.149   3.767   0.902  0.5731 -0.7642 -0.5914
 2310TIP3    H228346   2.106   3.753   1.047 -1.1298  3.1295 -0.6016
 2311TIP3   OH228347   5.653   5.156  13.528 -0.4307 -0.0374 -0.2712
 2311TIP3    H128348   5.624   5.141  13.618  0.8614 -3.4331 -0.2763
 2311TIP3    H228349   5.741   5.192  13.537  0.4957 -2.2008 -0.0497
 2312TIP3   OH228350   0.553   2.033   2.854  0.5372  0.5073 -0.3047
 2312TIP3    H128351   0.513   2.053   2.770  0.5786  0.9582 -0.2161
 2312TIP3    H228352   0.498   1.963   2.890  0.4079  0.4458 -0.6162
 2313TIP3   OH228353   4.307   3.143  14.908 -0.3714 -0.1118  0.2270
 2313TIP3    H128354   4.317   3.214  14.971  0.9889  0.4746 -0.6267
 2313TIP3    H228355   4.395   3.125  14.876 -0.8322 -1.4249 -0.4167
 2314TIP3   OH228356   5.474   1.597  15.995 -0.0092  0.1256  0.1531
 2314TIP3    H128357   5.403   1.533  15.987  0.6537 -0.5358 -0.7002
 2314TIP3    H228358   5.501   1.614  15.904  1.3832 -0.1792  0.4853
 2315TIP3   OH228359   6.115   1.951   1.667  0.2267  0.2635 -0.3561
 2315TIP3    H128360   6.067   1.975   1.587 -0.8357 -1.0521 -0.1605
 2315TIP3    H228361   6.095   2.020   1.729 -0.8941  0.0936 -0.5036
 2316TIP3   OH228362   4.957   2.966   4.412 -1.1339  0.2926 -0.4729
 2316TIP3    H128363   4.919   2.931   4.332  0.5212  0.8973 -1.5644
 2316TIP3    H228364   5.035   2.913   4.427 -1.6003 -0.0509  0.9721
 2317TIP3   OH228365   0.271   3.121  10.928  0.1131  0.4137 -0.0957
 2317TIP3    H128366   0.197   3.173  10.959 -0.1462  0.9142 -1.4439
 2317TIP3    H228367   0.339   3.187  10.910  0.3362  0.1231 -0.3188
 2318TIP3   OH228368   0.188   5.931  13.566 -0.1070  0.3269 -0.1487
 2318TIP3    H128369   0.125   5.863  13.586 -0.2782  0.0952 -1.3640
 2318TIP3    H228370   0.246   5.892  13.500  0.0593  1.1991 -0.5383
 2319TIP3   OH228371   0.905   0.061   1.648 -0.5568  0.0231  0.5869
 2319TIP3    H128372   0.821   0.075   1.692 -1.1686 -0.7106 -0.3074
 2319TIP3    H228373   0.884   0.008   1.571  0.7822 -0.4686  0.5261
 2320TIP3   OH228374   4.446   1.281  12.491 -0.5706 -0.0024  0.3908
 2320TIP3    H128375   4.502   1.249  12.421 -0.7430 -0.1508  0.3179
 2320TIP3    H228376   4.357   1.258  12.463 -1.0286  3.0697 -1.0717
 2321TIP3   OH228377   5.779   5.437  15.202  0.0687 -0.3687  0.1437
 2321TIP3    H128378   5.694   5.471  15.174  0.6235  0.9472 -0.0142
 2321TIP3    H228379   5.776   5.343  15.182 -0.7592 -0.0513 -1.3152
 2322TIP3   OH228380   3.182   0.488   0.728 -0.6059  0.0734 -0.1990
 2322TIP3    H128381   3.202   0.490   0.822 -0.1132  2.2282 -0.3121
 2322TIP3    H228382   3.091   0.457   0.724 -0.8492  0.5570  1.0357
 2323TIP3   OH228383   2.692   5.266   3.706 -0.6943 -0.3665 -0.3517
 2323TIP3    H128384   2.602   5.243   3.683 -1.3978 -0.3289  2.1315
 2323TIP3    H228385   2.707   5.225   3.791  1.5405 -0.0700 -0.5202
 2324TIP3   OH228386   4.716   1.414  10.523  0.1244 -0.1613  0.7776
 2324TIP3    H128387   4.764   1.496  10.517  1.4706 -0.9911 -0.6110
 2324TIP3    H228388   4.624   1.440  10.529  0.1727  1.4753 -3.1085
 2325TIP3   OH228389   3.246   0.722  12.746 -0.7153  0.5382  0.0053
 2325TIP3    H128390   3.202   0.652  12.698 -2.3675  0.1799  1.9072
 2325TIP3    H228391   3.255   0.687  12.835  0.5744  1.8611  0.4242
 2326TIP3   OH228392   4.475   1.190   3.824 -0.4887  0.4305  0.2035
 2326TIP3    H128393   4.478   1.100   3.856 -0.5870  0.8309  1.4082
 2326TIP3    H228394   4.531   1.190   3.747 -0.6562 -0.7065  0.0589
 2327TIP3   OH228395   0.706   5.904   4.308 -0.9762 -0.4506 -0.8211
 2327TIP3    H128396   0.629   5.849   4.289 -1.8847  0.4753  0.0600
 2327TIP3    H228397   0.696   5.980   4.251 -1.9150  0.7126  0.8047
 2328TIP3   OH228398   2.265   3.886   2.613  0.5241 -0.6091 -0.1841
 2328TIP3    H128399   2.180   3.924   2.638  0.8479 -0.0663  0.1076
 2328TIP3    H228400   2.242   3.807   2.564 -0.1848  0.3662 -1.4996
 2329TIP3   OH228401   2.372   0.766  14.538 -0.0524  0.2079 -0.9701
 2329TIP3    H128402   2.305   0.715  14.582  0.8352 -2.2319 -2.2253
 2329TIP3    H228403   2.427   0.800  14.608 -0.3521 -1.1007 -0.0694
 2330TIP3   OH228404   5.402   0.197   5.105 -0.3537  0.5954  0.4397
 2330TIP3    H128405   5.494   0.187   5.080 -0.2642  1.0412  0.5633
 2330TIP3    H228406   5.352   0.169   5.029 -0.1585 -1.3183  0.9628
 2331TIP3   OH228407   2.755   5.213   5.007  0.7026  0.1421  0.8716
 2331TIP3    H128408   2.771   5.176   4.920 -1.6548 -0.4991  0.6324
 2331TIP3    H228409   2.734   5.137   5.062  0.3426  0.7199  1.5481
 2332TIP3   OH228410   2.136   0.315  12.533  0.1515 -0.0378 -0.1021
 2332TIP3    H128411   2.070   0.303  12.600  1.7361 -2.6042  1.1486
 2332TIP3    H228412   2.087   0.344  12.456 -1.8998  1.6217  1.7004
 2333TIP3   OH228413   4.340   5.362  16.769  1.0417  0.1344 -0.3293
 2333TIP3    H128414   4.348   5.341  16.862 -0.0128  0.4392 -0.1558
 2333TIP3    H228415   4.248   5.385  16.758  0.7588 -1.5158 -1.7835
 2334TIP3   OH228416   5.538   1.020   0.122  0.0157 -0.3349 -0.2098
 2334TIP3    H128417   5.503   0.952   0.179 -0.8972  1.9273  2.1452
 2334TIP3    H228418   5.569   1.088   0.182  1.8447  0.9149 -2.4075
 2335TIP3   OH228419   1.289   5.033   5.517 -0.0418  0.0855  0.2429
 2335TIP3    H128420   1.201   5.069   5.525  0.1680  0.7973 -0.4732
 2335TIP3    H228421   1.278   4.939   5.530 -0.6355  0.3609  1.9331
 2336TIP3   OH228422   4.686   2.248  10.831  0.5814  0.1381  0.4053
 2336TIP3    H128423   4.621   2.318  10.838  0.2043  0.0074 -1.3186
 2336TIP3    H228424   4.677   2.216  10.741  3.1899  0.2553  0.0228
 2337TIP3   OH228425   4.208   2.694  16.997  0.0413 -0.0819 -0.0132
 2337TIP3    H128426   4.222   2.761  16.930 -0.1582 -0.7212 -0.7116
 2337TIP3    H228427   4.113   2.681  16.999  0.0877 -0.4219  0.0345
 2338TIP3   OH228428   3.771   4.483   7.048  0.0820 -0.1232  1.0614
 2338TIP3    H128429   3.793   4.569   7.084  0.1950 -0.1740  1.1153
 2338TIP3    H228430   3.676   4.485   7.038  0.1686  0.3193  0.2614
 2339TIP3   OH228431   6.417   1.108  13.850  0.4335  0.7252 -0.7133
 2339TIP3    H128432   6.332   1.066  13.861  0.6134  0.5576  0.0747
 2339TIP3    H228433   6.397   1.193  13.811 -0.0013  0.2591 -1.5471
 2340TIP3   OH228434   4.453   3.191   5.167  0.1783 -0.4668  0.4578
 2340TIP3    H128435   4.504   3.111   5.158  1.3678  0.3735 -0.6173
 2340TIP3    H228436   4.505   3.245   5.227 -1.0118 -0.7784  1.8181
 2341TIP3   OH228437   2.161   4.508   5.570  0.0171 -0.2266  0.2917
 2341TIP3    H128438   2.184   4.426   5.613  1.6994  0.0691  0.0520
 2341TIP3    H228439   2.181   4.493   5.478  0.7088  0.5494  0.3017
 2342TIP3   OH228440   2.360   5.183  11.372 -0.4095  0.1373  0.5286
 2342TIP3    H128441   2.358   5.102  11.423  0.7134  0.0565  0.4654
 2342TIP3    H228442   2.277   5.183  11.325 -1.4489  0.1769  2.2700
 2343TIP3   OH228443   5.414   4.948   0.549  0.3871  0.0448  0.0621
 2343TIP3    H128444   5.372   5.025   0.587  0.3803  1.3894 -2.5041
 2343TIP3    H228445   5.501   4.947   0.588  0.1190  0.8816  0.7177
 2344TIP3   OH228446   0.714   2.299  13.497 -0.1792 -0.2908 -0.1519
 2344TIP3    H128447   0.676   2.382  13.467  0.8960  0.5547  0.7395
 2344TIP3    H228448   0.712   2.305  13.593 -0.3832 -1.4469 -0.0716
 2345TIP3   OH228449   0.463   5.699  16.743 -0.3767  0.4200 -0.0854
 2345TIP3    H128450   0.423   5.623  16.785 -0.8449  0.2171 -0.8858
 2345TIP3    H228451   0.445   5.772  16.803 -1.0841  0.1484  0.0340
 2346TIP3   OH228452   6.093   0.708  16.996 -0.3928  0.0760  0.4779
 2346TIP3    H128453   6.025   0.645  16.973  0.4325 -1.6580  2.4997
 2346TIP3    H228454   6.128   0.677  17.079  2.9366  0.8205 -0.4876
 2347TIP3   OH228455   0.492   1.258  15.100  0.6232 -0.0297 -0.1619
 2347TIP3    H128456   0.586   1.261  15.117  0.8908  0.4215 -1.5492
 2347TIP3    H228457   0.457   1.197  15.165  1.2468  2.7447  3.0080
 2348TIP3   OH228458   1.257   1.383  12.967 -0.2294  0.0045 -0.8275
 2348TIP3    H128459   1.222   1.294  12.959 -2.0262  0.4669  0.9810
 2348TIP3    H228460   1.215   1.418  13.046  1.8276  1.8400 -0.4533
 2349TIP3   OH228461   2.727   3.516  12.635  0.1061  0.2306 -0.5143
 2349TIP3    H128462   2.761   3.427  12.629 -1.8651 -0.4945 -2.1420
 2349TIP3    H228463   2.798   3.566  12.674  1.8284 -1.7512 -0.9180
 2350TIP3   OH228464   4.917   0.934   1.280 -0.2387 -0.0018  0.2645
 2350TIP3    H128465   4.863   0.975   1.348 -1.9417  1.2872 -1.7033
 2350TIP3    H228466   4.891   0.842   1.281 -1.1628  0.2458  0.5848
 2351TIP3   OH228467   1.965   6.592   0.115  0.0565 -0.2862  0.2372
 2351TIP3    H128468   1.881   6.583   0.161  0.1559  0.9174  0.6790
 2351TIP3    H228469   1.957   6.673   0.065  0.5211 -0.7924 -0.6719
 2352TIP3   OH228470   1.251   2.329   4.670 -0.0036  0.1951  0.0200
 2352TIP3    H128471   1.237   2.405   4.614  0.1492 -0.0169 -0.3100
 2352TIP3    H228472   1.243   2.253   4.611 -0.4042 -0.0551  0.3945
 2353TIP3   OH228473   3.660   4.116  15.992 -0.1784  0.7203  0.6711
 2353TIP3    H128474   3.676   4.031  15.951 -1.2211 -0.2525  2.2146
 2353TIP3    H228475   3.703   4.111  16.077 -0.2013  1.7723  0.7602
 2354TIP3   OH228476   2.476   6.324   0.613  0.5733  0.0307 -0.0178
 2354TIP3    H128477   2.514   6.317   0.525  1.4533  1.9004  0.1496
 2354TIP3    H228478   2.527   6.263   0.666  0.3989 -0.7163 -0.6863
 2355TIP3   OH228479   2.203   1.537  13.042 -0.6116 -0.2220 -0.2481
 2355TIP3    H128480   2.263   1.550  12.969  0.1015 -0.8242  0.2113
 2355TIP3    H228481   2.118   1.564  13.008 -0.8997 -3.2337 -2.3116
 2356TIP3   OH228482   2.664   2.093   2.464 -0.6067  0.1863  0.5014
 2356TIP3    H128483   2.579   2.111   2.425 -0.5271  0.6504  0.5419
 2356TIP3    H228484   2.703   2.179   2.480 -0.4571 -0.0011  1.2048
 2357TIP3   OH228485   0.178   5.879   3.710 -0.5036 -0.4888  0.2760
 2357TIP3    H128486   0.158   5.973   3.710  0.9992 -0.1453  0.7761
 2357TIP3    H228487   0.203   5.860   3.620 -0.0985 -0.2469  0.3380
 2358TIP3   OH228488   0.181   4.990  14.130  0.7991  0.1821 -0.3669
 2358TIP3    H128489   0.156   5.073  14.170  1.1137  0.9533 -1.7083
 2358TIP3    H228490   0.098   4.955  14.095  1.0535  1.4305 -2.4291
 2359TIP3   OH228491   0.354   3.378   0.903  0.4235 -0.6274 -0.6959
 2359TIP3    H128492   0.260   3.360   0.905  0.3426 -0.3963  2.2482
 2359TIP3    H228493   0.395   3.300   0.940  1.2514 -0.1142 -0.4971
 2360TIP3   OH228494   5.577   4.961  12.092  0.7383 -0.1203 -0.4612
 2360TIP3    H128495   5.515   4.917  12.149  0.3411 -0.4498 -1.1299
 2360TIP3    H228496   5.562   5.054  12.107  0.0326 -0.1985 -0.6701
 2361TIP3   OH228497   2.927   6.232   0.552  0.0897 -0.4358  0.6794
 2361TIP3    H128498   2.953   6.150   0.510  0.3284 -0.1173  0.1912
 2361TIP3    H228499   2.875   6.205   0.628 -1.3935 -1.0126 -0.4892
 2362TIP3   OH228500   4.411   4.397  16.631 -0.3951  0.2014  0.2265
 2362TIP3    H128501   4.416   4.490  16.607 -0.5391 -0.2805 -1.8790
 2362TIP3    H228502   4.466   4.353  16.566  1.1550 -1.0586  2.2739
 2363TIP3   OH228503   2.492   1.382   1.071 -1.1920 -0.0403 -0.5595
 2363TIP3    H128504   2.483   1.293   1.103 -0.7255 -0.3336 -1.2303
 2363TIP3    H228505   2.564   1.378   1.008  0.1967  1.2007  0.8536
 2364TIP3   OH228506   3.511   1.377   1.649 -0.6948 -0.4463  0.0761
 2364TIP3    H128507   3.470   1.454   1.611 -1.2236 -0.4278  0.6716
 2364TIP3    H228508   3.508   1.311   1.580 -0.0454  0.1177 -0.5131
 2365TIP3   OH228509   1.700   5.520   1.526 -0.2948  0.1834 -0.6388
 2365TIP3    H128510   1.637   5.578   1.482  0.2301  0.3842 -1.1385
 2365TIP3    H228511   1.649   5.442   1.549 -1.3043  1.3175  1.1419
 2366TIP3   OH228512   0.497   5.441   2.164 -0.7264 -0.0628 -0.2856
 2366TIP3    H128513   0.547   5.513   2.203 -0.7403 -0.2940  0.1565
 2366TIP3    H228514   0.442   5.409   2.235 -0.5349 -0.6811 -0.4137
 2367TIP3   OH228515   2.948   0.663   1.494  0.9002  0.6018  0.2263
 2367TIP3    H128516   2.955   0.589   1.554  0.6117  1.5052  1.4156
 2367TIP3    H228517   3.016   0.725   1.523  1.4232  0.6487 -1.0074
 2368TIP3   OH228518   5.634   3.704   6.186 -0.4285  0.2897  0.1626
 2368TIP3    H128519   5.542   3.696   6.210 -1.4638  2.1962 -2.6776
 2368TIP3    H228520   5.667   3.775   6.241 -0.9476  0.3250  0.4329
 2369TIP3   OH228521   4.472   2.874   4.071 -0.0821 -0.8189  0.4394
 2369TIP3    H128522   4.504   2.934   4.004 -0.1124 -1.0027  0.2569
 2369TIP3    H228523   4.551   2.848   4.118 -0.2384  0.4615  1.4456
 2370TIP3   OH228524   0.928   3.623  12.905  0.0076 -0.2033  0.5562
 2370TIP3    H128525   0.960   3.707  12.939 -1.1452  0.7194 -0.5370
 2370TIP3    H228526   0.834   3.636  12.894  0.1141 -0.8820 -1.6525
 2371TIP3   OH228527   4.246   3.300   6.659  0.2474  0.2065  0.5358
 2371TIP3    H128528   4.210   3.323   6.574  3.3179 -1.8204 -1.5059
 2371TIP3    H228529   4.268   3.384   6.699  0.5495  1.1878 -1.5572
 2372TIP3   OH228530   2.997   4.302   4.400 -0.0759 -0.3918  0.5760
 2372TIP3    H128531   2.947   4.355   4.338  0.7038 -0.5396 -0.1970
 2372TIP3    H228532   3.065   4.261   4.347 -0.3034 -1.7143  1.2563
 2373TIP3   OH228533   0.130   1.301  14.043 -0.1782  0.0134  0.0247
 2373TIP3    H128534   0.044   1.293  14.003  1.0697 -2.4600 -2.5354
 2373TIP3    H228535   0.168   1.380  14.004 -0.0187 -0.8598 -1.6732
 2374TIP3   OH228536   1.880   0.811  16.331 -0.0830 -0.0246 -0.3703
 2374TIP3    H128537   1.850   0.899  16.306  0.3906 -0.1406 -1.3813
 2374TIP3    H228538   1.873   0.760  16.251 -0.4614 -0.9544  0.2421
 2375TIP3   OH228539   2.557   1.474  10.868  0.3091  0.0437 -0.0237
 2375TIP3    H128540   2.619   1.509  10.804  0.6407 -2.2907 -1.0680
 2375TIP3    H228541   2.483   1.443  10.816 -0.1772 -0.3625  0.8794
 2376TIP3   OH228542   3.934   1.257   0.939 -0.2249  0.0158  0.5232
 2376TIP3    H128543   3.914   1.164   0.952 -0.9237 -0.1912 -1.6603
 2376TIP3    H228544   3.858   1.303   0.974 -0.5830 -0.3244  0.2054
 2377TIP3   OH228545   5.059   5.377   3.735 -0.1213  0.4884  0.3193
 2377TIP3    H128546   4.965   5.375   3.752 -0.1187  0.0415  0.3039
 2377TIP3    H228547   5.098   5.331   3.809  0.2144  1.8846  1.0481
 2378TIP3   OH228548   1.139   4.542  16.189 -0.2334  0.8487  0.3672
 2378TIP3    H128549   1.064   4.535  16.248 -0.4874  1.4937  0.1227
 2378TIP3    H228550   1.138   4.460  16.139 -0.3618  0.5578  0.8418
 2379TIP3   OH228551   3.446   0.826  13.345  0.1655 -0.4493  0.4723
 2379TIP3    H128552   3.464   0.867  13.429  2.7453 -3.6770  1.7622
 2379TIP3    H228553   3.525   0.842  13.293  0.8123 -2.6462  0.6517
 2380TIP3   OH228554   5.917   2.580   5.818 -0.4281 -0.3164  0.1486
 2380TIP3    H128555   5.930   2.672   5.797 -1.7115 -0.5704 -2.1161
 2380TIP3    H228556   5.866   2.580   5.899  0.8471  0.8919  0.9837
 2381TIP3   OH228557   1.201   3.530  17.166  0.1969 -0.4221  0.5964
 2381TIP3    H128558   1.263   3.499  17.100 -1.3553 -2.1999 -0.1314
 2381TIP3    H228559   1.236   3.614  17.194  2.4723 -0.9734 -0.3594
 2382TIP3   OH228560   6.398   4.779   0.468  0.4948 -0.5259 -0.5433
 2382TIP3    H128561   6.477   4.727   0.456  0.8566  0.2070 -1.6092
 2382TIP3    H228562   6.395   4.834   0.389 -0.7656 -0.1400 -0.2403
 2383TIP3   OH228563   6.730   2.127   6.311 -0.1062  0.4211  0.2328
 2383TIP3    H128564   6.663   2.187   6.345  0.3571  0.8076  0.4774
 2383TIP3    H228565   6.811   2.177   6.316  0.1307  0.1153 -0.4913
 2384TIP3   OH228566   4.525   2.973   4.924  1.1003 -0.3707 -0.0744
 2384TIP3    H128567   4.513   2.995   4.831 -2.8529  0.4842  0.4914
 2384TIP3    H228568   4.551   2.881   4.923 -0.4720 -0.8672 -2.0429
 2385TIP3   OH228569   2.809   0.386  14.504  0.1231 -0.2019  0.1406
 2385TIP3    H128570   2.851   0.346  14.580 -0.5688  1.4679  1.4599
 2385TIP3    H228571   2.870   0.454  14.475  0.8463 -1.4565 -1.4857
 2386TIP3   OH228572   0.420   6.766   0.198 -0.6294 -0.3389 -0.4247
 2386TIP3    H128573   0.399   6.779   0.291  0.0010 -1.8112 -0.0445
 2386TIP3    H228574   0.465   6.847   0.173  0.0101 -0.2780  0.8132
 2387TIP3   OH228575   1.590   1.346   1.425 -0.1955 -0.2660 -0.1087
 2387TIP3    H128576   1.501   1.380   1.431  0.5806  1.9451 -0.1372
 2387TIP3    H228577   1.613   1.357   1.333  0.6413  0.7494  0.1996
 2388TIP3   OH228578   4.332   0.793  12.129  0.1358 -0.3493 -0.5005
 2388TIP3    H128579   4.346   0.703  12.159  2.2382  0.4307  1.1358
 2388TIP3    H228580   4.237   0.805  12.132 -0.3738 -3.0350 -2.5242
 2389TIP3   OH228581   0.867   6.742  11.139 -0.1393  0.6747  0.4970
 2389TIP3    H128582   0.797   6.782  11.192 -1.6999 -1.3899  0.1365
 2389TIP3    H228583   0.907   6.678  11.197  1.3125  1.6279  0.5955
 2390TIP3   OH228584   0.549   4.997   5.077 -0.5676 -0.1344 -0.2654
 2390TIP3    H128585   0.607   5.001   5.001  0.7301 -0.2196  0.6744
 2390TIP3    H228586   0.568   5.078   5.126 -0.3527 -0.7252  0.6571
 2391TIP3   OH228587   5.801   0.971  10.971  0.5950 -0.0970  0.4201
 2391TIP3    H128588   5.863   0.904  11.001 -0.1435 -0.6772  0.6918
 2391TIP3    H228589   5.735   0.922  10.922  1.3986  0.7392 -1.6132
 2392TIP3   OH228590   4.623   4.664   2.080  0.3556 -0.3029 -0.3616
 2392TIP3    H128591   4.662   4.716   2.009  2.7739 -1.9101 -0.3337
 2392TIP3    H228592   4.643   4.713   2.159  1.2917 -0.4797 -0.4719
 2393TIP3   OH228593   4.619   1.810   6.492  0.1905  0.6963 -0.1855
 2393TIP3    H128594   4.645   1.894   6.529  1.3783  0.2495  0.0183
 2393TIP3    H228595   4.700   1.759   6.487 -0.2097  0.1678 -1.9132
 2394TIP3   OH228596   1.020   0.069  14.776  0.2314 -0.2825 -0.3048
 2394TIP3    H128597   1.108   0.033  14.791 -0.3398 -1.9289 -0.6436
 2394TIP3    H228598   1.011   0.139  14.840  1.3329 -0.9052  0.5689
 2395TIP3   OH228599   3.254   2.466   5.185  0.4222 -0.3289  0.3661
 2395TIP3    H128600   3.172   2.444   5.140 -0.7359 -0.0509  2.2339
 2395TIP3    H228601   3.285   2.545   5.141 -0.5597 -0.1662 -0.0571
 2396TIP3   OH228602   0.952   5.976   0.772 -0.1455  0.2381  0.1970
 2396TIP3    H128603   0.891   5.907   0.745  0.1029  0.8791 -2.2730
 2396TIP3    H228604   1.035   5.952   0.732  1.0021 -0.0547  2.6289
 2397TIP3   OH228605   5.564   4.610  15.456 -0.2745  0.4079  0.2172
 2397TIP3    H128606   5.633   4.654  15.406  0.3112 -0.4893  0.2067
 2397TIP3    H228607   5.482   4.644  15.420  0.1039 -0.6436 -1.7885
 2398TIP3   OH228608   0.414   4.578   5.701 -0.3022 -0.4227 -0.0830
 2398TIP3    H128609   0.474   4.641   5.741 -0.7241 -0.2758  0.3259
 2398TIP3    H228610   0.461   4.495   5.706  0.4547 -0.0823 -1.0406
 2399TIP3   OH228611   2.210   5.352  16.582 -0.3199  0.1115  0.1126
 2399TIP3    H128612   2.223   5.441  16.549  0.8494 -0.0219  0.1704
 2399TIP3    H228613   2.172   5.304  16.508 -0.0324  0.4247 -0.2417
 2400TIP3   OH228614   1.705   3.409  14.763 -0.0568  0.1631 -0.1300
 2400TIP3    H128615   1.734   3.382  14.850  0.1029  0.5893 -0.0465
 2400TIP3    H228616   1.696   3.504  14.770 -2.8083 -0.0464  0.2526
 2401TIP3   OH228617   6.531   4.553   4.194  0.2609 -0.2117 -0.7210
 2401TIP3    H128618   6.607   4.603   4.222 -2.2435  3.3513  0.4199
 2401TIP3    H228619   6.544   4.467   4.232  2.4653  1.0439  1.6754
 2402TIP3   OH228620   4.701   6.542   3.738  0.2303 -1.0519  0.0418
 2402TIP3    H128621   4.657   6.590   3.808  0.7020 -1.3087  0.5215
 2402TIP3    H228622   4.657   6.456   3.736 -0.3880 -0.7302 -0.5903
 2403TIP3   OH228623   6.200   0.037  16.473  0.4309  0.0664  1.0966
 2403TIP3    H128624   6.232  -0.029  16.534  0.3845 -0.6198  0.3996
 2403TIP3    H228625   6.108   0.048  16.496  0.5982  0.3736  1.6373
 2404TIP3   OH228626   1.407   6.185  16.547 -0.2506 -0.1551  0.4440
 2404TIP3    H128627   1.367   6.146  16.469 -1.1563 -0.6353  1.1275
 2404TIP3    H228628   1.346   6.164  16.618  0.6827  0.0499  1.3277
 2405TIP3   OH228629   4.056   3.061   0.237 -0.4517 -0.5190 -0.0158
 2405TIP3    H128630   4.104   3.053   0.154 -2.8707  1.2434 -1.7026
 2405TIP3    H228631   3.964   3.054   0.213 -1.2333 -0.3065  2.6056
 2406TIP3   OH228632   4.525   2.680  16.516 -0.2273 -0.1365  0.1112
 2406TIP3    H128633   4.443   2.632  16.508 -0.4218  0.0851  0.6870
 2406TIP3    H228634   4.499   2.772  16.511  0.0689 -0.0770 -0.3674
 2407TIP3   OH228635   4.801   0.502  11.828 -0.4361 -0.1367  0.0837
 2407TIP3    H128636   4.834   0.414  11.811  0.1439  0.0713  0.0835
 2407TIP3    H228637   4.723   0.489  11.882 -0.0481 -0.6261  0.5429
 2408TIP3   OH228638   1.993   4.019  16.131  0.8836 -0.7073 -0.4222
 2408TIP3    H128639   1.915   3.990  16.084  0.9842  0.0353 -1.0708
 2408TIP3    H228640   2.010   4.107  16.097  0.8883 -0.0879  1.1036
 2409TIP3   OH228641   0.943   4.898  14.694  0.5220  0.1022  0.0479
 2409TIP3    H128642   0.866   4.955  14.689  0.8236  0.4366 -1.0341
 2409TIP3    H228643   0.910   4.810  14.676  0.4104  0.2671 -0.5692
 2410TIP3   OH228644   2.040   6.655   6.251 -0.2290  0.6408  0.6673
 2410TIP3    H128645   2.001   6.740   6.231  1.8483  1.1630 -1.6485
 2410TIP3    H228646   1.970   6.592   6.236 -1.3038  1.7993  0.6666
 2411TIP3   OH228647   4.563   3.693   2.512  0.0164  0.1106 -0.3130
 2411TIP3    H128648   4.622   3.766   2.529 -1.1069  1.4080 -1.8322
 2411TIP3    H228649   4.476   3.732   2.508 -0.4766 -1.0944 -2.3977
 2412TIP3   OH228650   0.897   3.160  17.323  0.2590 -0.1779  0.6881
 2412TIP3    H128651   0.973   3.160  17.381  1.9193  1.5830 -1.3225
 2412TIP3    H228652   0.924   3.104  17.249 -0.9034 -0.5228  0.5036
 2413TIP3   OH228653   5.801   2.350  17.181  0.7868 -0.2798  0.0475
 2413TIP3    H128654   5.709   2.366  17.204  1.0714 -1.3986  2.1536
 2413TIP3    H228655   5.801   2.264  17.139  1.0826 -1.2258  1.8974
 2414TIP3   OH228656   6.660   0.389   5.936 -0.1637  0.6391 -0.0667
 2414TIP3    H128657   6.676   0.381   6.030  2.2822  1.6782 -0.3319
 2414TIP3    H228658   6.724   0.331   5.896 -0.9978  0.4219 -1.1353
 2415TIP3   OH228659   1.896   0.975   4.429 -0.2025  0.1270 -0.1208
 2415TIP3    H128660   1.883   0.994   4.336 -2.1896 -1.5736 -0.2565
 2415TIP3    H228661   1.834   1.032   4.474  1.2148  1.4328  0.2777
 2416TIP3   OH228662   2.665   5.273   3.388  0.0562  0.1450 -0.1710
 2416TIP3    H128663   2.572   5.256   3.406  0.1525  0.7439  0.9587
 2416TIP3    H228664   2.668   5.294   3.294 -0.5031 -2.9067 -0.9738
 2417TIP3   OH228665   1.918   4.982   5.095 -0.2207  0.0120  0.2222
 2417TIP3    H128666   1.858   4.958   5.166 -0.4781  1.3352  0.4725
 2417TIP3    H228667   1.945   4.898   5.058 -3.2958 -0.6643 -0.8064
 2418TIP3   OH228668   2.617   4.557  12.501  0.1518  0.3063 -0.1137
 2418TIP3    H128669   2.652   4.567  12.412 -1.4865  0.4390 -0.7780
 2418TIP3    H228670   2.689   4.518  12.551  1.1269  0.2912 -1.4740
 2419TIP3   OH228671   5.514   1.656   5.028 -0.0583 -0.2475  0.1846
 2419TIP3    H128672   5.488   1.569   5.059 -0.6325 -0.2028 -0.1564
 2419TIP3    H228673   5.561   1.694   5.102 -0.5511 -0.5185  0.6505
 2420TIP3   OH228674   5.988   4.597  15.182 -0.1795 -0.3455 -0.5193
 2420TIP3    H128675   6.030   4.631  15.262  0.9117 -0.1518 -1.1527
 2420TIP3    H228676   5.920   4.661  15.162  0.9085  0.7479 -0.8884
 2421TIP3   OH228677   6.296   4.803   5.605 -0.0419 -0.4216  0.1044
 2421TIP3    H128678   6.223   4.861   5.584  0.4212  0.5046  0.9897
 2421TIP3    H228679   6.315   4.819   5.697  2.1553  0.3906 -0.4250
 2422TIP3   OH228680   6.345   3.026  12.537 -0.0020  0.1308  0.1711
 2422TIP3    H128681   6.329   3.109  12.492 -1.2431  0.2135  0.7312
 2422TIP3    H228682   6.429   2.996  12.503 -0.0690  1.0683 -0.8697
 2423TIP3   OH228683   6.645   2.343  12.879  0.4309  0.3573  0.5143
 2423TIP3    H128684   6.562   2.388  12.867  0.0290  0.0721  2.0292
 2423TIP3    H228685   6.710   2.397  12.833 -0.3218  1.4733  0.7582
 2424TIP3   OH228686   5.165   5.548   1.345 -0.2661  0.5703 -0.7854
 2424TIP3    H128687   5.246   5.499   1.364 -0.3409  0.6515 -0.2272
 2424TIP3    H228688   5.139   5.584   1.430 -1.9498 -1.0585 -0.5334
 2425TIP3   OH228689   5.226   2.030  14.602  0.0980 -0.2288 -0.0831
 2425TIP3    H128690   5.211   1.953  14.657 -1.9351 -0.6569 -1.1152
 2425TIP3    H228691   5.153   2.088  14.622  0.9373  0.9084 -0.2226
 2426TIP3   OH228692   2.107   5.391  14.669  0.0602  0.8542 -0.0374
 2426TIP3    H128693   2.040   5.384  14.601 -0.4398  0.1700  0.5120
 2426TIP3    H228694   2.186   5.417  14.622  0.4737 -2.3220 -1.3815
 2427TIP3   OH228695   5.894   3.601   1.438 -0.3765 -0.3923  0.1332
 2427TIP3    H128696   5.858   3.528   1.388  1.8535 -1.9371  0.6314
 2427TIP3    H228697   5.891   3.572   1.529  3.2295 -1.2851  0.1249
 2428TIP3   OH228698   5.823   2.698  12.550 -0.1281  0.5214  0.0572
 2428TIP3    H128699   5.886   2.769  12.543  0.6005 -0.2583 -1.6299
 2428TIP3    H228700   5.745   2.731  12.505 -0.6061  1.0768  1.2337
 2429TIP3   OH228701   0.130   4.083   3.902  0.0701 -0.0363 -0.6995
 2429TIP3    H128702   0.095   4.161   3.945 -0.5191 -0.3969 -0.5045
 2429TIP3    H228703   0.212   4.065   3.948  0.2451  0.5035 -0.7938
 2430TIP3   OH228704   4.350   6.696  13.532 -0.4191 -0.4335 -0.2349
 2430TIP3    H128705   4.337   6.608  13.569  0.3913 -0.3648  0.2434
 2430TIP3    H228706   4.386   6.747  13.605 -0.3449  0.1447 -0.6712
 2431TIP3   OH228707   0.776   5.512   1.174  0.3832 -0.4746 -0.3931
 2431TIP3    H128708   0.753   5.598   1.209  2.8560  0.4462 -0.8404
 2431TIP3    H228709   0.799   5.529   1.082  2.7739 -1.2249  0.0086
 2432TIP3   OH228710   1.180   1.932   1.522 -0.1142 -1.0783  0.0754
 2432TIP3    H128711   1.176   1.845   1.563  0.0485 -0.9124  0.4437
 2432TIP3    H228712   1.216   1.915   1.435 -1.7326 -1.6189 -0.5313
 2433TIP3   OH228713   0.992   4.893  12.621  0.1398 -0.2621  0.0721
 2433TIP3    H128714   0.932   4.961  12.653  0.0160 -0.2393 -0.2071
 2433TIP3    H228715   1.013   4.842  12.699 -0.2055 -0.2394  0.1829
 2434TIP3   OH228716   0.708   5.868  13.873 -0.0312  0.4938  0.5378
 2434TIP3    H128717   0.668   5.822  13.947 -2.0077 -1.7546 -1.7557
 2434TIP3    H228718   0.659   5.839  13.797  2.3141  2.1932 -1.8078
 2435TIP3   OH228719   5.226   1.725   5.069  0.7093  0.9413  0.5410
 2435TIP3    H128720   5.321   1.726   5.063  0.9426 -0.6522  2.7810
 2435TIP3    H228721   5.205   1.790   5.136  0.1864  1.5396 -0.1925
 2436TIP3   OH228722   5.229   3.843  13.552  0.1187  0.3585  0.0743
 2436TIP3    H128723   5.145   3.873  13.587  0.8118 -0.2684  2.4750
 2436TIP3    H228724   5.255   3.772  13.611  2.1267  0.2298 -0.8989
 2437TIP3   OH228725   3.823   1.538  12.735  1.1548 -0.0073  0.4093
 2437TIP3    H128726   3.869   1.454  12.745 -0.2046 -0.7247  0.9865
 2437TIP3    H228727   3.736   1.521  12.772  1.5029  2.2535  2.4569
 2438TIP3   OH228728   1.379   5.487   4.428 -0.0047  0.4900  0.1156
 2438TIP3    H128729   1.383   5.435   4.509  2.2963 -3.0381 -1.9979
 2438TIP3    H228730   1.470   5.499   4.403 -0.6435  2.3339 -1.5165
 2439TIP3   OH228731   5.485   0.590   3.990  0.5572  0.0124  0.1817
 2439TIP3    H128732   5.503   0.573   3.897 -1.3618  1.5732 -0.5328
 2439TIP3    H228733   5.395   0.623   3.992  0.4908 -0.1197  2.6407
 2440TIP3   OH228734   4.539   3.453   4.434  0.0050  0.0184 -0.1012
 2440TIP3    H128735   4.558   3.362   4.410 -1.5136 -0.2951 -0.1681
 2440TIP3    H228736   4.503   3.448   4.522 -1.2522  0.4148 -0.5743
 2441TIP3   OH228737   0.553   0.842  15.009 -0.0116  0.0064  0.0096
 2441TIP3    H128738   0.471   0.877  15.046 -0.0212  0.2376 -0.2230
 2441TIP3    H228739   0.557   0.880  14.921  0.0084 -0.5435 -0.2260
 2442TIP3   OH228740   5.693   3.465  14.638  0.1449  0.1779 -0.2179
 2442TIP3    H128741   5.732   3.387  14.600  0.1049  0.9110 -1.8463
 2442TIP3    H228742   5.599   3.445  14.645  0.5199 -1.0279  2.2971
 2443TIP3   OH228743   6.517   5.511   1.281  0.3352 -0.2498  0.7363
 2443TIP3    H128744   6.449   5.531   1.345  0.3406  0.7286  0.4541
 2443TIP3    H228745   6.477   5.530   1.196  0.1735 -1.9770  0.4006
 2444TIP3   OH228746   4.566   5.066  16.216  0.0338 -0.1252  0.3019
 2444TIP3    H128747   4.528   5.136  16.163 -0.2568 -1.2879 -1.0928
 2444TIP3    H228748   4.496   5.002  16.224  0.7092 -0.8551  0.4157
 2445TIP3   OH228749   3.034   5.077   1.628 -0.4232  0.0067  0.2270
 2445TIP3    H128750   2.963   5.125   1.671 -3.4651 -3.8086  0.0251
 2445TIP3    H228751   3.080   5.033   1.699  0.8571  1.2106  0.2026
 2446TIP3   OH228752   2.583   1.356  16.686 -0.3763 -1.0721  0.2193
 2446TIP3    H128753   2.665   1.385  16.725  1.1627 -1.1744 -2.6914
 2446TIP3    H228754   2.543   1.437  16.653 -0.6671 -1.2082  0.2352
 2447TIP3   OH228755   3.537   4.045   6.002  0.0102 -0.6959 -0.0520
 2447TIP3    H128756   3.622   4.041   6.045 -0.3473 -1.4116  0.6139
 2447TIP3    H228757   3.477   4.001   6.063 -0.8263 -0.2332 -0.5287
 2448TIP3   OH228758   0.767   0.789   5.581 -0.1212 -0.1964 -0.1678
 2448TIP3    H128759   0.774   0.698   5.609  0.7447 -0.6090 -1.6310
 2448TIP3    H228760   0.849   0.830   5.609 -0.2648 -0.0057 -0.0200
 2449TIP3   OH228761   4.584   1.659  13.398 -0.2180  0.4190 -0.0218
 2449TIP3    H128762   4.592   1.635  13.306  1.5593 -0.3109  0.2834
 2449TIP3    H228763   4.490   1.664  13.413 -0.6278 -1.9054 -1.2863
 2450TIP3   OH228764   2.644   3.846   2.845  0.0972  0.1102 -0.8544
 2450TIP3    H128765   2.652   3.758   2.881 -1.2154  0.0193 -0.7313
 2450TIP3    H228766   2.715   3.896   2.887  0.5134 -0.7490 -0.5191
 2451TIP3   OH228767   0.270   0.453   4.732 -0.0901 -0.5603  1.0277
 2451TIP3    H128768   0.303   0.521   4.790  0.0968  1.2728 -1.0991
 2451TIP3    H228769   0.332   0.380   4.741  0.4491  0.0423  2.3696
 2452TIP3   OH228770   1.566   1.215  11.458  0.1062  0.4841 -0.2201
 2452TIP3    H128771   1.555   1.267  11.538 -0.9896  0.3288 -0.2543
 2452TIP3    H228772   1.650   1.245  11.421 -0.2528  1.8676  0.0303
 2453TIP3   OH228773   5.465   0.580  13.886 -0.4499  0.5082  0.2197
 2453TIP3    H128774   5.436   0.652  13.942  0.5781  1.0230  0.1098
 2453TIP3    H228775   5.458   0.616  13.797  0.6214  0.6917  0.1982
 2454TIP3   OH228776   1.602   4.601   2.090 -0.2692  0.1977  0.7789
 2454TIP3    H128777   1.524   4.562   2.129 -0.2244  0.0705  0.7417
 2454TIP3    H228778   1.571   4.679   2.045 -0.3623  0.1951  0.8391
 2455TIP3   OH228779   0.811   0.668   5.910 -0.0601  0.1925 -0.2110
 2455TIP3    H128780   0.791   0.640   5.999  0.0399  0.9068  0.0490
 2455TIP3    H228781   0.887   0.725   5.920 -0.1206  0.3696 -0.7395
 2456TIP3   OH228782   1.038   5.482  12.106  0.4801 -0.3645  0.6207
 2456TIP3    H128783   1.002   5.415  12.049 -0.8555  1.7597 -1.2013
 2456TIP3    H228784   0.994   5.470  12.190  0.3579 -1.7757  0.3736
 2457TIP3   OH228785   4.322   6.706  12.710  0.0399  0.5599 -0.8432
 2457TIP3    H128786   4.235   6.684  12.743 -0.1232  1.0087 -0.9656
 2457TIP3    H228787   4.308   6.785  12.658  0.9936  2.5588  1.7217
 2458TIP3   OH228788   1.999   1.205  11.933 -0.4251  0.4789  0.2260
 2458TIP3    H128789   2.061   1.173  11.868 -1.9947  0.7018 -1.4623
 2458TIP3    H228790   2.014   1.300  11.936 -1.9208  0.8354 -1.6591
 2459TIP3   OH228791   6.572   3.124   1.044 -0.1128  0.7804  0.6453
 2459TIP3    H128792   6.558   3.216   1.025 -0.2276  0.6780  0.2160
 2459TIP3    H228793   6.647   3.122   1.103  2.0894  0.9758 -1.9455
 2460TIP3   OH228794   4.941   0.659   6.308 -0.6360  0.2414  0.2375
 2460TIP3    H128795   4.948   0.735   6.251 -0.3367  0.0300 -0.0145
 2460TIP3    H228796   4.893   0.690   6.384 -2.6470  0.1004 -0.8982
 2461TIP3   OH228797   0.687   2.592   0.115  0.0084 -0.4287  0.1041
 2461TIP3    H128798   0.623   2.663   0.106  0.3186 -0.2629 -1.0202
 2461TIP3    H228799   0.659   2.544   0.193 -1.0164  0.1165  0.0963
 2462TIP3   OH228800   0.055   1.236  14.995 -0.3248 -0.0407 -0.0831
 2462TIP3    H128801   0.026   1.258  15.083  1.0228  0.9376  0.1528
 2462TIP3    H228802   0.149   1.257  14.995 -0.7879  2.6981 -2.5280
 2463TIP3   OH228803   1.231   0.359  17.251 -0.0610 -0.5471  0.2170
 2463TIP3    H128804   1.307   0.402  17.211 -1.0455  1.1697  0.0907
 2463TIP3    H228805   1.241   0.376  17.344 -0.6868  0.4230  0.1264
 2464TIP3   OH228806   0.228   4.565  12.943  0.1480  0.0281  0.4837
 2464TIP3    H128807   0.291   4.536  13.008  0.0592  1.7256  1.3580
 2464TIP3    H228808   0.155   4.503  12.952  0.0816  0.3058  2.0813
 2465TIP3   OH228809   2.788   2.183   5.995 -0.0580  0.5082 -0.8194
 2465TIP3    H128810   2.699   2.173   6.030  0.8736 -0.2320  1.6071
 2465TIP3    H228811   2.804   2.277   5.996  0.0617  0.5230  1.3938
 2466TIP3   OH228812   0.650   3.368  12.104 -0.4605  0.0597 -0.2859
 2466TIP3    H128813   0.689   3.376  12.016  0.1057 -1.7980 -0.2607
 2466TIP3    H228814   0.724   3.349  12.161 -1.0949 -1.0738  0.1874
 2467TIP3   OH228815   2.081   2.001  16.721  0.0453  0.5024  0.3547
 2467TIP3    H128816   2.089   2.049  16.804  0.1156 -0.1778  0.7553
 2467TIP3    H228817   2.110   2.062  16.654  0.9897  0.7251  0.9494
 2468TIP3   OH228818   0.281   6.696  11.399  0.4528  0.2029 -0.1282
 2468TIP3    H128819   0.335   6.731  11.328 -1.0903  1.5837 -0.6907
 2468TIP3    H228820   0.202   6.666  11.355  0.2438 -0.6463  0.8170
 2469TIP3   OH228821   0.812   3.861  13.273  0.2551 -0.2475 -0.3389
 2469TIP3    H128822   0.832   3.877  13.365  2.4529 -2.2677 -0.3639
 2469TIP3    H228823   0.737   3.801  13.276  1.8914 -2.4115  0.3469
 2470TIP3   OH228824   1.864   0.100  16.898  0.1247  0.1576  0.5026
 2470TIP3    H128825   1.927   0.132  16.834 -1.2047  2.3028  0.1476
 2470TIP3    H228826   1.817   0.030  16.852  0.7683  0.0363  0.0084
 2471TIP3   OH228827   4.499   6.325  15.775  0.1162 -0.1218 -0.1669
 2471TIP3    H128828   4.500   6.305  15.869  1.0592  0.1742 -0.1052
 2471TIP3    H228829   4.415   6.369  15.761 -0.1441 -0.3969  0.4905
 2472TIP3   OH228830   2.859   5.244   0.338 -0.2406  0.5443  0.3207
 2472TIP3    H128831   2.884   5.212   0.424 -0.7156 -2.2966 -0.4722
 2472TIP3    H228832   2.765   5.262   0.346 -0.1453  0.9625  0.5486
 2473TIP3   OH228833   6.001   3.483   1.131 -0.0989 -0.2443 -0.0584
 2473TIP3    H128834   6.067   3.495   1.199  0.0916  2.2832 -0.5859
 2473TIP3    H228835   6.044   3.427   1.065  0.8165 -0.1766  0.4696
 2474TIP3   OH228836   6.192   4.073  16.950 -0.0332  0.5269 -0.8334
 2474TIP3    H128837   6.164   4.115  16.869  1.6522  1.4215 -0.9900
 2474TIP3    H228838   6.135   4.110  17.017 -0.3530  1.0216 -1.3767
 2475TIP3   OH228839   0.505   2.646   4.650  0.4899  0.1088  0.0521
 2475TIP3    H128840   0.511   2.653   4.745 -0.4984 -0.6343  0.1899
 2475TIP3    H228841   0.453   2.567   4.635 -1.1812  1.3405 -1.0498
 2476TIP3   OH228842   4.823   5.649  12.702 -0.0029  0.2658 -0.2391
 2476TIP3    H128843   4.831   5.728  12.648 -1.7702 -0.4067 -1.5912
 2476TIP3    H228844   4.803   5.580  12.639 -1.6363 -0.6719  1.2216
 2477TIP3   OH228845   2.765   3.433   6.116 -0.4591 -0.5020 -0.0818
 2477TIP3    H128846   2.693   3.379   6.083 -0.5361 -0.1029 -0.5900
 2477TIP3    H228847   2.748   3.442   6.209 -0.9739 -0.5610 -0.1670
 2478TIP3   OH228848   0.395   5.784  10.595  0.2442  0.3655  0.3821
 2478TIP3    H128849   0.426   5.813  10.509 -0.0438 -0.3422  0.0301
 2478TIP3    H228850   0.371   5.692  10.582 -1.2126  0.6465  0.8416
 2479TIP3   OH228851   5.283   6.247  17.038 -0.2473 -0.1148  0.1552
 2479TIP3    H128852   5.301   6.156  17.061 -0.8769 -0.5660 -1.0346
 2479TIP3    H228853   5.336   6.264  16.960 -0.4824  0.3918  0.0979
 2480TIP3   OH228854   4.995   2.236  13.060  0.2971 -0.0639  0.7104
 2480TIP3    H128855   4.956   2.256  12.975 -0.0872  0.7065  1.0638
 2480TIP3    H228856   4.926   2.191  13.108 -1.2688  3.7260  2.3630
 2481TIP3   OH228857   4.365   5.263  15.173 -0.5120 -0.7438  0.2950
 2481TIP3    H128858   4.307   5.216  15.113 -1.0525 -1.3095  1.2407
 2481TIP3    H228859   4.393   5.197  15.236 -0.5000 -0.0165  1.0682
 2482TIP3   OH228860   5.559   1.834  14.396 -0.2079  0.6840 -0.0049
 2482TIP3    H128861   5.496   1.795  14.336 -0.1880  1.9851 -0.9149
 2482TIP3    H228862   5.542   1.791  14.480 -0.7012 -0.6716 -0.7699
 2483TIP3   OH228863   2.208   5.819  14.365 -0.1724  0.5208  0.2603
 2483TIP3    H128864   2.171   5.904  14.389 -1.9175  1.1790 -3.9916
 2483TIP3    H228865   2.288   5.840  14.317 -0.6164 -0.1948 -0.8315
 2484TIP3   OH228866   2.307   3.032   1.789 -0.1523 -0.0298  0.0680
 2484TIP3    H128867   2.374   3.101   1.790 -0.2334  0.0768  1.9599
 2484TIP3    H228868   2.344   2.962   1.844 -0.0505 -1.5688 -1.8520
 2485TIP3   OH228869   5.668   5.224  10.755  0.0837 -0.3125  0.3516
 2485TIP3    H128870   5.629   5.264  10.833 -0.6862 -1.0159  0.3478
 2485TIP3    H228871   5.708   5.144  10.787  0.5645 -0.1481  0.1648
 2486TIP3   OH228872   2.416   4.351  15.387 -0.5106 -0.0533  0.3456
 2486TIP3    H128873   2.385   4.440  15.370 -1.7875 -0.5576 -0.1129
 2486TIP3    H228874   2.402   4.339  15.481  1.1381  0.7389  0.7344
 2487TIP3   OH228875   5.676   4.357  16.860 -0.0147 -0.0887  0.1455
 2487TIP3    H128876   5.587   4.321  16.862  0.5610 -1.5639  0.3139
 2487TIP3    H228877   5.664   4.449  16.836 -1.5072 -0.5282 -0.9566
 2488TIP3   OH228878   4.030   5.257   0.385  0.1374 -0.0589  0.0453
 2488TIP3    H128879   4.048   5.220   0.472  0.1020 -1.3601 -0.4907
 2488TIP3    H228880   4.111   5.245   0.336  0.9539  2.7149  0.5374
 2489TIP3   OH228881   2.714   0.509  14.210 -0.1918 -0.0857  0.5102
 2489TIP3    H128882   2.777   0.458  14.159  0.9829  1.6203  0.1624
 2489TIP3    H228883   2.718   0.597  14.172 -2.7688  0.1077  0.5321
 2490TIP3   OH228884   3.522   5.287  15.308 -0.5357  0.0857 -0.3959
 2490TIP3    H128885   3.563   5.372  15.293  0.3363 -0.5284 -1.6746
 2490TIP3    H228886   3.472   5.299  15.389  2.1773  0.8814  1.3006
 2491TIP3   OH228887   2.348   1.548   2.553  0.0415  0.2350  0.0380
 2491TIP3    H128888   2.365   1.486   2.482 -1.1041  1.1061 -1.0460
 2491TIP3    H228889   2.410   1.525   2.622 -1.5575 -3.3545  0.4863
 2492TIP3   OH228890   6.198   0.560   4.267  0.5426 -0.0097 -0.2388
 2492TIP3    H128891   6.150   0.480   4.246 -1.6261  1.3319 -0.7540
 2492TIP3    H228892   6.170   0.622   4.199  0.4877  1.7695  1.3508
 2493TIP3   OH228893   1.789   0.404   3.811 -0.7388  0.5279  0.0826
 2493TIP3    H128894   1.696   0.423   3.811 -0.6646  1.1154 -1.8036
 2493TIP3    H228895   1.795   0.310   3.825 -1.6961  0.3068 -0.9095
 2494TIP3   OH228896   2.554   5.412  16.651  0.1817 -0.3328 -0.1477
 2494TIP3    H128897   2.478   5.368  16.688  1.7964 -1.4681  2.0828
 2494TIP3    H228898   2.625   5.391  16.711  2.1880  1.0216 -1.8935
 2495TIP3   OH228899   1.612   3.798  16.945  0.0154 -0.0091 -0.3663
 2495TIP3    H128900   1.637   3.724  17.001 -0.7606 -0.7967 -1.0428
 2495TIP3    H228901   1.573   3.758  16.868 -1.1559  1.1302 -0.3940
 2496TIP3   OH228902   3.615   4.123   4.950  0.1265  0.6223  0.0878
 2496TIP3    H128903   3.641   4.048   4.898  0.6654 -0.3945  1.7443
 2496TIP3    H228904   3.521   4.110   4.966  0.0460  0.7312 -0.2878
 2497TIP3   OH228905   0.043   2.349  13.227  0.2975 -0.1402 -0.5751
 2497TIP3    H128906   0.139   2.347  13.234  0.2350 -0.7002  0.2867
 2497TIP3    H228907   0.016   2.414  13.292  0.1553  1.0579 -1.7970
 2498TIP3   OH228908   0.443   4.454   4.625  0.4849 -0.1195 -0.3970
 2498TIP3    H128909   0.384   4.385   4.654 -0.6223  0.7264 -0.5914
 2498TIP3    H228910   0.499   4.471   4.702  0.5944 -1.0234 -0.2649
 2499TIP3   OH228911   1.818   1.666  11.672  0.1085  0.2516 -0.0493
 2499TIP3    H128912   1.856   1.717  11.744  0.3609 -2.5219  1.9324
 2499TIP3    H228913   1.892   1.620  11.633 -0.5174 -1.5895  0.8087
 2500TIP3   OH228914   3.369   3.117  11.454 -1.0528 -0.0464 -0.0962
 2500TIP3    H128915   3.430   3.156  11.516 -1.5424 -2.2585  1.9407
 2500TIP3    H228916   3.422   3.097  11.377  0.9028 -1.8500  1.5780
 2501TIP3   OH228917   6.534   5.503   0.870 -0.0457 -0.3017  0.0530
 2501TIP3    H128918   6.508   5.590   0.900 -1.0964 -0.5063 -0.2513
 2501TIP3    H228919   6.454   5.451   0.875  0.5368 -1.2148  0.0815
 2502TIP3   OH228920   5.568   1.167   4.567  0.3589  0.0501  0.1200
 2502TIP3    H128921   5.550   1.079   4.535  0.1747 -0.7235  2.1853
 2502TIP3    H228922   5.566   1.223   4.489 -3.1269 -1.1716 -0.8166
 2503TIP3   OH228923   1.802   5.691  13.083 -0.2418  0.2314  0.2594
 2503TIP3    H128924   1.802   5.711  13.177 -1.1038 -0.3534  0.3902
 2503TIP3    H228925   1.883   5.641  13.069 -0.3779 -0.1381  0.7846
 2504TIP3   OH228926   4.875   0.071   0.417 -0.6551 -0.1877 -0.0886
 2504TIP3    H128927   4.927   0.018   0.477 -2.4025 -2.1746 -0.2092
 2504TIP3    H228928   4.819   0.124   0.474  1.0351  1.5940  0.0295
 2505TIP3   OH228929   0.816   1.082  10.108 -0.2747  0.0597  0.0164
 2505TIP3    H128930   0.818   1.137  10.186  1.9490  1.0707 -0.6828
 2505TIP3    H228931   0.780   0.999  10.139  1.6391  0.0132  2.4304
 2506TIP3   OH228932   0.270   0.336  14.761  0.4040  0.2114  0.1382
 2506TIP3    H128933   0.226   0.407  14.712  1.1578  1.3279  1.0337
 2506TIP3    H228934   0.301   0.276  14.693 -0.3982  0.6446 -0.6341
 2507TIP3   OH228935   0.419   0.002  16.353 -0.3510 -0.1896 -0.2879
 2507TIP3    H128936   0.336  -0.035  16.384  0.5820 -0.2523  2.4097
 2507TIP3    H228937   0.457  -0.067  16.298 -1.5511 -0.5980 -0.6396
 2508TIP3   OH228938   6.529   1.307  15.516  0.2462 -0.2934  0.5046
 2508TIP3    H128939   6.568   1.393  15.535  0.1804  0.2266 -1.4722
 2508TIP3    H228940   6.450   1.305  15.568 -0.9308  1.8521 -1.0161
 2509TIP3   OH228941   5.586   4.539  16.175 -0.1053 -0.4774  0.2217
 2509TIP3    H128942   5.652   4.535  16.243  0.4300  1.1009 -0.1809
 2509TIP3    H228943   5.527   4.609  16.202 -0.9606 -1.0845 -0.0178
 2510TIP3   OH228944   3.910   5.416   2.166 -0.1145 -0.1008  0.4062
 2510TIP3    H128945   3.972   5.433   2.095 -0.8644 -0.0199 -0.2518
 2510TIP3    H228946   3.857   5.495   2.171  0.6290  0.3186  1.8039
 2511TIP3   OH228947   5.309   3.031  13.440  0.0691 -1.1018 -0.2229
 2511TIP3    H128948   5.397   3.000  13.420  0.1228 -1.0065 -0.1364
 2511TIP3    H228949   5.322   3.108  13.495 -0.0373 -0.3606 -1.2115
 2512TIP3   OH228950   2.913   1.303  14.445  0.4644  0.1640  0.4654
 2512TIP3    H128951   2.822   1.331  14.436  0.7051  0.7720 -0.2468
 2512TIP3    H228952   2.940   1.279  14.357  0.6804 -1.0576  0.8496
 2513TIP3   OH228953   3.681   3.122   4.029 -0.0851  0.6214 -0.5158
 2513TIP3    H128954   3.658   3.214   4.043  1.8527  0.9353  0.9705
 2513TIP3    H228955   3.775   3.118   4.048 -0.6922 -2.2654  2.6829
 2514TIP3   OH228956   4.465   0.806   4.316 -0.8265  0.1646  0.2812
 2514TIP3    H128957   4.520   0.745   4.366 -1.0581 -0.9908 -0.8064
 2514TIP3    H228958   4.526   0.873   4.286  0.0709 -1.1575 -1.0080
 2515TIP3   OH228959   4.136   6.542  11.161  0.0329 -0.0715 -0.3699
 2515TIP3    H128960   4.164   6.632  11.181 -1.2887  0.1327  0.7904
 2515TIP3    H228961   4.046   6.538  11.194 -0.0822 -1.7020 -0.8021
 2516TIP3   OH228962   5.946   5.718  12.195 -0.0713 -0.2129 -0.4404
 2516TIP3    H128963   5.971   5.654  12.129 -0.2933  1.2521 -1.9928
 2516TIP3    H228964   6.014   5.785  12.192 -0.1367 -0.0619  0.7690
 2517TIP3   OH228965   0.541   3.912   1.609 -0.0246  0.3448  0.2047
 2517TIP3    H128966   0.596   3.973   1.560  0.0117  0.7992  0.7958
 2517TIP3    H228967   0.574   3.917   1.699  1.0813 -1.7950 -0.0071
 2518TIP3   OH228968   2.625   3.947   3.174  0.2594  0.0207  0.2551
 2518TIP3    H128969   2.598   4.039   3.184 -0.2639  0.0837 -1.3994
 2518TIP3    H228970   2.662   3.923   3.259  1.1857  2.0220  0.4785
 2519TIP3   OH228971   3.436   5.790  13.625 -0.5167  0.0808  0.6437
 2519TIP3    H128972   3.441   5.701  13.660  3.5702 -0.2431 -0.3143
 2519TIP3    H228973   3.398   5.779  13.537 -1.3148 -0.4656  1.0412
 2520TIP3   OH228974   6.655   6.421   3.029 -0.4130  0.0873 -0.3302
 2520TIP3    H128975   6.576   6.367   3.034  0.2816 -1.1571 -2.0121
 2520TIP3    H228976   6.664   6.442   2.937  0.4154  1.4831  0.0497
 2521TIP3   OH228977   5.550   6.134  12.406 -0.2576 -0.1642  0.1188
 2521TIP3    H128978   5.518   6.073  12.339  3.3762 -1.1345 -0.9883
 2521TIP3    H228979   5.539   6.221  12.367 -0.2226 -0.5516 -0.7652
 2522TIP3   OH228980   4.870   1.919   6.241 -0.1474 -0.0173  0.5342
 2522TIP3    H128981   4.786   1.936   6.284  0.4997  1.1754  1.3809
 2522TIP3    H228982   4.904   2.005   6.218  0.8333 -0.4778  0.1582
 2523TIP3   OH228983   1.681   3.429  16.284 -0.1007  0.4608 -0.1665
 2523TIP3    H128984   1.712   3.338  16.287 -0.2001  0.4589  1.1219
 2523TIP3    H228985   1.588   3.424  16.307 -0.5352  0.7333 -1.7098
 2524TIP3   OH228986   2.073   6.286  12.879  0.0819  0.0840 -0.1174
 2524TIP3    H128987   2.012   6.337  12.826  0.5702 -0.4675 -1.2360
 2524TIP3    H228988   2.017   6.228  12.930 -0.3926  0.5803 -0.0609
 2525TIP3   OH228989   1.122   6.252   5.963 -0.8472 -0.0690  0.5067
 2525TIP3    H128990   1.166   6.202   5.893 -1.5884 -0.3795  0.2498
 2525TIP3    H228991   1.149   6.342   5.948 -0.5278 -0.2168  0.1726
 2526TIP3   OH228992   3.868   2.438   3.678  0.4333  0.1914 -0.3636
 2526TIP3    H128993   3.934   2.491   3.721 -0.8286  0.7885  0.9254
 2526TIP3    H228994   3.906   2.416   3.593  1.8111  1.4432 -0.1071
 2527TIP3   OH228995   2.094   2.909  11.439 -0.1723 -0.3067 -0.2422
 2527TIP3    H128996   2.091   2.864  11.354  2.5342  2.9265 -2.3379
 2527TIP3    H228997   2.006   2.944  11.451 -0.5276 -0.5276 -1.9411
 2528TIP3   OH228998   2.386   0.094   1.277 -0.2713 -0.2174  0.4475
 2528TIP3    H128999   2.399   0.156   1.349  0.7092  0.5032 -0.3239
 2528TIP3    H229000   2.292   0.080   1.274 -0.3960  0.2926  1.4160
 2529TIP3   OH229001   3.805   2.374  14.772 -0.5018  0.7476 -0.3905
 2529TIP3    H129002   3.884   2.363  14.824  0.8273  1.9922 -2.0604
 2529TIP3    H229003   3.824   2.333  14.688 -1.7361  0.8341 -0.7434
 2530TIP3   OH229004   6.093   4.505  17.153 -0.1249 -0.6345  0.4650
 2530TIP3    H129005   6.022   4.464  17.103  0.6082 -0.7464 -0.5012
 2530TIP3    H229006   6.172   4.460  17.124  0.2466 -1.2551  2.3072
 2531TIP3   OH229007   4.211   6.750  15.184  0.5646  0.1291 -0.0120
 2531TIP3    H129008   4.264   6.771  15.262 -1.0995  0.5115  1.0660
 2531TIP3    H229009   4.136   6.809  15.190  0.5571  0.3834 -2.1198
 2532TIP3   OH229010   3.391   5.627   2.037  0.3091  0.2302  0.5823
 2532TIP3    H129011   3.336   5.550   2.052  0.2562  0.3139  0.8228
 2532TIP3    H229012   3.333   5.701   2.053 -0.1046  0.3372 -1.2916
 2533TIP3   OH229013   3.460   5.558  12.800 -0.4326 -0.1198 -0.0284
 2533TIP3    H129014   3.420   5.643  12.822  0.0415  0.4800 -1.3529
 2533TIP3    H229015   3.493   5.570  12.711  0.4509 -1.4194  0.0983
 2534TIP3   OH229016   2.836   3.666   4.435  0.2322  0.2790 -0.4099
 2534TIP3    H129017   2.843   3.751   4.392 -0.7308  1.1236  1.0235
 2534TIP3    H229018   2.799   3.608   4.368  2.0651  0.6255 -1.8112
 2535TIP3   OH229019   1.664   0.099  13.758  0.6890  0.7679 -0.1673
 2535TIP3    H129020   1.748   0.087  13.713  1.7507  0.1342  1.8364
 2535TIP3    H229021   1.619   0.015  13.747  0.5134  0.9393 -0.8182
 2536TIP3   OH229022   2.450   1.567  13.245 -0.5808  0.3023  0.0208
 2536TIP3    H129023   2.356   1.565  13.263 -0.7380 -0.0349 -0.7835
 2536TIP3    H229024   2.462   1.646  13.193 -0.7970 -0.7604 -1.7357
 2537TIP3   OH229025   3.346   3.047   0.595 -0.2661  0.1531 -0.0987
 2537TIP3    H129026   3.355   2.975   0.658  1.7955  1.6382  1.4400
 2537TIP3    H229027   3.381   3.011   0.514 -1.4631 -1.2947 -0.0259
 2538TIP3   OH229028   6.277   0.711  11.924  0.1105  0.1243 -0.6093
 2538TIP3    H129029   6.249   0.628  11.962 -1.2601  2.0747  3.1323
 2538TIP3    H229030   6.355   0.736  11.975  0.6815  1.0294 -1.8671
 2539TIP3   OH229031   6.381   5.595  14.949 -0.4502 -0.3326 -0.4738
 2539TIP3    H129032   6.383   5.632  14.861 -3.1372  0.6113 -0.2463
 2539TIP3    H229033   6.460   5.628  14.991  0.1214  0.4324 -2.0852
 2540TIP3   OH229034   6.178   3.513   2.777 -0.1611  0.2205 -0.7279
 2540TIP3    H129035   6.206   3.591   2.824  0.3545 -0.7588  0.6551
 2540TIP3    H229036   6.169   3.446   2.844 -3.2189 -0.2648 -1.4877
 2541TIP3   OH229037   4.041   4.840   0.923  0.0957  0.0763  0.4256
 2541TIP3    H129038   4.105   4.874   0.985 -0.5998  0.8598  0.7487
 2541TIP3    H229039   4.075   4.865   0.837 -0.5252  1.9439  0.6590
 2542TIP3   OH229040   1.003   0.484  16.834  0.6460 -0.1301 -0.0807
 2542TIP3    H129041   0.934   0.547  16.855  0.6225  0.0718 -0.7585
 2542TIP3    H229042   1.020   0.439  16.917 -0.0654  0.0504  0.1692
 2543TIP3   OH229043   3.477   4.660  14.885 -0.2154  0.1333  0.0412
 2543TIP3    H129044   3.411   4.721  14.917  0.9478  0.6110  1.7135
 2543TIP3    H229045   3.517   4.704  14.810 -1.7937 -0.1981 -1.0350
 2544TIP3   OH229046   5.629   3.077   2.450  0.0251  0.5641  0.1949
 2544TIP3    H129047   5.699   3.114   2.503  0.6393 -0.3534  0.0422
 2544TIP3    H229048   5.668   3.062   2.364 -0.9022  1.8307 -0.4794
 2545TIP3   OH229049   1.276   2.102   6.343 -0.4018 -0.4431 -0.7190
 2545TIP3    H129050   1.211   2.050   6.296 -2.4447  1.2832  0.0320
 2545TIP3    H229051   1.307   2.166   6.279 -0.1372 -0.6578 -0.8091
 2546TIP3   OH229052   0.703   6.648   2.662  0.5836 -0.3632  0.1362
 2546TIP3    H129053   0.644   6.635   2.736 -1.0172 -1.8845 -1.2989
 2546TIP3    H229054   0.645   6.659   2.587  2.1467  0.8345 -0.9695
 2547TIP3   OH229055   2.266   2.438  17.136  0.1702 -0.2511  0.9234
 2547TIP3    H129056   2.281   2.369  17.201 -1.4842  0.3314  1.9937
 2547TIP3    H229057   2.318   2.412  17.060  2.7130 -0.6417  2.6842
 2548TIP3   OH229058   2.434   3.726  12.450  0.2786 -0.1371  0.2413
 2548TIP3    H129059   2.393   3.812  12.458  0.5953  0.2583 -1.8236
 2548TIP3    H229060   2.519   3.743  12.409 -0.0077 -1.4753 -1.0029
 2549TIP3   OH229061   2.967   5.219   0.896 -0.1166 -0.5095  0.0068
 2549TIP3    H129062   3.035   5.278   0.862  1.7139 -1.5648  1.5808
 2549TIP3    H229063   2.923   5.271   0.964  0.2753 -0.3543  0.1479
 2550TIP3   OH229064   6.614   5.802   1.847  0.6418 -0.2378 -0.3009
 2550TIP3    H129065   6.536   5.757   1.816  0.5782 -1.2217  1.1579
 2550TIP3    H229066   6.684   5.772   1.790  0.4320 -1.5342  0.1026
 2551TIP3   OH229067   4.135   5.890  16.710 -0.8561  0.0345  0.0385
 2551TIP3    H129068   4.113   5.858  16.798 -2.0800 -2.5726 -1.0773
 2551TIP3    H229069   4.225   5.859  16.696 -0.2355  1.4434  0.7388
 2552TIP3   OH229070   2.857   5.999  17.004 -0.1034  0.0873  0.5141
 2552TIP3    H129071   2.944   6.017  17.038  0.5228  0.3036 -1.1368
 2552TIP3    H229072   2.839   5.908  17.028  1.6632 -0.8089 -1.3482
 2553TIP3   OH229073   6.430   6.064  14.624 -0.3474 -0.4182 -0.4706
 2553TIP3    H129074   6.421   6.046  14.717  1.2109  0.9214 -0.0000
 2553TIP3    H229075   6.384   6.147  14.611 -2.0137 -1.4298 -1.2770
 2554TIP3   OH229076   4.044   1.407   4.918  0.2292 -0.2641  0.2402
 2554TIP3    H129077   4.061   1.315   4.938 -0.5514  0.1701  3.4808
 2554TIP3    H229078   3.950   1.411   4.900  0.5192 -0.2629 -1.4771
 2555TIP3   OH229079   3.956   0.061   5.011  0.1882 -0.0188 -0.0514
 2555TIP3    H129080   3.896   0.057   5.085 -0.0522  3.4970  0.0835
 2555TIP3    H229081   4.043   0.064   5.050  0.0464  2.2545  0.2235
 2556TIP3   OH229082   0.105   3.362   0.930 -0.2852 -0.3326 -0.0991
 2556TIP3    H129083   0.069   3.427   0.870 -1.1933 -1.1732 -0.5080
 2556TIP3    H229084   0.045   3.288   0.923 -0.4188 -0.4574  1.8704
 2557TIP3   OH229085   0.417   3.867  15.348 -0.1040 -0.4492  0.0252
 2557TIP3    H129086   0.512   3.857  15.348  0.0121  0.3710  1.4782
 2557TIP3    H229087   0.388   3.822  15.269  1.5789  0.1630 -0.9844
 2558TIP3   OH229088   1.689   5.206  14.032  0.2111 -0.3389 -0.2016
 2558TIP3    H129089   1.734   5.259  13.966  1.2157  0.4846  1.0903
 2558TIP3    H229090   1.627   5.153  13.982  0.2490  0.9520 -1.6950
 2559TIP3   OH229091   6.588   5.867   3.258  0.2246 -0.2499 -0.7704
 2559TIP3    H129092   6.644   5.828   3.325 -0.3106  1.1945  0.5963
 2559TIP3    H229093   6.649   5.904   3.195  0.8266  0.4217  0.1768
 2560TIP3   OH229094   4.791   4.201   5.490  0.0642  0.2861 -0.6284
 2560TIP3    H129095   4.802   4.106   5.487 -1.2447 -0.0377  2.0366
 2560TIP3    H229096   4.878   4.235   5.513  0.7840 -0.1085 -2.5739
 2561TIP3   OH229097   4.925   0.477   4.972  0.6202 -0.6045 -0.1026
 2561TIP3    H129098   4.944   0.384   4.965  0.4973 -0.7076  0.8764
 2561TIP3    H229099   4.975   0.507   5.047 -1.0396 -0.3535  0.9636
 2562TIP3   OH229100   0.789   5.794   0.699  0.3011  0.3571 -0.4573
 2562TIP3    H129101   0.803   5.705   0.668 -0.6644 -0.2855  0.8275
 2562TIP3    H229102   0.694   5.806   0.695  0.3469  1.0019  0.2174
 2563TIP3   OH229103   1.062   6.619  14.537 -0.0876 -0.2940  0.2544
 2563TIP3    H129104   1.109   6.579  14.465  1.0213  0.7565  0.3738
 2563TIP3    H229105   0.973   6.631  14.504  0.3265 -0.1035 -0.8147
 2564TIP3   OH229106   2.517   6.273  15.577  0.0709 -0.0730 -0.3395
 2564TIP3    H129107   2.565   6.191  15.579  0.1490 -0.0221 -0.0484
 2564TIP3    H229108   2.560   6.328  15.641 -2.1131 -1.0165  2.1283
 2565TIP3   OH229109   0.712   5.778   0.004  0.2887  0.4542  0.6063
 2565TIP3    H129110   0.721   5.758  -0.089 -4.0078  0.1084  0.0314
 2565TIP3    H229111   0.771   5.851   0.019  3.3551 -1.3499 -1.5548
 2566TIP3   OH229112   0.148   0.847  14.802 -0.0374 -0.1656 -0.2046
 2566TIP3    H129113   0.060   0.861  14.767 -0.5513 -2.5550 -0.0305
 2566TIP3    H229114   0.138   0.855  14.897  0.0805  0.2540 -0.2270
 2567TIP3   OH229115   4.399   6.611  13.961 -0.8198  0.4267  0.0706
 2567TIP3    H129116   4.433   6.580  13.877  0.5953 -0.5723  0.9662
 2567TIP3    H229117   4.477   6.632  14.012 -1.6593  1.1755  1.0832
 2568TIP3   OH229118   4.939   3.660   4.336  0.6487  0.4072  0.1032
 2568TIP3    H129119   4.951   3.609   4.255 -0.0214 -0.5844  0.6005
 2568TIP3    H229120   5.020   3.646   4.385  0.2821 -0.6279  0.4507
 2569TIP3   OH229121   4.864   0.879  15.835 -0.4707  0.6823 -0.5329
 2569TIP3    H129122   4.866   0.837  15.921 -0.1987  0.1217 -0.8114
 2569TIP3    H229123   4.771   0.876  15.810 -0.2631 -1.0420 -1.1738
 2570TIP3   OH229124   4.277   4.333  16.298  0.2394 -0.0050  0.1063
 2570TIP3    H129125   4.369   4.310  16.312 -0.0026 -2.2388 -1.4106
 2570TIP3    H229126   4.228   4.262  16.339 -0.7424  0.1476 -0.7775
 2571TIP3   OH229127   2.729   1.541   0.066 -0.0015 -0.5291  0.5315
 2571TIP3    H129128   2.805   1.483   0.059  0.9222  0.3891  2.2498
 2571TIP3    H229129   2.767   1.627   0.083 -1.3902  0.3161 -0.4443
 2572TIP3   OH229130   4.762   3.262   2.627  0.4520 -0.2919  0.0036
 2572TIP3    H129131   4.694   3.245   2.562  1.2700  0.1130 -0.9885
 2572TIP3    H229132   4.786   3.354   2.613  0.1965 -0.0102  1.3217
 2573TIP3   OH229133   2.161   3.953  14.262  0.3242  0.2021 -0.3592
 2573TIP3    H129134   2.252   3.929  14.248  0.0014 -1.0848 -0.3883
 2573TIP3    H229135   2.150   3.953  14.357 -0.0160 -1.2305 -0.3716
 2574TIP3   OH229136   3.735   0.398  17.187  0.4991  0.6538 -0.4019
 2574TIP3    H129137   3.724   0.323  17.246 -0.7401  1.8050  0.9144
 2574TIP3    H229138   3.818   0.438  17.213  1.2748 -0.3458 -1.2569
 2575TIP3   OH229139   3.256   1.491  13.872  0.2340 -0.1665 -0.2343
 2575TIP3    H129140   3.303   1.519  13.950 -1.4138  2.5037 -0.0586
 2575TIP3    H229141   3.304   1.414  13.841  1.4070 -0.8724  2.9206
 2576TIP3   OH229142   2.526   3.382   0.699 -0.3360 -0.6809  0.0596
 2576TIP3    H129143   2.438   3.414   0.716  0.1324  0.4989  0.3411
 2576TIP3    H229144   2.527   3.364   0.605 -1.0562 -1.3124  0.1613
 2577TIP3   OH229145   4.283   2.451   6.771 -0.0148 -0.4076  0.3168
 2577TIP3    H129146   4.350   2.419   6.832 -0.8244  2.7132  3.1557
 2577TIP3    H229147   4.326   2.522   6.723 -0.2617 -0.9099 -0.6777
 2578TIP3   OH229148   4.154   5.033   0.230 -0.7514  0.1285  0.2623
 2578TIP3    H129149   4.192   5.056   0.146  0.4764  0.1890  0.8096
 2578TIP3    H229150   4.225   5.046   0.293 -1.2693 -1.0950  1.1422
 2579TIP3   OH229151   0.520   0.807   3.836  0.6329 -0.0581 -0.2851
 2579TIP3    H129152   0.549   0.722   3.801 -0.6719 -0.5821 -0.1459
 2579TIP3    H229153   0.426   0.796   3.850  0.8357  0.6225  1.9757
 2580TIP3   OH229154   5.094   5.327   5.041 -0.0623  0.0911 -0.1580
 2580TIP3    H129155   5.132   5.300   4.957  1.7846 -1.7641  1.1742
 2580TIP3    H229156   5.095   5.422   5.038  1.9502  0.0952 -1.4250
 2581TIP3   OH229157   3.410   6.269   2.721  0.4462 -0.2501  0.2138
 2581TIP3    H129158   3.362   6.245   2.799  0.2382 -1.8353 -0.3735
 2581TIP3    H229159   3.466   6.194   2.702 -2.2772 -1.7104 -3.2834
 2582TIP3   OH229160   6.462   2.726   0.130 -0.0659 -0.0778  0.3922
 2582TIP3    H129161   6.426   2.637   0.131 -2.1510  0.6915  1.1948
 2582TIP3    H229162   6.385   2.783   0.143  1.3343  1.7775  1.0606
 2583TIP3   OH229163   2.452   6.573   3.652 -0.5416  0.4403  0.0205
 2583TIP3    H129164   2.543   6.544   3.656 -0.1182  1.1519 -2.5788
 2583TIP3    H229165   2.434   6.611   3.738  1.4586 -0.1236  0.7257
 2584TIP3   OH229166   3.877   4.013  16.990 -0.1375  0.0030 -0.2324
 2584TIP3    H129167   3.951   4.001  16.930  0.5229 -4.3686  1.1227
 2584TIP3    H229168   3.802   4.026  16.932  1.1965  1.9333 -1.7089
 2585TIP3   OH229169   6.313   5.564   1.440 -0.1792 -0.3523  0.0565
 2585TIP3    H129170   6.227   5.594   1.468 -0.0426 -0.4954  0.6392
 2585TIP3    H229171   6.328   5.484   1.491  1.1803  0.7715  1.5029
 2586TIP3   OH229172   6.344   2.573   4.027 -0.3636 -0.3720 -0.0157
 2586TIP3    H129173   6.265   2.626   4.035 -0.6865 -0.6247 -1.3883
 2586TIP3    H229174   6.406   2.614   4.088 -0.9364  0.9642 -0.2880
 2587TIP3   OH229175   5.788   4.006   0.318 -0.5699  0.3786  0.1077
 2587TIP3    H129176   5.763   4.004   0.410  0.9802  1.3951  0.5798
 2587TIP3    H229177   5.866   4.062   0.315  2.7392 -3.7718 -0.9938
 2588TIP3   OH229178   4.020   2.369  10.754 -0.5067  0.3278  0.1671
 2588TIP3    H129179   4.054   2.333  10.672  1.0649  0.7154  0.6345
 2588TIP3    H229180   3.989   2.456  10.731  1.4743  1.1075  0.2811
 2589TIP3   OH229181   1.099   4.310  12.188  0.2476  0.0198  0.3491
 2589TIP3    H129182   1.089   4.357  12.271  2.3142  0.7119  0.2549
 2589TIP3    H229183   1.086   4.377  12.121 -1.8380 -0.6172  0.0347
 2590TIP3   OH229184   5.653   0.264   1.534 -0.2439 -0.6864 -0.2152
 2590TIP3    H129185   5.656   0.337   1.473 -0.2163 -0.0156  0.5704
 2590TIP3    H229186   5.630   0.188   1.480 -2.7679  0.3205 -0.6678
 2591TIP3   OH229187   2.526   0.177  11.370 -0.6802  0.0793  0.4325
 2591TIP3    H129188   2.523   0.272  11.365 -2.6345  0.1560  1.9476
 2591TIP3    H229189   2.484   0.148  11.289 -0.4719  0.5028  0.1676
 2592TIP3   OH229190   3.721   1.229   0.714 -0.1411 -0.1507 -0.2984
 2592TIP3    H129191   3.701   1.323   0.714  1.3996  0.2582  1.7237
 2592TIP3    H229192   3.642   1.188   0.678 -0.9030  1.8977 -1.1249
 2593TIP3   OH229193   2.530   5.356   2.421 -0.1518  0.2481 -0.3945
 2593TIP3    H129194   2.521   5.450   2.410 -0.4767  0.2615 -0.0500
 2593TIP3    H229195   2.537   5.321   2.332  0.4723  0.6413 -0.5046
 2594TIP3   OH229196   5.317   0.812   3.845  0.0289  0.1283  0.8809
 2594TIP3    H129197   5.382   0.852   3.787 -0.2086 -1.0102 -0.1921
 2594TIP3    H229198   5.297   0.881   3.909  0.2447  1.4229 -0.4119
 2595TIP3   OH229199   1.732   1.949   1.829  0.3278 -0.0360  0.1072
 2595TIP3    H129200   1.783   1.963   1.909  1.0837 -0.7160 -0.2318
 2595TIP3    H229201   1.652   1.907   1.858 -0.2216  1.3370  0.6925
 2596TIP3   OH229202   3.433   6.141  12.924 -0.5570  0.3821  0.3804
 2596TIP3    H129203   3.415   6.233  12.904  0.2896  0.0415 -2.3601
 2596TIP3    H229204   3.489   6.143  13.002  0.4618  2.2660 -0.3559
 2597TIP3   OH229205   4.252   1.328  11.014 -0.0582 -0.4021 -0.5999
 2597TIP3    H129206   4.164   1.323  11.052 -0.2546 -1.5312 -1.1547
 2597TIP3    H229207   4.238   1.314  10.920  0.6671 -0.0185 -0.7726
 2598TIP3   OH229208   2.894   1.534   6.112 -0.7660  0.0671 -0.0832
 2598TIP3    H129209   2.911   1.564   6.201  1.2617 -1.2511  0.0217
 2598TIP3    H229210   2.979   1.508   6.078 -1.6749 -0.6350 -1.9783
 2599TIP3   OH229211   3.797   6.663  13.929  0.1733 -0.0789  0.2725
 2599TIP3    H129212   3.806   6.689  14.021  0.0201  0.5647  0.1089
 2599TIP3    H229213   3.851   6.725  13.881 -0.3944  0.0925 -0.1548
 2600TIP3   OH229214   5.455   1.289   1.611  0.4031  0.1957 -0.4102
 2600TIP3    H129215   5.384   1.231   1.638  0.7259  0.2551  0.6038
 2600TIP3    H229216   5.429   1.319   1.524 -0.3995 -0.4426 -0.4076
 2601TIP3   OH229217   4.485   5.128  13.826 -0.3765  0.1028 -0.2372
 2601TIP3    H129218   4.442   5.055  13.782  0.1573 -0.6715  0.4697
 2601TIP3    H229219   4.528   5.087  13.902 -0.0580  1.1558  0.1637
 2602TIP3   OH229220   3.001   5.738   5.471 -0.0952  0.3680  0.2752
 2602TIP3    H129221   2.965   5.808   5.418 -0.2037  0.3601  0.3392
 2602TIP3    H229222   2.981   5.762   5.561  0.5853  0.6647  0.3519
 2603TIP3   OH229223   0.472   0.248  16.842  0.2836 -0.2114  0.1471
 2603TIP3    H129224   0.465   0.160  16.879  0.8740 -0.6392 -0.6972
 2603TIP3    H229225   0.567   0.265  16.839  0.2292  0.0062 -0.6705
 2604TIP3   OH229226   4.172   0.024  10.510 -0.6460  0.5040  0.1085
 2604TIP3    H129227   4.091   0.070  10.531 -0.0119  0.9918  1.7352
 2604TIP3    H229228   4.164  -0.001  10.418 -2.0406  1.7616 -0.1411
 2605TIP3   OH229229   5.884   2.879  15.111 -0.1594  0.1405 -0.0493
 2605TIP3    H129230   5.861   2.940  15.040  1.7262 -0.9548 -1.6995
 2605TIP3    H229231   5.802   2.865  15.158 -1.1667  2.0209 -1.1241
 2606TIP3   OH229232   4.911   5.866   0.327  0.6004  0.3630  0.0010
 2606TIP3    H129233   4.994   5.889   0.369  1.2221 -1.9604  0.1556
 2606TIP3    H229234   4.868   5.950   0.311  2.6044  1.5721  0.6703
 2607TIP3   OH229235   0.633   4.666  15.968 -0.0048 -0.2944  0.6563
 2607TIP3    H129236   0.597   4.653  15.880  0.7179 -0.4952  0.3782
 2607TIP3    H229237   0.723   4.635  15.961 -0.2580 -1.3720  1.7591
 2608TIP3   OH229238   5.242   6.163   4.505 -0.2778  0.0697  0.8011
 2608TIP3    H129239   5.249   6.171   4.410 -2.9186  2.0591  0.6634
 2608TIP3    H229240   5.246   6.253   4.537  0.0844 -0.5273  2.5775
 2609TIP3   OH229241   0.758   5.993  17.052 -0.1761  0.0933  0.4157
 2609TIP3    H129242   0.702   5.993  16.975 -1.7490 -0.1528  1.5032
 2609TIP3    H229243   0.745   5.907  17.091  1.5175 -0.2248  0.3384
 2610TIP3   OH229244   3.614   1.403   4.088 -0.2055 -0.3125  0.0092
 2610TIP3    H129245   3.580   1.365   4.169  1.4074  0.1296  0.9285
 2610TIP3    H229246   3.545   1.387   4.024 -1.1172 -1.5251  1.2279
 2611TIP3   OH229247   5.649   1.438   5.593 -0.1667 -0.2155 -0.3485
 2611TIP3    H129248   5.739   1.460   5.570 -0.1448  0.5248  0.3988
 2611TIP3    H229249   5.614   1.518   5.631 -0.7238 -0.8823  0.5798
 2612TIP3   OH229250   2.022   4.427   2.315 -0.4529 -0.6180  0.0004
 2612TIP3    H129251   1.993   4.457   2.401  0.0951 -2.0583  0.7024
 2612TIP3    H229252   1.977   4.344   2.302 -0.0801 -0.6939 -0.8583
 2613TIP3   OH229253   2.562   0.306   3.217 -0.5444 -0.1267  0.0712
 2613TIP3    H129254   2.520   0.268   3.140 -2.0475 -0.2802  0.9195
 2613TIP3    H229255   2.490   0.319   3.280  0.0229  3.1066  0.2482
 2614TIP3   OH229256   4.599   4.386   2.004  0.2561  0.3685  0.0242
 2614TIP3    H129257   4.676   4.335   2.031 -0.5773 -1.4713 -0.9297
 2614TIP3    H229258   4.615   4.473   2.041  2.4135 -0.1670  0.5302
 2615TIP3   OH229259   0.367   4.366   4.073 -0.1979  0.0632  0.1532
 2615TIP3    H129260   0.412   4.284   4.052  1.3326  0.5537  1.3541
 2615TIP3    H229261   0.410   4.397   4.152 -0.5929  2.1726 -0.4137
 2616TIP3   OH229262   3.262   3.577  14.231 -0.1107  0.3640 -0.1838
 2616TIP3    H129263   3.170   3.576  14.204  0.1683 -1.9788 -1.3154
 2616TIP3    H229264   3.262   3.541  14.319 -0.4073  2.1760  0.6068
 2617TIP3   OH229265   5.202   6.047   3.749 -0.1079  0.1551 -0.0970
 2617TIP3    H129266   5.218   6.116   3.813  0.7469  0.8494 -1.0274
 2617TIP3    H229267   5.122   6.004   3.778 -0.0888  0.8808  1.0598
 2618TIP3   OH229268   3.747   3.991  12.561 -0.0652  0.0815 -0.1451
 2618TIP3    H129269   3.730   4.025  12.473  1.5811  2.1626  0.2475
 2618TIP3    H229270   3.813   3.923  12.549 -0.4673 -0.2336 -0.5877
 2619TIP3   OH229271   0.462   4.336  10.546  0.3037  0.2158  1.0799
 2619TIP3    H129272   0.392   4.274  10.525  0.0914  0.8717 -0.2186
 2619TIP3    H229273   0.417   4.418  10.565  0.7158  0.7291 -0.0837
 2620TIP3   OH229274   2.221   0.833  13.156  0.3040 -0.1536  0.4313
 2620TIP3    H129275   2.279   0.872  13.090 -0.8430  1.8995  0.5621
 2620TIP3    H229276   2.234   0.887  13.234  0.2115 -1.3746  1.3254
 2621TIP3   OH229277   0.220   4.752  14.716 -0.8170 -0.4951  0.1134
 2621TIP3    H129278   0.231   4.841  14.683 -2.7300 -0.5176 -0.7482
 2621TIP3    H229279   0.242   4.759  14.809 -0.8520  0.8672  0.0507
 2622TIP3   OH229280   0.033   0.805  17.401  0.6608 -0.0590 -0.2062
 2622TIP3    H129281  -0.035   0.738  17.405 -1.2273  1.7650  0.0088
 2622TIP3    H229282  -0.010   0.880  17.361  2.8542  0.8681 -0.9615
 2623TIP3   OH229283   5.154   2.007  15.376 -0.2982  0.7172  0.1837
 2623TIP3    H129284   5.227   2.049  15.331  0.2703  0.5250  0.9027
 2623TIP3    H229285   5.188   1.987  15.463 -0.7556 -0.6364  0.0805
 2624TIP3   OH229286   5.238   1.641   0.043  0.3192 -0.5309 -0.0454
 2624TIP3    H129287   5.143   1.625   0.037  0.2789 -0.4227  0.2697
 2624TIP3    H229288   5.250   1.679   0.130  0.5466  0.2291 -0.4027
 2625TIP3   OH229289   0.800   3.123   3.082 -0.8797 -0.5798  0.2029
 2625TIP3    H129290   0.714   3.098   3.117 -0.4462 -0.9434  1.0186
 2625TIP3    H229291   0.779   3.179   3.007 -1.8207  0.2717  1.0762
 2626TIP3   OH229292   1.640   2.304  12.573 -0.0945 -0.7519  0.4214
 2626TIP3    H129293   1.596   2.345  12.648  1.4828  2.3682 -0.1789
 2626TIP3    H229294   1.724   2.275  12.608  0.3321  0.0260  0.0740
 2627TIP3   OH229295   6.437   1.897   1.318 -0.2247  0.6278  0.1872
 2627TIP3    H129296   6.525   1.873   1.289 -0.7885 -1.0479 -0.2213
 2627TIP3    H229297   6.452   1.956   1.392  1.2267  1.1689 -0.4990
 2628TIP3   OH229298   1.463   5.372   2.519  0.0694  0.6799  0.5982
 2628TIP3    H129299   1.513   5.440   2.475  1.7602 -0.3371  0.8606
 2628TIP3    H229300   1.526   5.302   2.534 -1.9385 -1.6305 -1.0436
 2629TIP3   OH229301   3.366   4.037  10.678 -0.1810  0.2550 -0.6986
 2629TIP3    H129302   3.437   4.099  10.662 -0.0531 -0.3824 -3.0498
 2629TIP3    H229303   3.303   4.054  10.607 -0.5358 -1.7009 -0.9168
 2630TIP3   OH229304   0.750   3.037  16.030  0.4801 -0.3613 -1.0697
 2630TIP3    H129305   0.693   3.068  16.100 -0.2363  0.0599 -1.8182
 2630TIP3    H229306   0.707   2.958  15.998  1.3961 -1.1892 -0.3108
 2631TIP3   OH229307   2.920   1.237  12.996 -0.7964 -0.6112  0.6193
 2631TIP3    H129308   2.959   1.187  13.068  0.7740  0.7280  0.7614
 2631TIP3    H229309   2.965   1.207  12.918 -0.7742 -0.3439  0.5286
 2632TIP3   OH229310   4.626   4.243  12.710  0.7817 -0.4172 -0.2242
 2632TIP3    H129311   4.545   4.250  12.660  0.3536  1.8353  0.6419
 2632TIP3    H229312   4.696   4.250  12.645  0.2847 -1.0193 -0.8335
 2633TIP3   OH229313   5.106   4.373   0.888 -0.0724  0.4201  0.3500
 2633TIP3    H129314   5.180   4.328   0.928  1.3333  0.9844 -1.5025
 2633TIP3    H229315   5.145   4.441   0.833 -1.8874  0.1809 -1.3615
 2634TIP3   OH229316   4.857   4.726   5.136 -0.4737  0.7554 -0.6469
 2634TIP3    H129317   4.865   4.693   5.046  2.1663  4.3582 -1.9660
 2634TIP3    H229318   4.930   4.685   5.182  0.5580  1.7861 -1.2907
 2635TIP3   OH229319   5.380   2.611   3.594 -0.0488 -0.1582  0.1336
 2635TIP3    H129320   5.467   2.589   3.558  0.7394  0.9237  1.2820
 2635TIP3    H229321   5.353   2.533   3.641  1.1339  0.0854  1.2697
 2636TIP3   OH229322   2.156   3.372   2.731 -0.0937  0.0159 -0.3972
 2636TIP3    H129323   2.139   3.375   2.637 -0.1460 -0.1818 -0.3952
 2636TIP3    H229324   2.156   3.279   2.752 -3.0122  0.0727  0.3251
 2637TIP3   OH229325   4.207   0.873   4.934  0.0054  0.3832  0.1162
 2637TIP3    H129326   4.238   0.962   4.950  0.5020  0.3463 -0.5831
 2637TIP3    H229327   4.284   0.825   4.905  0.2192 -0.8545  2.5481
 2638TIP3   OH229328   5.659   3.094   1.233 -0.4589 -0.2126 -0.4096
 2638TIP3    H129329   5.743   3.134   1.211  0.2394 -1.1197  0.5182
 2638TIP3    H229330   5.681   3.005   1.260 -1.6487 -0.2723  0.4577
 2639TIP3   OH229331   0.430   3.787   2.985 -0.0306  0.4656 -0.6293
 2639TIP3    H129332   0.465   3.874   3.001 -2.3717  1.1656  1.1584
 2639TIP3    H229333   0.388   3.793   2.900 -2.5513  1.9951  0.6231
 2640TIP3   OH229334   2.415   5.183   4.654 -0.8807  0.1633 -0.2698
 2640TIP3    H129335   2.389   5.113   4.595 -0.0139 -0.4239  0.0209
 2640TIP3    H229336   2.341   5.245   4.653 -0.3208  0.9155 -3.0624
 2641TIP3   OH229337   1.824   3.454   2.705 -0.3103  0.0960 -0.2406
 2641TIP3    H129338   1.841   3.406   2.786  0.7726 -1.3397 -1.2639
 2641TIP3    H229339   1.880   3.532   2.712  1.0036 -0.8139 -0.2687
 2642TIP3   OH229340   2.076   0.364  16.881 -0.6132 -0.1152  0.8120
 2642TIP3    H129341   2.099   0.301  16.813 -1.3555  1.3600 -0.8950
 2642TIP3    H229342   2.160   0.389  16.920  0.0614  0.3123 -0.8196
 2643TIP3   OH229343   2.718   4.435   6.213 -0.7886  0.3872 -0.2478
 2643TIP3    H129344   2.722   4.347   6.250  1.6633  1.0506  1.2596
 2643TIP3    H229345   2.794   4.441   6.155  1.3974  2.6137  2.5579
 2644TIP3   OH229346   1.399   6.178  14.259  0.1898  0.0227  0.1914
 2644TIP3    H129347   1.388   6.097  14.210  1.0456  0.4159 -0.6785
 2644TIP3    H229348   1.311   6.215  14.265 -0.0562 -0.4842 -0.2558
 2645TIP3   OH229349   4.138   1.876  11.336 -0.0971 -0.3118 -0.2598
 2645TIP3    H129350   4.052   1.839  11.356 -0.0864 -0.5068 -0.5692
 2645TIP3    H229351   4.123   1.929  11.257 -0.9050  3.2125  2.0198
 2646TIP3   OH229352   1.762   2.657  11.997 -0.0430  0.7488 -0.4281
 2646TIP3    H129353   1.838   2.698  11.954 -1.1686  1.2984 -1.9997
 2646TIP3    H229354   1.790   2.642  12.087  2.3751 -0.2182 -1.2588
 2647TIP3   OH229355   5.470   1.012   1.876 -0.2005  0.2571  0.3386
 2647TIP3    H129356   5.533   1.052   1.937  0.3339  0.2615 -0.2115
 2647TIP3    H229357   5.513   1.016   1.791 -0.9654  0.2967 -0.0564
 2648TIP3   OH229358   3.986   1.351   0.339  0.2696 -0.4730 -0.3407
 2648TIP3    H129359   3.911   1.381   0.288  0.2655  0.6680  0.2848
 2648TIP3    H229360   4.050   1.423   0.332 -0.0437  0.1052  1.8571
 2649TIP3   OH229361   3.652   4.052   4.144 -0.0404 -0.0673 -1.2900
 2649TIP3    H129362   3.721   4.091   4.197  0.3986 -2.1285 -0.2514
 2649TIP3    H229363   3.573   4.058   4.198 -0.0516 -0.2613 -1.2819
 2650TIP3   OH229364   0.913   4.349   6.020 -0.0864 -0.0167 -0.4511
 2650TIP3    H129365   0.840   4.320   5.967  0.3856  1.0849 -1.7652
 2650TIP3    H229366   0.929   4.278   6.082 -1.2121 -0.9485 -1.2159
 2651TIP3   OH229367   5.470   4.900  12.629 -0.0963  0.0409  0.1691
 2651TIP3    H129368   5.468   4.818  12.580  0.1386  0.7374 -1.0601
 2651TIP3    H229369   5.548   4.945  12.596  1.8532 -0.7158  3.3453
 2652TIP3   OH229370   3.354   5.792  14.007  0.7947  0.2710  0.2876
 2652TIP3    H129371   3.286   5.800  14.074 -1.1089 -0.0372 -1.4997
 2652TIP3    H229372   3.313   5.825  13.927  2.7263 -0.0464 -0.9008
 2653TIP3   OH229373   5.529   4.172   4.245 -0.2238  0.4060 -0.0410
 2653TIP3    H129374   5.559   4.218   4.166  0.7284 -1.5919 -0.9153
 2653TIP3    H229375   5.482   4.239   4.295  2.0206  2.6328 -0.6685
 2654TIP3   OH229376   4.727   1.297   0.678  0.6483 -0.2967  0.1772
 2654TIP3    H129377   4.645   1.336   0.648  2.0317  1.9714 -0.9039
 2654TIP3    H229378   4.700   1.219   0.726 -2.1399  0.4563  0.0051
 2655TIP3   OH229379   3.162   6.190   5.443  0.6640  0.0910 -0.5947
 2655TIP3    H129380   3.238   6.139   5.416  2.1470  1.0265  1.5565
 2655TIP3    H229381   3.129   6.144   5.520  1.2992  1.6272  0.6541
 2656TIP3   OH229382   5.638   4.411  14.964 -0.6332  0.5504 -0.6796
 2656TIP3    H129383   5.544   4.412  14.944 -0.6806  1.0121 -0.4438
 2656TIP3    H229384   5.643   4.376  15.052 -0.7950  2.8465  0.3041
 2657TIP3   OH229385   0.582   3.736   2.278  0.1913 -0.1306  0.0516
 2657TIP3    H129386   0.574   3.763   2.369 -0.7813 -0.1455 -0.0206
 2657TIP3    H229387   0.559   3.644   2.277 -1.1589  0.1903 -0.3979
 2658TIP3   OH229388   2.893   3.173  14.178  0.1591  0.1441  0.1735
 2658TIP3    H129389   2.835   3.147  14.250 -1.4004  0.2745 -0.9992
 2658TIP3    H229390   2.961   3.225  14.222 -0.3654 -0.3458  1.6513
 2659TIP3   OH229391   6.034   5.780   3.773 -0.0802  0.0662 -0.1741
 2659TIP3    H129392   6.118   5.797   3.816  0.3445  0.7527 -1.2198
 2659TIP3    H229393   5.971   5.833   3.823  0.2911  0.3668 -0.0102
 2660TIP3   OH229394   4.690   5.542   5.858 -0.1894 -0.9744 -0.0979
 2660TIP3    H129395   4.617   5.604   5.857  1.3587  0.9518 -1.8916
 2660TIP3    H229396   4.733   5.558   5.942 -0.6581 -0.6983  0.0954
 2661TIP3   OH229397   1.074   3.907  15.289 -0.0941  0.0673 -0.4769
 2661TIP3    H129398   1.033   3.924  15.204  0.0968  0.8758 -0.4185
 2661TIP3    H229399   1.090   3.994  15.326 -0.1617 -0.2756  0.3849
 2662TIP3   OH229400   0.482   4.183   0.967  0.0276  0.1775 -0.3441
 2662TIP3    H129401   0.504   4.239   0.893  0.1927  1.4617  0.6438
 2662TIP3    H229402   0.387   4.181   0.969  0.0210  0.4281 -0.3880
 2663TIP3   OH229403   4.111   2.104   3.254 -0.3010  0.5423  0.2333
 2663TIP3    H129404   4.106   2.033   3.191 -1.9634  1.0271 -0.2106
 2663TIP3    H229405   4.175   2.074   3.318 -1.2689 -1.5448  0.2968
 2664TIP3   OH229406   4.235   6.267   4.060  1.2339 -0.0610  0.1786
 2664TIP3    H129407   4.259   6.185   4.102 -0.2399  0.0989  1.4121
 2664TIP3    H229408   4.228   6.246   3.966  1.0146 -1.3102  0.4634
 2665TIP3   OH229409   5.942   1.420  13.830 -0.8592  0.4431  0.5071
 2665TIP3    H129410   5.995   1.358  13.879 -1.2623 -1.3950 -1.2613
 2665TIP3    H229411   5.967   1.406  13.739 -2.4299  1.4617 -0.1299
 2666TIP3   OH229412   4.079   2.907  14.398 -0.1848 -0.1297 -0.0420
 2666TIP3    H129413   4.160   2.857  14.406 -0.2000 -0.0978  0.3347
 2666TIP3    H229414   4.074   2.931  14.305  1.9488  2.7347  0.4725
 2667TIP3   OH229415   5.610   2.239  10.639  0.0569  0.0035 -0.4927
 2667TIP3    H129416   5.524   2.280  10.645  0.2445  0.3130  0.1646
 2667TIP3    H229417   5.667   2.308  10.605  0.3257  0.2298  0.3958
 2668TIP3   OH229418   4.339   0.870  15.873 -0.1486 -0.6129  0.6162
 2668TIP3    H129419   4.404   0.839  15.936 -0.3678 -1.1929  0.5692
 2668TIP3    H229420   4.341   0.804  15.803 -0.8733 -0.7101  0.6777
 2669TIP3   OH229421   2.964   1.654  17.244  0.7989  0.5413  0.2980
 2669TIP3    H129422   2.949   1.711  17.319  0.2304 -0.7708  1.2397
 2669TIP3    H229423   2.951   1.565  17.279 -1.8701 -0.0624 -1.8091
 2670TIP3   OH229424   5.412   4.957   2.150 -0.0814 -0.0696 -0.2571
 2670TIP3    H129425   5.380   4.969   2.239  2.0506  0.6038  0.4788
 2670TIP3    H229426   5.413   4.862   2.137  0.1261 -0.1916  0.6401
 2671TIP3   OH229427   1.352   0.187  17.060  0.4746 -0.3040  0.1102
 2671TIP3    H129428   1.441   0.214  17.037  0.1183 -0.2307 -1.2320
 2671TIP3    H229429   1.340   0.220  17.149  1.1381  1.2823 -0.3559
 2672TIP3   OH229430   0.295   5.330   3.283 -0.0572 -0.0662  0.0027
 2672TIP3    H129431   0.381   5.298   3.256  0.8625 -0.0250  2.6034
 2672TIP3    H229432   0.262   5.262   3.342 -1.8116 -0.0562 -0.9356
 2673TIP3   OH229433   6.215   6.310   1.048  0.2240  0.1055 -0.1915
 2673TIP3    H129434   6.133   6.356   1.028  0.3478 -0.2820 -1.7527
 2673TIP3    H229435   6.190   6.218   1.053  0.4764  0.0372 -0.1796
 2674TIP3   OH229436   5.797   1.722   4.981 -0.3609 -0.4179 -0.0581
 2674TIP3    H129437   5.822   1.630   4.969  1.4565 -0.1015  0.9442
 2674TIP3    H229438   5.781   1.731   5.075  0.7749  0.5618  0.0654
 2675TIP3   OH229439   4.852   4.278  13.947  0.3437 -0.5960 -0.3469
 2675TIP3    H129440   4.899   4.195  13.944  1.2462 -0.0547 -1.6620
 2675TIP3    H229441   4.767   4.256  13.987  0.3848 -2.2334 -1.1134
 2676TIP3   OH229442   6.735   6.191   4.634  0.2692  0.0543 -0.3630
 2676TIP3    H129443   6.700   6.113   4.591 -1.7710  0.8283 -0.1915
 2676TIP3    H229444   6.712   6.263   4.575 -1.6563  1.0080  1.4380
 2677TIP3   OH229445   3.451   4.359  11.034 -0.3884  0.1124  0.0790
 2677TIP3    H129446   3.481   4.381  11.122 -3.2397  1.6382  0.7874
 2677TIP3    H229447   3.356   4.352  11.042 -0.5762 -1.7459 -2.4999
 2678TIP3   OH229448   3.555   1.854   0.701  1.0285  0.4391  0.2020
 2678TIP3    H129449   3.640   1.888   0.674  0.1497  2.0192 -0.7189
 2678TIP3    H229450   3.520   1.812   0.622  1.2829 -0.9792  0.8070
 2679TIP3   OH229451   5.009   4.930   1.518  0.0804 -0.2328 -0.3959
 2679TIP3    H129452   4.919   4.925   1.486  0.2055 -2.2495 -0.5719
 2679TIP3    H229453   5.005   4.988   1.593 -1.5818 -1.0637  0.2081
 2680TIP3   OH229454   4.466   3.730  13.599  0.6318 -0.5820 -0.6918
 2680TIP3    H129455   4.483   3.814  13.556 -1.9288  0.0701 -0.5959
 2680TIP3    H229456   4.437   3.753  13.687 -0.3632 -1.5297 -0.7537
 2681TIP3   OH229457   3.197   0.215  16.020  0.4598  0.1263  0.7469
 2681TIP3    H129458   3.138   0.285  15.991 -0.3029 -0.6258  0.4373
 2681TIP3    H229459   3.140   0.156  16.070  1.1494 -0.1389  1.2310
 2682TIP3   OH229460   0.408   5.725   0.017 -0.8041 -0.3561 -0.2966
 2682TIP3    H129461   0.502   5.740   0.012 -0.8051  0.5029  1.3820
 2682TIP3    H229462   0.375   5.795   0.074 -2.1543 -1.7356  0.7297
 2683TIP3   OH229463   4.382   3.784  15.558  0.4509 -0.3171 -0.2232
 2683TIP3    H129464   4.475   3.768  15.574  0.7578  0.3694 -1.2216
 2683TIP3    H229465   4.344   3.696  15.547  1.1637 -0.5740 -0.7418
 2684TIP3   OH229466   3.811   0.810   5.666 -0.0925  0.5692  0.0676
 2684TIP3    H129467   3.768   0.800   5.751  0.1701  2.5595  0.5003
 2684TIP3    H229468   3.897   0.846   5.686  0.5615 -0.3352 -0.9819
 2685TIP3   OH229469   4.583   0.924   3.668  0.3062  0.2309  0.4711
 2685TIP3    H129470   4.621   0.836   3.667  1.3694  0.6066  2.5438
 2685TIP3    H229471   4.500   0.914   3.715 -0.8606 -0.0636 -1.5309
 2686TIP3   OH229472   4.226   6.654   1.052  0.1052  0.0386  0.1673
 2686TIP3    H129473   4.273   6.640   0.970  0.6596 -1.0403  0.6464
 2686TIP3    H229474   4.135   6.630   1.032  0.7113 -2.9973  0.5131
 2687TIP3   OH229475   6.293   4.113   4.530  0.4086  0.1201  0.1584
 2687TIP3    H129476   6.296   4.164   4.611 -1.3048  1.2719 -0.4591
 2687TIP3    H229477   6.254   4.030   4.557  1.1392 -0.0439  0.7571
 2688TIP3   OH229478   2.923   4.361  12.006  0.1864 -0.3730  0.8112
 2688TIP3    H129479   2.916   4.420  11.931 -0.8453 -0.4157  0.8604
 2688TIP3    H229480   3.015   4.334  12.006  0.2502 -0.2223 -0.3250
 2689TIP3   OH229481   3.360   5.915   2.361 -0.1597 -0.1966  0.0010
 2689TIP3    H129482   3.323   5.828   2.348 -3.2342  1.1438 -1.1416
 2689TIP3    H229483   3.284   5.972   2.376  1.3851  2.7637 -2.2525
 2690TIP3   OH229484   0.237   0.210  12.991 -0.3258  0.1382  0.0499
 2690TIP3    H129485   0.154   0.259  12.994 -0.2464  0.4046 -1.2840
 2690TIP3    H229486   0.305   0.277  13.001 -0.1929  0.4879 -2.5098
 2691TIP3   OH229487   5.796   1.227  12.737  0.8947  0.1473 -0.2660
 2691TIP3    H129488   5.776   1.314  12.772  2.2153 -0.0764  1.1411
 2691TIP3    H229489   5.713   1.197  12.700  0.2750  1.7804 -0.2980
 2692TIP3   OH229490   4.310   4.851  15.448  0.3055 -0.1791  0.1261
 2692TIP3    H129491   4.230   4.842  15.395 -0.3752 -2.1270  1.3828
 2692TIP3    H229492   4.309   4.775  15.506  3.4280 -0.6135 -0.2292
 2693TIP3   OH229493   4.952   2.339   4.319 -0.2355  0.3017  0.3847
 2693TIP3    H129494   5.010   2.399   4.366  0.8503 -0.9480  0.6824
 2693TIP3    H229495   4.965   2.360   4.227  0.3405  0.3409  0.4739
 2694TIP3   OH229496   1.866   2.340   5.685  0.4046 -0.1345  0.9338
 2694TIP3    H129497   1.836   2.354   5.596  1.3730 -0.9272  0.4638
 2694TIP3    H229498   1.961   2.342   5.680  0.4838 -0.5106  1.8903
 2695TIP3   OH229499   4.051   4.127   3.919 -0.2698  0.4862 -0.1477
 2695TIP3    H129500   3.959   4.106   3.934  0.1509 -0.8519  0.6595
 2695TIP3    H229501   4.092   4.120   4.006  0.7704  0.1532 -0.6529
 2696TIP3   OH229502   6.070   2.459  16.192 -0.1997 -0.7453 -0.7066
 2696TIP3    H129503   6.033   2.376  16.164 -1.2713 -0.9917  1.2186
 2696TIP3    H229504   6.085   2.448  16.286 -3.1849  2.1423  0.2906
 2697TIP3   OH229505   3.597   0.174  16.511 -0.2088  0.1866  0.5030
 2697TIP3    H129506   3.605   0.240  16.578  0.9607 -0.2943  0.8570
 2697TIP3    H229507   3.513   0.131  16.529 -0.0956  0.3329  1.4017
 2698TIP3   OH229508   0.075   6.234   5.938  0.4575  0.3158  0.2394
 2698TIP3    H129509   0.005   6.198   5.993 -0.6918  0.4187 -1.0915
 2698TIP3    H229510   0.069   6.184   5.857  1.9897  0.2950  0.1226
 2699TIP3   OH229511   0.636   2.610  10.747 -0.1989 -0.2727 -0.6503
 2699TIP3    H129512   0.683   2.693  10.739  3.3320 -1.9791  0.4998
 2699TIP3    H229513   0.662   2.560  10.669  0.7985 -1.6215  0.4989
 2700TIP3   OH229514   4.067   6.409  15.530  0.9167  0.1645  0.0622
 2700TIP3    H129515   4.008   6.466  15.481  0.4563 -1.7120 -1.7259
 2700TIP3    H229516   4.118   6.364  15.462  2.4556 -0.3090  1.4668
 2701TIP3   OH229517   4.218   1.205  16.329  0.3563 -0.0069  1.0078
 2701TIP3    H129518   4.228   1.198  16.424  0.0146 -0.9967  0.9770
 2701TIP3    H229519   4.125   1.227  16.316  0.4773  0.4645  0.9093
 2702TIP3   OH229520   6.268   5.870  16.078  0.2486  0.2847 -0.2371
 2702TIP3    H129521   6.260   5.963  16.059 -1.5699  0.7418  2.2391
 2702TIP3    H229522   6.190   5.849  16.130  1.0249 -2.4312  0.0057
 2703TIP3   OH229523   0.529   5.581  11.243  0.0159  0.3699  0.4559
 2703TIP3    H129524   0.542   5.491  11.272 -1.0258 -0.1474 -0.6281
 2703TIP3    H229525   0.438   5.601  11.267 -0.3355  0.4962 -0.9177
 2704TIP3   OH229526   0.853   5.226   5.425  1.0603  0.5032  1.1115
 2704TIP3    H129527   0.785   5.158   5.424  1.1216  0.2952 -3.0486
 2704TIP3    H229528   0.922   5.190   5.481 -0.3984 -1.2494  1.8750
 2705TIP3   OH229529   1.759   1.265  10.479  0.4068  0.4476  0.0391
 2705TIP3    H129530   1.675   1.239  10.517 -0.6345  0.9758 -1.8060
 2705TIP3    H229531   1.744   1.351  10.442  0.8468 -0.6240 -2.9119
 2706TIP3   OH229532   0.434   0.671  15.231  0.6800  0.5470  0.0153
 2706TIP3    H129533   0.394   0.584  15.230  2.3045 -0.2742  1.4982
 2706TIP3    H229534   0.457   0.688  15.140 -0.7264 -0.0212 -0.4779
 2707TIP3   OH229535   4.917   4.273  16.732  0.3312  0.1288  0.1342
 2707TIP3    H129536   4.957   4.274  16.645  1.1760  0.8565  0.5022
 2707TIP3    H229537   4.907   4.366  16.754 -0.1488 -0.0522  0.6903
 2708TIP3   OH229538   4.407   1.943   2.899  0.0678 -0.0409 -0.3485
 2708TIP3    H129539   4.340   1.875   2.887  1.9756 -2.2782  0.8538
 2708TIP3    H229540   4.447   1.922   2.984  1.7918  1.6859 -0.6724
 2709TIP3   OH229541   2.844   1.760   4.826 -0.7235  0.3671 -0.3306
 2709TIP3    H129542   2.795   1.678   4.824 -1.4413  0.7942 -0.7749
 2709TIP3    H229543   2.909   1.750   4.756  1.7245 -1.3032  2.0121
 2710TIP3   OH229544   1.075   3.036   0.533 -0.7188 -0.1449  0.4357
 2710TIP3    H129545   1.046   2.985   0.609  0.7808 -0.6353  0.7289
 2710TIP3    H229546   1.150   2.987   0.500 -1.0520  0.3369 -1.0784
 2711TIP3   OH229547   2.431   4.277   6.182  0.4368 -0.6210  0.1968
 2711TIP3    H129548   2.476   4.303   6.102  0.6473 -1.4873  0.0261
 2711TIP3    H229549   2.455   4.345   6.246  1.2803 -0.5984 -0.1305
 2712TIP3   OH229550   5.929   3.129  16.277  0.4599 -0.0119 -0.5356
 2712TIP3    H129551   5.891   3.086  16.200  2.9463 -0.9834 -1.3264
 2712TIP3    H229552   5.889   3.085  16.352 -0.3294 -0.5942 -1.2828
 2713TIP3   OH229553   2.251   4.130   3.212 -0.1697  0.3405  0.3121
 2713TIP3    H129554   2.183   4.129   3.144  1.4355  0.6980 -1.3723
 2713TIP3    H229555   2.326   4.172   3.170  1.5502 -1.2121  1.6519
 2714TIP3   OH229556   3.776   4.000   0.964  0.0119 -0.3745  0.1051
 2714TIP3    H129557   3.691   3.958   0.975  0.3955 -1.1466  0.2031
 2714TIP3    H229558   3.818   3.994   1.050 -1.0047  2.7516  0.9485
 2715TIP3   OH229559   3.263   0.563  15.210 -0.4670 -0.1975 -0.3471
 2715TIP3    H129560   3.264   0.647  15.255 -0.3120 -1.0411  1.2983
 2715TIP3    H229561   3.241   0.584  15.119 -0.0140  1.6422 -0.0541
 2716TIP3   OH229562   4.506   5.207   2.634 -0.1785 -0.7209 -0.0455
 2716TIP3    H129563   4.438   5.189   2.570  0.6579 -1.1049 -0.8613
 2716TIP3    H229564   4.540   5.293   2.610  1.5929 -1.7522 -1.5309
 2717TIP3   OH229565   3.627   1.850  15.653  0.0648 -0.4633  0.1192
 2717TIP3    H129566   3.715   1.812  15.653  0.7889  1.1363 -0.3099
 2717TIP3    H229567   3.613   1.879  15.743  0.0190 -0.6251  0.1640
 2718TIP3   OH229568   4.345   3.081   4.296  0.5580 -0.3339  0.1716
 2718TIP3    H129569   4.427   3.082   4.345  0.4610  2.0224  0.3976
 2718TIP3    H229570   4.364   3.129   4.215 -0.1455 -1.3233 -0.6069
 2719TIP3   OH229571   1.326   3.997   1.157 -0.2201 -0.3446 -0.2099
 2719TIP3    H129572   1.422   4.005   1.153 -0.0708 -0.5172  1.7960
 2719TIP3    H229573   1.294   4.072   1.106  0.9521 -0.8379 -1.7302
 2720TIP3   OH229574   3.284   6.254  17.030  0.2127 -0.0831  0.7320
 2720TIP3    H129575   3.292   6.171  16.983  1.3255 -0.4172  1.4793
 2720TIP3    H229576   3.371   6.271  17.064  0.1397  1.7002  0.1094
 2721TIP3   OH229577   6.492   6.215  17.004  0.1707  0.4271  0.2867
 2721TIP3    H129578   6.563   6.153  16.990 -1.1276 -1.0028 -0.2136
 2721TIP3    H229579   6.504   6.245  17.094  0.7963 -0.5948  0.5562
 2722TIP3   OH229580   4.558   6.462   3.348  0.3391  0.5551 -0.1262
 2722TIP3    H129581   4.464   6.454   3.334  0.4516 -0.2384 -0.5223
 2722TIP3    H229582   4.588   6.517   3.275  0.6138 -1.8167 -1.9233
 2723TIP3   OH229583   4.615   0.708  12.233 -0.3462 -0.3012 -0.0557
 2723TIP3    H129584   4.593   0.735  12.144  1.2618  0.7172 -0.1808
 2723TIP3    H229585   4.547   0.747  12.287  0.5611  2.0464 -0.5006
 2724TIP3   OH229586   1.281   3.054  15.384  0.4194 -0.5597 -0.3334
 2724TIP3    H129587   1.272   2.961  15.364  0.6223 -0.7571  0.4517
 2724TIP3    H229588   1.318   3.056  15.472 -0.8935  0.2612  0.2306
 2725TIP3   OH229589   0.503   5.183  14.650 -0.3293 -0.3854  0.4153
 2725TIP3    H129590   0.566   5.252  14.628 -1.7995  1.7425  2.3351
 2725TIP3    H229591   0.429   5.199  14.591 -1.3216  0.7755  1.8982
 2726TIP3   OH229592   5.522   1.447   3.119 -0.0931  0.8887  0.3681
 2726TIP3    H129593   5.576   1.376   3.084  0.7416  2.4355 -1.6754
 2726TIP3    H229594   5.568   1.475   3.198 -0.1527 -0.4494  0.9152
 2727TIP3   OH229595   5.814   3.657  16.758  0.3273 -0.2954 -0.2118
 2727TIP3    H129596   5.731   3.655  16.806 -0.3677 -0.6749 -1.3829
 2727TIP3    H229597   5.827   3.750  16.739  0.4374 -0.1777  0.4092
 2728TIP3   OH229598   2.633   0.202   4.007  0.0383  0.2391 -0.1382
 2728TIP3    H129599   2.571   0.259   3.961 -1.2867 -0.5453  0.6069
 2728TIP3    H229600   2.589   0.181   4.089 -0.0658 -2.8340 -0.8792
 2729TIP3   OH229601   4.543   4.415  14.142 -0.1576 -0.3732 -0.0926
 2729TIP3    H129602   4.457   4.432  14.180 -0.4867 -0.5527 -0.7469
 2729TIP3    H229603   4.590   4.499  14.150  0.5247 -0.9037  2.5250
 2730TIP3   OH229604   0.898   6.703  10.866  0.4096  0.6596  0.4458
 2730TIP3    H129605   0.865   6.714  10.955  0.1885 -0.0296  0.4534
 2730TIP3    H229606   0.919   6.792  10.837 -0.6947  1.0293  0.7264
 2731TIP3   OH229607   5.292   6.383  11.231  0.3900  0.3483 -0.5747
 2731TIP3    H129608   5.200   6.359  11.225  0.9158 -1.4607 -3.1441
 2731TIP3    H229609   5.292   6.477  11.248 -1.9386  0.5624 -1.4655
 2732TIP3   OH229610   6.537   2.205  10.316 -0.1911  0.3446  0.4882
 2732TIP3    H129611   6.482   2.229  10.390  0.6852  1.3056  0.8515
 2732TIP3    H229612   6.500   2.254  10.242  0.4781  1.4264  0.8454
 2733TIP3   OH229613   4.716   1.895  16.596  0.4104 -0.4615 -0.4792
 2733TIP3    H129614   4.796   1.887  16.648  0.4831  3.6612  0.3582
 2733TIP3    H229615   4.728   1.833  16.524  2.3881 -3.0177  1.8624
 2734TIP3   OH229616   3.747   5.419  12.558 -0.1570 -1.1056 -0.2056
 2734TIP3    H129617   3.814   5.485  12.542 -0.4575 -0.9713 -0.9111
 2734TIP3    H229618   3.667   5.468  12.574 -0.5189 -1.2967 -1.3508
 2735TIP3   OH229619   6.227   6.100   2.422  0.1251  0.6865 -0.4753
 2735TIP3    H129620   6.316   6.134   2.419 -0.2623  1.6733 -1.5663
 2735TIP3    H229621   6.180   6.149   2.354 -1.2423  0.1729  0.0571
 2736TIP3   OH229622   0.764   6.589  16.458  0.1694  0.0418 -0.4519
 2736TIP3    H129623   0.760   6.684  16.461 -2.2917 -0.0263 -0.0327
 2736TIP3    H229624   0.690   6.562  16.404  0.5998 -1.6692 -0.2713
 2737TIP3   OH229625   0.136   6.433   0.863 -0.0884 -0.5076  0.4621
 2737TIP3    H129626   0.124   6.362   0.926  3.0990 -1.1517  0.5317
 2737TIP3    H229627   0.219   6.413   0.821 -1.3765  0.6978 -2.9856
 2738TIP3   OH229628   1.271   2.866   1.218 -0.1206  0.3324  1.0119
 2738TIP3    H129629   1.294   2.955   1.244  2.7789  0.0487 -0.1808
 2738TIP3    H229630   1.305   2.811   1.289 -0.8318  0.0824  1.1685
 2739TIP3   OH229631   6.754   4.694   5.492 -0.2164 -0.1810 -0.2264
 2739TIP3    H129632   6.837   4.688   5.445 -0.8600 -1.3067 -1.2605
 2739TIP3    H229633   6.687   4.682   5.425 -1.1735 -1.1331  0.8601
 2740TIP3   OH229634   3.611   1.915   1.224  0.2678  0.7615  0.1316
 2740TIP3    H129635   3.688   1.858   1.222  1.2607  2.0517  0.4767
 2740TIP3    H229636   3.587   1.926   1.132  0.1831 -0.0276  0.0493
 2741TIP3   OH229637   6.124   3.840   4.877  0.1500  0.0290  0.8589
 2741TIP3    H129638   6.095   3.858   4.787 -1.4204  1.8756  1.6494
 2741TIP3    H229639   6.045   3.807   4.921 -0.1954  2.6118  2.4056
 2742TIP3   OH229640   6.125   5.300  15.841 -0.0738  0.2545  0.6426
 2742TIP3    H129641   6.140   5.367  15.908  1.1163 -0.0174  0.6676
 2742TIP3    H229642   6.185   5.230  15.864 -0.8130 -0.5419  0.2081
 2743TIP3   OH229643   6.662   2.166  17.414 -0.0386 -0.0429 -0.4882
 2743TIP3    H129644   6.569   2.168  17.434 -0.0238  0.3812 -0.4424
 2743TIP3    H229645   6.674   2.090  17.358 -0.2994 -0.4949  0.0675
 2744TIP3   OH229646   4.851   4.242  14.386 -0.3737 -0.3977 -0.1593
 2744TIP3    H129647   4.764   4.251  14.424  0.0147  1.0086  0.4766
 2744TIP3    H229648   4.907   4.215  14.459 -0.0001  0.2697 -0.1864
 2745TIP3   OH229649   5.805   6.633  12.343  0.0467 -0.2347 -0.0165
 2745TIP3    H129650   5.855   6.560  12.307  1.0645  0.0175  0.8153
 2745TIP3    H229651   5.729   6.641  12.286  1.5173  0.0926 -2.0241
 2746TIP3   OH229652   5.573   3.465   3.998 -0.3443 -0.3153  0.4917
 2746TIP3    H129653   5.502   3.515   3.956  0.5144  0.4529 -0.1033
 2746TIP3    H229654   5.569   3.379   3.957  1.1592  0.7235 -2.1327
 2747TIP3   OH229655   4.543   4.432  16.182 -0.2977 -0.3467  0.1304
 2747TIP3    H129656   4.539   4.459  16.090 -0.3165 -0.5498  0.0711
 2747TIP3    H229657   4.603   4.358  16.183 -2.2218 -2.0109 -0.1531
 2748TIP3   OH229658   3.733   3.423  11.604 -0.1259 -0.0085  0.3579
 2748TIP3    H129659   3.668   3.489  11.581 -0.0682 -0.3985 -0.9887
 2748TIP3    H229660   3.808   3.443  11.549 -0.2909 -1.4889 -0.4485
 2749TIP3   OH229661   2.016   0.428   1.769 -0.3417 -0.4243 -0.6739
 2749TIP3    H129662   2.007   0.519   1.797 -2.0808 -0.4655 -1.0081
 2749TIP3    H229663   1.990   0.428   1.677  0.6475 -1.0974 -0.9662
 2750TIP3   OH229664   1.973   5.395  11.000  0.2934  0.2412  0.2301
 2750TIP3    H129665   1.899   5.385  11.060 -0.4430  1.3176 -0.4602
 2750TIP3    H229666   2.040   5.440  11.052  0.3098 -0.3322  0.7224
 2751TIP3   OH229667   6.177   6.629   4.421  0.0383  0.5500  0.3267
 2751TIP3    H129668   6.195   6.583   4.503  1.0113  0.2758 -0.0294
 2751TIP3    H229669   6.225   6.580   4.355  0.6740  1.7588 -0.1410
 2752TIP3   OH229670   2.528   3.595  13.499  0.6231 -0.2672  0.0742
 2752TIP3    H129671   2.442   3.555  13.511  0.0771  0.8470 -0.0183
 2752TIP3    H229672   2.570   3.588  13.585  0.9270 -1.8597 -0.1672
 2753TIP3   OH229673   5.223   5.303   1.027  0.3914 -0.0008  0.1860
 2753TIP3    H129674   5.204   5.397   1.032 -1.3631 -0.2546 -0.7418
 2753TIP3    H229675   5.137   5.261   1.029  1.0214 -1.4817 -1.1771
 2754TIP3   OH229676   3.108   4.338   2.711  0.4558 -0.0591  0.3562
 2754TIP3    H129677   3.074   4.405   2.770 -0.2662 -0.1903  0.0959
 2754TIP3    H229678   3.076   4.255   2.746 -2.2707  0.0104 -1.6388
 2755TIP3   OH229679   1.671   4.018   1.931  0.2297  0.0420  1.0527
 2755TIP3    H129680   1.710   4.045   2.014 -1.6745  0.5283  1.8580
 2755TIP3    H229681   1.598   4.079   1.919 -0.1816 -0.7072 -0.4322
 2756TIP3   OH229682   1.741   4.585   0.239  0.5336 -0.5425 -0.2397
 2756TIP3    H129683   1.809   4.530   0.200  0.9070 -0.0592 -0.2857
 2756TIP3    H229684   1.659   4.553   0.201  0.7161 -1.2284 -0.0703
 2757TIP3   OH229685   5.196   5.079  16.910 -0.2184 -0.2098  0.0302
 2757TIP3    H129686   5.198   4.984  16.895 -0.6142 -0.4268  1.2134
 2757TIP3    H229687   5.132   5.112  16.847  1.3917 -0.4083 -1.8189
 2758TIP3   OH229688   1.933   2.086   4.583 -0.0516 -0.5310 -0.1187
 2758TIP3    H129689   1.890   2.003   4.606 -0.1955  0.0497  1.8891
 2758TIP3    H229690   1.861   2.148   4.572  0.1501  0.1641  2.0805
 2759TIP3   OH229691   2.759   1.161   4.252  0.4638  0.1519 -0.2125
 2759TIP3    H129692   2.667   1.185   4.252  0.4462  0.0923  0.7988
 2759TIP3    H229693   2.802   1.232   4.204  0.1794  1.3400  1.2418
 2760TIP3   OH229694   2.477   0.233   4.227 -0.7064  0.3183  0.3460
 2760TIP3    H129695   2.434   0.307   4.184  1.1314  0.5563 -1.1691
 2760TIP3    H229696   2.526   0.272   4.299 -0.1091  0.5241 -0.1687
 2761TIP3   OH229697   3.384   2.236   1.827 -0.0218 -0.3942  0.9057
 2761TIP3    H129698   3.337   2.160   1.791 -2.7325  1.1540  0.8509
 2761TIP3    H229699   3.430   2.201   1.903  0.2860 -2.3971 -0.1042
 2762TIP3   OH229700   6.065   2.494  13.687  0.0909  0.2514  0.1338
 2762TIP3    H129701   6.112   2.517  13.767  0.5223 -0.3482  0.0585
 2762TIP3    H229702   6.002   2.428  13.714  0.7378 -0.5002 -0.1401
 2763TIP3   OH229703   5.758   1.798  16.021  0.8116 -0.1173 -0.6999
 2763TIP3    H129704   5.761   1.857  15.946 -2.6560  1.8910  0.5257
 2763TIP3    H229705   5.697   1.728  15.995  0.2200  0.1536 -0.0727
 2764TIP3   OH229706   5.949   2.146  14.212  0.2587 -0.1030 -0.3657
 2764TIP3    H129707   6.039   2.151  14.180  0.4698  1.5015  0.3957
 2764TIP3    H229708   5.955   2.094  14.292  0.6506  0.6111  0.0814
 2765TIP3   OH229709   5.620   1.618   0.549  0.3455  0.0297 -0.1233
 2765TIP3    H129710   5.641   1.692   0.606  0.2966  1.6990 -2.1632
 2765TIP3    H229711   5.525   1.611   0.552  0.3291  0.2404 -0.1162
 2766TIP3   OH229712   4.860   4.805   3.896  0.8802 -0.5694 -0.6168
 2766TIP3    H129713   4.825   4.734   3.842  1.2028 -0.7061 -0.6525
 2766TIP3    H229714   4.891   4.870   3.832  0.6702 -0.4395 -0.5856
 2767TIP3   OH229715   6.214   6.386  11.798  0.1802  0.1407  0.0535
 2767TIP3    H129716   6.293   6.440  11.806  0.1232  0.2033  0.2006
 2767TIP3    H229717   6.149   6.446  11.762  0.1498  0.1384  0.1048
 2768TIP3   OH229718   4.285   1.044   3.586  0.1284 -0.2677  0.2000
 2768TIP3    H129719   4.321   1.022   3.672  2.2213  1.2221 -0.2077
 2768TIP3    H229720   4.198   1.081   3.605 -0.0460 -1.2743  1.5134
 2769TIP3   OH229721   1.781   1.360   2.683  0.0836 -0.4543  0.6020
 2769TIP3    H129722   1.859   1.414   2.693  2.1474 -2.8850 -1.3806
 2769TIP3    H229723   1.754   1.373   2.592 -0.3423 -1.5220  0.5638
 2770TIP3   OH229724   2.588   2.597   0.179  0.3056 -0.1575  0.1698
 2770TIP3    H129725   2.605   2.506   0.201  0.0141 -0.4167 -0.6591
 2770TIP3    H229726   2.579   2.598   0.084  1.2258  0.8870  0.0736
 2771TIP3   OH229727   3.331   0.451  17.144  0.2308  0.4718 -0.0442
 2771TIP3    H129728   3.400   0.453  17.211 -0.8962 -2.5034  1.4143
 2771TIP3    H229729   3.333   0.361  17.111 -0.9032  1.1990 -2.2484
 2772TIP3   OH229730   1.962   2.962  13.509  0.8167  0.0066 -0.4258
 2772TIP3    H129731   2.055   2.981  13.494  0.8081 -1.5233 -2.8062
 2772TIP3    H229732   1.929   2.933  13.424 -2.0366  1.1446  0.1843
 2773TIP3   OH229733   2.980   5.033  12.002  0.0788  0.0896  0.1716
 2773TIP3    H129734   2.926   5.101  12.042  0.3714  1.0469 -0.9744
 2773TIP3    H229735   3.067   5.047  12.038  0.0457  0.0258  0.2773
 2774TIP3   OH229736   0.685   1.466   2.442 -0.8462  0.3315 -0.5050
 2774TIP3    H129737   0.775   1.470   2.412 -1.0027  1.3147 -0.8747
 2774TIP3    H229738   0.641   1.408   2.379 -0.5204  0.0256 -0.4484
 2775TIP3   OH229739   5.535   5.321   4.541  0.4359 -0.1438  0.0759
 2775TIP3    H129740   5.553   5.316   4.447  0.7764 -0.2720  0.1463
 2775TIP3    H229741   5.522   5.230   4.568  1.3308 -0.2078  0.3378
 2776TIP3   OH229742   0.617   0.462  16.443  0.5603  0.1422 -0.2546
 2776TIP3    H129743   0.600   0.503  16.527  0.1683  1.2340 -0.8411
 2776TIP3    H229744   0.559   0.386  16.441  0.0506  0.5142  0.1786
 2777TIP3   OH229745   5.691   4.385   1.874  0.5252 -0.5254  0.1359
 2777TIP3    H129746   5.604   4.368   1.839  0.0146  1.6871  0.1547
 2777TIP3    H229747   5.686   4.358   1.965 -0.3484  0.1604  0.2997
 2778TIP3   OH229748   3.520   0.635  16.443  0.1599 -0.0561  0.3878
 2778TIP3    H129749   3.559   0.548  16.431  1.4731  0.7373 -1.6091
 2778TIP3    H229750   3.593   0.690  16.470 -0.5238  0.5901  0.9438
 2779TIP3   OH229751   1.559   2.266  16.319  0.4118 -0.5733 -0.2189
 2779TIP3    H129752   1.487   2.203  16.327  0.0528 -0.2447 -0.7445
 2779TIP3    H229753   1.638   2.215  16.339  0.5505 -2.1497 -3.8803
 2780TIP3   OH229754   3.427   1.553  14.060 -0.4489 -0.6519 -0.0980
 2780TIP3    H129755   3.443   1.522  14.150 -0.8925  0.6761  0.4615
 2780TIP3    H229756   3.508   1.600  14.037 -1.3121  1.3255  0.6611
 2781TIP3   OH229757   5.090   2.110   4.243  0.2063  0.0822  0.3929
 2781TIP3    H129758   5.143   2.147   4.173 -1.9397  0.3444 -1.1803
 2781TIP3    H229759   5.040   2.185   4.277 -0.9354 -0.5696  0.1837
 2782TIP3   OH229760   3.441   2.100   4.192 -0.0706 -0.4952  0.3568
 2782TIP3    H129761   3.505   2.143   4.135 -2.1911  2.4152 -0.0341
 2782TIP3    H229762   3.409   2.026   4.140  4.8706 -4.1652  1.6777
 2783TIP3   OH229763   0.082   2.182  10.963  0.2265  0.2319  0.3812
 2783TIP3    H129764   0.139   2.194  11.039 -0.7882 -0.4020  1.2711
 2783TIP3    H229765   0.030   2.104  10.984 -1.0451  0.8572 -0.3452
 2784TIP3   OH229766   6.764   5.105  12.011 -0.0801  0.7661 -0.7621
 2784TIP3    H129767   6.802   5.018  12.024  0.6292  0.9290 -1.6834
 2784TIP3    H229768   6.672   5.095  12.038  1.1280  1.1198  4.6991
 2785TIP3   OH229769   0.326   3.871   0.385 -0.0056 -0.1958 -0.6240
 2785TIP3    H129770   0.259   3.929   0.348  1.0144  0.6801 -1.1670
 2785TIP3    H229771   0.409   3.903   0.347  1.0416  0.3993  1.9406
 2786TIP3   OH229772   2.308   5.114   1.959  0.2844  0.2724  0.1026
 2786TIP3    H129773   2.266   5.064   2.030 -0.2272  0.3470 -0.1417
 2786TIP3    H229774   2.338   5.194   2.001 -0.7614  0.6957  0.0839
 2787TIP3   OH229775   3.685   1.314  13.331 -0.2698 -0.2245 -0.3506
 2787TIP3    H129776   3.773   1.288  13.304  0.0393  0.0413  0.3639
 2787TIP3    H229777   3.657   1.377  13.265 -0.3133 -1.0187 -1.1074
 2788TIP3   OH229778   3.358   2.732   3.131  0.5414  0.3381 -0.9528
 2788TIP3    H129779   3.409   2.721   3.212  0.3641 -0.1068 -0.9000
 2788TIP3    H229780   3.424   2.734   3.062  0.6035 -0.8659 -0.9464
 2789TIP3   OH229781   4.540   5.186   1.618 -0.1381  0.1370  0.1656
 2789TIP3    H129782   4.446   5.174   1.607  0.3011 -3.0908 -1.4979
 2789TIP3    H229783   4.557   5.276   1.590 -2.6760  0.8106  0.5585
 2790TIP3   OH229784   4.078   2.888   0.433  0.2498  0.0372  0.8407
 2790TIP3    H129785   4.045   2.805   0.398  1.7332 -0.4149  0.4185
 2790TIP3    H229786   4.064   2.951   0.362 -1.3887  0.3094  1.3655
 2791TIP3   OH229787   2.146   0.512   4.296  0.1627 -0.0770 -0.0596
 2791TIP3    H129788   2.163   0.500   4.390 -3.6706  2.3671  1.1896
 2791TIP3    H229789   2.083   0.444   4.274  0.8673 -0.4883 -0.8374
 2792TIP3   OH229790   5.369   0.044  15.285  0.4009 -0.7464 -0.1773
 2792TIP3    H129791   5.456   0.039  15.245  0.1163 -1.1382 -0.7557
 2792TIP3    H229792   5.386   0.071  15.375  0.8741  2.9043 -1.2025
 2793TIP3   OH229793   3.463   1.218  14.067  0.0042 -0.1715 -0.0617
 2793TIP3    H129794   3.536   1.160  14.043  0.6228 -0.6175  2.6472
 2793TIP3    H229795   3.483   1.300  14.022  0.8083 -1.0563 -1.4031
 2794TIP3   OH229796   1.209   2.961  16.233  0.5644  0.3100  0.0230
 2794TIP3    H129797   1.243   2.875  16.207 -0.6452  0.0547 -0.7701
 2794TIP3    H229798   1.137   2.978  16.172  0.1697  1.4547  0.7810
 2795TIP3   OH229799   5.533   2.938  11.067 -0.1284  0.3855 -0.1783
 2795TIP3    H129800   5.459   2.882  11.041  0.7811 -0.9171 -0.0397
 2795TIP3    H229801   5.603   2.914  11.007  0.9729 -0.2331  1.3151
 2796TIP3   OH229802   3.801   5.438   3.847 -0.0105 -0.0576  0.1337
 2796TIP3    H129803   3.823   5.352   3.810 -0.6561  0.0395 -0.4890
 2796TIP3    H229804   3.753   5.418   3.927 -0.5495 -0.2896 -0.2405
 2797TIP3   OH229805   5.223   3.938  14.616  0.0908  0.0476  0.6718
 2797TIP3    H129806   5.226   3.905  14.526 -0.3217 -0.3320  0.7926
 2797TIP3    H229807   5.189   4.027  14.607  2.4534  0.9705  0.2160
 2798TIP3   OH229808   5.381   1.695  13.200  0.3845 -0.0283  0.2225
 2798TIP3    H129809   5.420   1.702  13.287 -0.2772 -1.7630  0.7048
 2798TIP3    H229810   5.363   1.785  13.175  0.8663  0.5340  1.7526
 2799TIP3   OH229811   2.797   0.888   4.561  0.1736  0.4073 -0.3390
 2799TIP3    H129812   2.765   0.799   4.547  0.6681  0.2840 -0.7079
 2799TIP3    H229813   2.814   0.892   4.655  0.4227  0.0153 -0.3619
 2800TIP3   OH229814   5.130   3.756  13.859 -0.3364  0.2640 -0.3501
 2800TIP3    H129815   5.064   3.820  13.885  0.4643  1.7273 -1.7171
 2800TIP3    H229816   5.100   3.723  13.774  0.3853  0.5003 -0.7013
 2801TIP3   OH229817   3.552   5.183   5.797 -0.0923 -0.1194 -0.0022
 2801TIP3    H129818   3.577   5.273   5.815 -0.7140  0.1009 -0.2036
 2801TIP3    H229819   3.630   5.143   5.758  0.2212  0.2955  0.1995
 2802TIP3   OH229820   3.562   6.349  11.079  0.2683  0.2588 -0.0829
 2802TIP3    H129821   3.541   6.390  11.162 -0.0228  0.3946 -0.2225
 2802TIP3    H229822   3.527   6.409  11.013  0.0297 -0.1112 -0.2913
 2803TIP3   OH229823   2.589   2.181  16.498 -0.0062 -0.4450  0.5521
 2803TIP3    H129824   2.602   2.268  16.535  0.9634 -0.5753  0.5367
 2803TIP3    H229825   2.613   2.190  16.406  1.5772 -1.0583  0.8771
 2804TIP3   OH229826   0.346   0.949  10.949 -0.5222  0.0192 -0.2293
 2804TIP3    H129827   0.255   0.925  10.929 -1.2146  0.6020  1.9333
 2804TIP3    H229828   0.398   0.880  10.909 -2.0911 -1.7440  0.5848
 2805TIP3   OH229829   3.604   5.918  10.154 -0.3735  0.4760  0.3382
 2805TIP3    H129830   3.641   5.997  10.114  1.1673  0.2282  1.2256
 2805TIP3    H229831   3.521   5.948  10.192 -1.0079  1.1053 -1.4092
 2806TIP3   OH229832   5.536   2.540  11.346 -0.1931  0.3878 -0.3089
 2806TIP3    H129833   5.608   2.494  11.303  1.3006  1.5127  0.8855
 2806TIP3    H229834   5.479   2.470  11.377  0.7906 -0.5770 -0.5995
 2807TIP3   OH229835   6.623   3.815   0.390  0.2900  0.1136  0.0758
 2807TIP3    H129836   6.666   3.900   0.392 -0.7851  0.7312 -1.2913
 2807TIP3    H229837   6.563   3.817   0.465 -0.4835  1.0151 -0.5381
 2808TIP3   OH229838   5.094   0.570  11.216 -0.6594  0.3959  0.7525
 2808TIP3    H129839   5.117   0.644  11.272  0.0768  0.3098  0.5805
 2808TIP3    H229840   5.090   0.495  11.276  1.2490  0.0891  0.5690
 2809TIP3   OH229841   1.384   5.605   0.244 -0.3348  0.4743  0.5835
 2809TIP3    H129842   1.375   5.514   0.214  1.2021  0.6531 -0.5584
 2809TIP3    H229843   1.351   5.604   0.334  1.5741 -1.7115  1.3789
 2810TIP3   OH229844   2.268   2.861   2.789  0.5561  0.8191  0.0763
 2810TIP3    H129845   2.196   2.808   2.826  2.0059 -1.0702  0.3398
 2810TIP3    H229846   2.250   2.862   2.695 -0.0360  0.7006  0.1810
 2811TIP3   OH229847   3.157   6.552   2.644  0.8673  0.3365  0.0142
 2811TIP3    H129848   3.223   6.586   2.706  0.9421  1.0699 -0.4504
 2811TIP3    H229849   3.074   6.585   2.678  0.9316  0.9389 -0.3899
 2812TIP3   OH229850   2.164   4.660   1.883  0.2342 -0.2218 -0.2424
 2812TIP3    H129851   2.082   4.708   1.892  0.5337  0.4756 -1.1500
 2812TIP3    H229852   2.146   4.574   1.923 -1.1236 -0.2924 -0.9605
 2813TIP3   OH229853   1.452   5.639   5.873  0.4119 -0.6123 -0.3111
 2813TIP3    H129854   1.376   5.667   5.924 -1.0206 -2.7536 -1.1179
 2813TIP3    H229855   1.520   5.624   5.938 -0.7412 -1.3039  0.7960
 2814TIP3   OH229856   3.409   1.407  13.409 -0.3383  0.2155 -0.3290
 2814TIP3    H129857   3.499   1.378  13.394 -0.7817 -1.5405  0.1689
 2814TIP3    H229858   3.416   1.501  13.426  1.2221  0.4087 -1.7514
 2815TIP3   OH229859   5.155   4.041   5.139  0.1732 -0.0139  0.3297
 2815TIP3    H129860   5.112   3.992   5.068  1.0869  1.1811 -1.1175
 2815TIP3    H229861   5.157   3.980   5.212  0.0604 -1.6611 -0.9778
 2816TIP3   OH229862   1.128   5.087   3.735  0.0689  0.2334 -0.5046
 2816TIP3    H129863   1.216   5.106   3.769 -0.1987  1.9212 -0.6468
 2816TIP3    H229864   1.069   5.124   3.801 -0.5267 -0.0971 -0.8501
 2817TIP3   OH229865   1.258   1.457  12.317  0.5671 -0.0758  0.0639
 2817TIP3    H129866   1.353   1.467  12.313  0.7865 -1.6338  0.7475
 2817TIP3    H229867   1.240   1.385  12.256  0.2671 -2.1245  2.4274
 2818TIP3   OH229868   6.100   1.513   0.542 -0.4315  0.3308  0.3983
 2818TIP3    H129869   6.037   1.543   0.477 -0.1592  0.5644  0.2465
 2818TIP3    H229870   6.050   1.450   0.596 -1.4199  2.0355  1.5727
 2819TIP3   OH229871   4.941   5.147   0.746 -0.3131 -0.3309  0.1708
 2819TIP3    H129872   4.918   5.074   0.804 -2.4035 -1.6182 -2.0590
 2819TIP3    H229873   4.932   5.110   0.658 -1.1249  2.5297 -1.0635
 2820TIP3   OH229874   3.954   5.394   5.239  0.1470 -0.1577 -0.9242
 2820TIP3    H129875   4.034   5.361   5.199 -0.0013 -0.3407 -1.0705
 2820TIP3    H229876   3.984   5.455   5.307  0.4314 -0.8836 -0.3913
 2821TIP3   OH229877   1.873   3.896  13.581 -0.9773  0.5977  0.3859
 2821TIP3    H129878   1.831   3.822  13.538  1.8990 -0.2611 -1.2391
 2821TIP3    H229879   1.966   3.885  13.562 -0.1686  3.3782  2.0972
 2822TIP3   OH229880   6.089   1.960  15.700 -0.2956 -0.2194 -0.1171
 2822TIP3    H129881   6.170   1.964  15.750 -1.0182  0.6228  1.0221
 2822TIP3    H229882   6.084   2.045  15.655 -0.6958 -0.1549  0.0486
 2823TIP3   OH229883   6.655   2.748  15.574  0.4207  0.0447 -0.8637
 2823TIP3    H129884   6.609   2.731  15.491  0.5147  1.2893 -1.1984
 2823TIP3    H229885   6.683   2.839  15.567  2.7158 -0.5750 -0.5530
 2824TIP3   OH229886   3.915   5.118  14.995  0.1728 -0.2626 -0.2314
 2824TIP3    H129887   3.861   5.100  15.073 -0.6001 -0.1580 -0.7325
 2824TIP3    H229888   3.864   5.182  14.945  0.2780 -0.9296 -1.2201
 2825TIP3   OH229889   0.907   3.061  10.421 -0.4981  0.0705 -0.0523
 2825TIP3    H129890   1.001   3.052  10.437 -0.7397  0.0905  1.5651
 2825TIP3    H229891   0.891   3.155  10.431 -0.6846  0.0735 -0.3812
 2826TIP3   OH229892   4.226   0.178   3.234 -0.6790 -0.7103  0.0494
 2826TIP3    H129893   4.293   0.131   3.284 -1.7085 -0.2222  1.9681
 2826TIP3    H229894   4.276   0.236   3.176  0.5591 -2.1215 -0.3780
 2827TIP3   OH229895   1.407   2.377  17.357  0.9178 -0.0230 -0.2297
 2827TIP3    H129896   1.377   2.287  17.358 -0.1482  0.3061 -1.0126
 2827TIP3    H229897   1.499   2.372  17.385  0.7111 -1.2685  0.2830
 2828TIP3   OH229898   5.168   0.327  13.021 -0.2470 -0.6380 -0.1283
 2828TIP3    H129899   5.131   0.336  13.108  0.9940 -1.3892  0.5047
 2828TIP3    H229900   5.251   0.281  13.034  0.1206 -0.4912 -1.6673
 2829TIP3   OH229901   4.354   2.957  16.157 -0.1633  0.0751 -0.8799
 2829TIP3    H129902   4.414   2.882  16.157 -0.9502 -0.5860  0.0047
 2829TIP3    H229903   4.387   3.015  16.225 -1.1435 -0.8387  0.4220
 2830TIP3   OH229904   2.346   2.269   4.181 -0.2426  0.0435  0.2998
 2830TIP3    H129905   2.359   2.363   4.165  1.6488 -0.4407 -1.3824
 2830TIP3    H229906   2.384   2.254   4.267  0.5385  0.6356  0.0691
 2831TIP3   OH229907   2.144   5.718   5.641  0.4714  0.4405 -0.2205
 2831TIP3    H129908   2.169   5.784   5.705 -1.6808  2.0333 -0.8729
 2831TIP3    H229909   2.184   5.748   5.559  2.0984 -0.8493  0.0633
 2832TIP3   OH229910   5.706   3.051  15.976  0.6980  0.0740  0.0025
 2832TIP3    H129911   5.786   3.059  15.923  0.1823 -1.2095 -1.0333
 2832TIP3    H229912   5.638   3.027  15.913  0.4885 -3.8258  1.4068
 2833TIP3   OH229913   4.471   2.238  11.610 -0.2459  0.4539  0.1557
 2833TIP3    H129914   4.425   2.244  11.526 -0.7670 -1.3922  0.2569
 2833TIP3    H229915   4.402   2.218  11.673  0.6262 -3.0620  0.2190
 2834TIP3   OH229916   0.230   3.552  12.554  0.9425  0.5907  0.2905
 2834TIP3    H129917   0.255   3.631  12.603  1.2129  1.3901 -1.0743
 2834TIP3    H229918   0.289   3.552  12.479  0.1016 -0.2344 -0.3790
 2835TIP3   OH229919   1.129   1.115   2.633 -0.2093 -0.6677 -0.7710
 2835TIP3    H129920   1.035   1.128   2.619  0.0285  0.6182 -1.2967
 2835TIP3    H229921   1.149   1.169   2.709 -0.2275 -2.4757  0.6008
 2836TIP3   OH229922   1.771   0.845   3.305 -0.2864  0.1399 -0.1785
 2836TIP3    H129923   1.798   0.776   3.365  3.3501  2.0779  0.7515
 2836TIP3    H229924   1.829   0.835   3.229 -0.2910  1.5486 -0.4091
 2837TIP3   OH229925   2.929   5.600   5.167  0.2811 -0.3987  0.3330
 2837TIP3    H129926   2.976   5.672   5.210  1.2760  0.9506 -2.7366
 2837TIP3    H229927   2.854   5.643   5.126  0.3467 -1.2736 -0.7378
 2838TIP3   OH229928   3.060   0.492  16.144  0.1971  0.5354 -0.1591
 2838TIP3    H129929   3.126   0.554  16.175 -0.7123  1.9310 -0.9005
 2838TIP3    H229930   3.012   0.466  16.222 -0.2457  1.7969  0.0095
 2839TIP3   OH229931   5.040   0.148  14.668 -0.7822  0.0263  0.3293
 2839TIP3    H129932   5.054   0.225  14.722 -0.1018  0.0252  0.1638
 2839TIP3    H229933   5.127   0.110  14.657 -0.9967 -0.3135 -0.2611
 2840TIP3   OH229934   4.397   5.613   5.163  0.0683  0.1520 -0.6064
 2840TIP3    H129935   4.336   5.544   5.188 -0.7734  0.8740 -0.6104
 2840TIP3    H229936   4.390   5.619   5.068  0.6763 -0.2305 -0.6836
 2841TIP3   OH229937   4.750   6.339  14.395  0.4629  0.4916  0.1717
 2841TIP3    H129938   4.694   6.416  14.390  1.0196  0.8493 -0.6427
 2841TIP3    H229939   4.804   6.353  14.473 -0.7600 -0.0013  1.1501
 2842TIP3   OH229940   2.031   1.376  17.158  0.4534  0.0302  0.0673
 2842TIP3    H129941   2.023   1.282  17.176  1.1337  0.2357  1.5791
 2842TIP3    H229942   2.109   1.383  17.103  0.1842 -0.3236 -0.3627
 2843TIP3   OH229943   6.224   2.942  16.707  0.3032 -0.0922 -0.1856
 2843TIP3    H129944   6.155   2.891  16.665  0.2628  0.9525 -1.4583
 2843TIP3    H229945   6.305   2.907  16.670  0.4137 -0.6467  0.5572
 2844TIP3   OH229946   0.158   5.045  15.480 -0.4491 -0.4404  0.3627
 2844TIP3    H129947   0.196   4.976  15.425  0.3353 -0.1597  0.5294
 2844TIP3    H229948   0.228   5.110  15.488 -1.0438  0.1910  0.5323
 2845TIP3   OH229949   3.094   6.498  10.902 -0.5759 -0.3288  0.1328
 2845TIP3    H129950   3.045   6.572  10.937 -1.3204 -0.1353 -1.2606
 2845TIP3    H229951   3.043   6.421  10.926 -0.6707 -0.2625  0.1422
 2846TIP3   OH229952   3.995   4.972   1.843  0.0045  0.0540 -0.0609
 2846TIP3    H129953   4.076   4.929   1.870 -0.9730 -1.0243  1.2960
 2846TIP3    H229954   3.969   5.023   1.920  0.3073  1.8634 -1.1097
 2847TIP3   OH229955   3.728   5.579   5.343 -0.1657 -0.1696 -0.4690
 2847TIP3    H129956   3.785   5.614   5.275 -1.7945 -0.6820 -2.1567
 2847TIP3    H229957   3.641   5.609   5.319 -0.5479  1.9940  2.9277
 2848TIP3   OH229958   5.497   5.044   5.927  0.3378  0.0145 -0.1935
 2848TIP3    H129959   5.434   5.038   5.998 -1.0080  2.6541 -1.0212
 2848TIP3    H229960   5.562   5.108   5.957 -0.1254  0.9881 -1.1947
 2849TIP3   OH229961   3.790   5.949   3.802  0.6433  0.4735 -0.0910
 2849TIP3    H129962   3.876   5.918   3.833  0.0698 -1.9849 -0.7406
 2849TIP3    H229963   3.777   5.904   3.719 -1.5974  0.1402  0.3736
 2850TIP3   OH229964   1.260   1.698  16.601  0.0466  0.1953 -0.2289
 2850TIP3    H129965   1.260   1.700  16.505 -1.3436  0.2920 -0.2444
 2850TIP3    H229966   1.338   1.748  16.626 -0.1023  1.0112 -1.3097
 2851TIP3   OH229967   2.646   3.406  14.379  0.4871 -0.4675  0.2060
 2851TIP3    H129968   2.679   3.391  14.290  2.2472 -1.0644  0.9012
 2851TIP3    H229969   2.593   3.329  14.399 -2.3801  0.9535 -1.2973
 2852TIP3   OH229970   4.618   0.909  15.730 -0.0374  0.4305  0.4693
 2852TIP3    H129971   4.535   0.880  15.692  0.8131 -1.1037 -0.2790
 2852TIP3    H229972   4.650   0.975  15.669 -0.1748  0.2153  0.1581
 2853TIP3   OH229973   2.743   2.599   4.810  0.3224  0.3706 -0.4333
 2853TIP3    H129974   2.802   2.635   4.744 -1.5036  1.5383 -1.5173
 2853TIP3    H229975   2.767   2.645   4.891  2.6959 -1.1997 -0.1641
 2854TIP3   OH229976   1.166   4.870   3.257 -0.2863 -0.2812  0.3214
 2854TIP3    H129977   1.165   4.965   3.245  1.0882 -0.3789 -0.8510
 2854TIP3    H229978   1.111   4.855   3.334  0.6520  1.5895  1.4269
 2855TIP3   OH229979   0.936   5.377  15.575  0.3804  0.2233 -0.5537
 2855TIP3    H129980   1.024   5.340  15.587  1.1060  2.2973  1.2320
 2855TIP3    H229981   0.907   5.398  15.664 -2.9382 -2.4141 -0.8051
 2856TIP3   OH229982   0.594   0.943  14.759 -0.3494 -0.4695 -0.2850
 2856TIP3    H129983   0.638   1.020  14.795  0.1648 -1.0248  0.2972
 2856TIP3    H229984   0.621   0.941  14.667 -0.6312  0.2196 -0.3966
 2857TIP3   OH229985   0.172   1.247  16.518 -0.0454 -0.7041 -0.7073
 2857TIP3    H129986   0.189   1.332  16.478 -0.4156 -0.8191 -1.1098
 2857TIP3    H229987   0.124   1.268  16.599  1.0768 -0.4466 -0.0847
 2858TIP3   OH229988   1.368   5.692   3.961 -0.7048 -0.5130  0.2088
 2858TIP3    H129989   1.365   5.597   3.973  0.2317 -0.6673 -0.6086
 2858TIP3    H229990   1.461   5.713   3.967 -1.0374  0.6114  2.0980
 2859TIP3   OH229991   1.536   5.472  13.409  0.2772  0.0361 -0.1103
 2859TIP3    H129992   1.520   5.385  13.372  2.9708 -0.4000 -0.4605
 2859TIP3    H229993   1.508   5.466  13.500  0.9802 -1.4133  0.0264
 2860TIP3   OH229994   2.435   0.154   4.655  0.4190  0.3721  0.4597
 2860TIP3    H129995   2.358   0.184   4.607  0.5573  1.6624  0.9983
 2860TIP3    H229996   2.482   0.098   4.593 -0.5117  0.2464 -0.1505
 2861TIP3   OH229997   0.967   0.651  15.990 -0.0541  0.1968 -0.0993
 2861TIP3    H129998   0.896   0.594  15.961 -0.4080 -0.2646  1.5917
 2861TIP3    H229999   0.943   0.677  16.079  1.9324 -0.0744  0.5728
 2862TIP3   OH230000   3.963   5.905  14.487 -0.9302  0.9063 -0.3384
 2862TIP3    H130001   3.968   5.811  14.504 -1.6955  0.6780 -1.3162
 2862TIP3    H230002   3.963   5.913  14.392 -0.6986  1.9109 -0.2651
 2863TIP3   OH230003   2.240   5.121   2.676  0.2872  0.3054  0.3611
 2863TIP3    H130004   2.256   5.206   2.636  2.1158  0.1943  0.7935
 2863TIP3    H230005   2.219   5.063   2.602 -1.6620  1.2156  0.1228
 2864TIP3   OH230006   4.070   0.225  14.509 -0.7864  0.4705 -0.1920
 2864TIP3    H130007   4.078   0.278  14.429 -0.2110  0.7160  0.0233
 2864TIP3    H230008   4.105   0.139  14.484 -2.0030  0.0849 -0.6302
 2865TIP3   OH230009   2.851   1.369  13.240  0.0805 -0.0321  0.1556
 2865TIP3    H130010   2.913   1.441  13.235  2.9232 -2.2694  0.1135
 2865TIP3    H230011   2.861   1.323  13.156 -1.1509 -0.8496  0.4288
 2866TIP3   OH230012   5.896   5.986   3.582 -0.5596 -0.0786  0.1655
 2866TIP3    H130013   5.827   5.991   3.649 -0.3282  0.2741  0.3854
 2866TIP3    H230014   5.977   5.995   3.632 -0.2188 -2.6249  0.1806
 2867TIP3   OH230015   6.017   0.406   1.494  1.1975 -0.6904 -0.4387
 2867TIP3    H130016   5.977   0.334   1.542  2.2350 -0.5179  0.7422
 2867TIP3    H230017   6.084   0.366   1.440  2.1230 -0.5996  0.5989
 2868TIP3   OH230018   2.902   4.682  17.343  0.1504  0.2409 -0.3489
 2868TIP3    H130019   2.919   4.776  17.343 -0.8358  0.4340  0.3520
 2868TIP3    H230020   2.979   4.643  17.385 -0.3660  0.9419  1.3261
 2869TIP3   OH230021   1.183   5.985  15.241 -0.3716 -0.5695  0.3673
 2869TIP3    H130022   1.217   6.073  15.228  1.0595 -0.9854  1.0663
 2869TIP3    H230023   1.228   5.932  15.176  0.3056 -1.1141  1.2454
 2870TIP3   OH230024   2.907   1.224   2.264  0.3330  0.0415 -0.0239
 2870TIP3    H130025   2.945   1.246   2.349 -0.1322  0.1076  0.1704
 2870TIP3    H230026   2.859   1.142   2.280  1.4662 -0.7611 -0.5696
 2871TIP3   OH230027   4.284   0.138   5.314 -0.5021 -0.2414  0.3420
 2871TIP3    H130028   4.242   0.141   5.228 -0.3705  0.1088  0.2894
 2871TIP3    H230029   4.238   0.068   5.360 -0.5767 -0.4281 -0.0114
 2872TIP3   OH230030   5.323   1.678  16.304 -0.0161  0.1521  0.5875
 2872TIP3    H130031   5.333   1.664  16.210  0.0787 -0.5061  0.6957
 2872TIP3    H230032   5.260   1.611  16.332  1.3067 -0.8203  1.3087
 2873TIP3   OH230033   4.754   0.917   2.222  0.3053 -0.6800  0.1722
 2873TIP3    H130034   4.811   0.991   2.202  0.1161 -0.2527  1.1566
 2873TIP3    H230035   4.682   0.955   2.273 -0.2734 -1.3982 -0.0876
 2874TIP3   OH230036   1.053   4.268  14.887 -0.0637 -0.1680 -0.6595
 2874TIP3    H130037   1.021   4.298  14.802  1.8433  0.8651 -1.0915
 2874TIP3    H230038   1.083   4.179  14.871  0.5083  0.1034 -1.1661
 2875TIP3   OH230039   1.904   1.592  10.517  0.1671  0.6123 -0.4053
 2875TIP3    H130040   1.901   1.639  10.601  2.8574  1.8024 -0.8605
 2875TIP3    H230041   1.827   1.622  10.470 -0.4212  1.3261  0.9478
 2876TIP3   OH230042   3.014   2.077   5.874  0.2366 -0.4130 -0.0476
 2876TIP3    H130043   3.082   2.141   5.898  1.6624 -2.0779  0.6103
 2876TIP3    H230044   2.931   2.123   5.890  1.1895  1.2560  0.4012
 2877TIP3   OH230045   5.850   3.832   4.913  1.4272  0.3108 -0.1086
 2877TIP3    H130046   5.847   3.870   5.001 -1.6675 -0.6030  0.2747
 2877TIP3    H230047   5.836   3.907   4.854  1.2964  0.6139  0.3030
 2878TIP3   OH230048   5.141   6.564  14.184  0.2336  0.0156  0.2739
 2878TIP3    H130049   5.221   6.609  14.157  0.9862 -0.7081  1.2107
 2878TIP3    H230050   5.153   6.474  14.151 -0.6868  0.1608 -0.5051
 2879TIP3   OH230051   2.471   2.259   5.979 -0.0187 -0.8845 -0.3604
 2879TIP3    H130052   2.470   2.320   6.053 -0.8895  1.7563 -2.4167
 2879TIP3    H230053   2.434   2.178   6.015 -4.3158  1.4553  1.2465
 2880TIP3   OH230054   4.511   1.995   1.255  0.2047 -0.2184  0.4884
 2880TIP3    H130055   4.434   1.988   1.311  0.6724  2.1062  1.5313
 2880TIP3    H230056   4.585   1.974   1.312  0.5845  0.8723  0.4273
 2881TIP3   OH230057   2.890   1.878  15.507 -0.5328 -0.0864 -0.0237
 2881TIP3    H130058   2.950   1.804  15.510 -1.1347 -0.5603  1.3998
 2881TIP3    H230059   2.851   1.875  15.420 -0.4447 -1.3743 -0.0334
 2882TIP3   OH230060   6.523   0.550   5.135  0.2970  0.6999 -1.2453
 2882TIP3    H130061   6.432   0.531   5.157  0.3325 -0.3996 -1.9986
 2882TIP3    H230062   6.548   0.483   5.072  1.8736  0.5109 -0.4814
 2883TIP3   OH230063   6.046   6.028  11.855 -0.1171  0.3564 -0.1625
 2883TIP3    H130064   6.099   6.041  11.776 -2.0680  0.7493 -1.4949
 2883TIP3    H230065   6.031   5.934  11.859  0.1227  0.3177 -0.1677
 2884TIP3   OH230066   5.440   3.757   3.977  0.0712  0.3192 -0.4991
 2884TIP3    H130067   5.365   3.815   3.984 -0.4469 -0.5035  1.6202
 2884TIP3    H230068   5.509   3.801   4.026 -0.1446 -0.5378  0.6107
 2885TIP3   OH230069   6.082   4.219   3.614  0.6090  0.0267 -0.2437
 2885TIP3    H130070   6.071   4.313   3.597 -1.3648 -0.1284 -0.0119
 2885TIP3    H230071   6.097   4.213   3.708 -1.7177 -0.0166  0.1738
 2886TIP3   OH230072   4.992   5.883   6.019  0.5144  0.1504  0.7205
 2886TIP3    H130073   5.024   5.965   6.058 -3.5662  1.2588  2.2024
 2886TIP3    H230074   4.929   5.849   6.082 -1.9134 -1.2543 -2.1910
 2887TIP3   OH230075   3.736   5.696  13.814  0.7944  0.7930  0.0752
 2887TIP3    H130076   3.733   5.762  13.745  0.4947  0.7626  0.0555
 2887TIP3    H230077   3.818   5.649  13.800 -0.1655 -0.5113 -1.4868
 2888TIP3   OH230078   6.543   0.202   0.646  0.1252  0.3053 -0.5560
 2888TIP3    H130079   6.471   0.243   0.598  1.2318  2.0079 -0.8872
 2888TIP3    H230080   6.550   0.114   0.609 -2.4072 -0.3069  0.2253
 2889TIP3   OH230081   1.058   3.174   3.151 -0.0752  0.2624 -0.1314
 2889TIP3    H130082   1.073   3.265   3.124  1.2322 -0.2757 -1.3289
 2889TIP3    H230083   0.964   3.161   3.140 -0.6281  1.9665  1.7635
 2890TIP3   OH230084   4.023   4.597  12.135  0.2041 -0.3078 -0.4041
 2890TIP3    H130085   4.086   4.665  12.110 -0.2187  0.0700 -0.4644
 2890TIP3    H230086   3.950   4.646  12.173 -0.0831 -0.7372 -0.4021
 2891TIP3   OH230087   4.989   5.407  15.852  0.2657  0.2215  0.0380
 2891TIP3    H130088   4.988   5.407  15.948  0.3365 -0.8000  0.0529
 2891TIP3    H230089   5.035   5.487  15.828  0.3544  0.4234  0.8626
 2892TIP3   OH230090   5.238   1.203  13.647  0.3562 -0.4424  0.2812
 2892TIP3    H130091   5.223   1.242  13.734  1.9338 -0.5421  0.6213
 2892TIP3    H230092   5.150   1.188  13.613 -0.3346  1.6366  0.9345
 2893TIP3   OH230093   0.526   5.009  16.421 -0.2604 -0.4400  0.2702
 2893TIP3    H130094   0.456   5.038  16.479 -1.8126  0.0499 -1.7499
 2893TIP3    H230095   0.488   5.010  16.334  1.3448 -3.1724 -0.5959
 2894TIP3   OH230096   0.536   0.617  17.342 -0.4785  0.1711 -0.4475
 2894TIP3    H130097   0.566   0.527  17.338 -1.5682 -0.1820 -2.4061
 2894TIP3    H230098   0.495   0.632  17.256 -2.9197  1.5932  0.8462
 2895TIP3   OH230099   3.566   5.822  11.680 -0.5512 -0.1650 -0.3132
 2895TIP3    H130100   3.579   5.916  11.668  1.8840 -0.2198  1.2870
 2895TIP3    H230101   3.576   5.785  11.593  1.5597  0.7984 -0.5343
 2896TIP3   OH230102   0.037   3.133   1.194 -0.4568  0.6207 -0.3324
 2896TIP3    H130103   0.090   3.211   1.210  1.1736 -0.6476  0.8012
 2896TIP3    H230104   0.009   3.104   1.281  0.0471 -0.7496 -0.5929
 2897TIP3   OH230105   0.070   1.872  15.444 -0.1475  0.2850  0.3650
 2897TIP3    H130106   0.037   1.950  15.400 -0.8008  0.4658  1.1512
 2897TIP3    H230107   0.048   1.800  15.386 -0.4726  0.5808  0.1186
 2898TIP3   OH230108   3.229   6.395  12.403  0.1607  0.4132 -0.3769
 2898TIP3    H130109   3.258   6.354  12.322  0.9837  0.6053 -0.1921
 2898TIP3    H230110   3.168   6.463  12.376 -1.4678 -1.0978 -0.6741
 2899TIP3   OH230111   2.990   0.451  14.166  0.5904 -0.2725 -0.6457
 2899TIP3    H130112   3.046   0.512  14.118  0.7983  1.0160  1.1337
 2899TIP3    H230113   2.990   0.484  14.255 -0.9844 -1.7251 -0.0605
 2900TIP3   OH230114   6.059   2.342  13.173 -0.3362  0.1608 -0.1396
 2900TIP3    H130115   5.977   2.392  13.166 -0.9914 -1.1264 -3.3935
 2900TIP3    H230116   6.126   2.409  13.183 -1.5977  1.3872  0.4532
 2901TIP3   OH230117   4.549   3.753   5.051 -0.2910  0.0073 -0.0549
 2901TIP3    H130118   4.608   3.729   4.979  0.1278  2.0691 -0.4792
 2901TIP3    H230119   4.595   3.724   5.130 -0.1234 -1.0696 -0.5291
 2902TIP3   OH230120   6.331   6.211  12.569 -0.2177 -0.3716 -0.2584
 2902TIP3    H130121   6.347   6.122  12.599  1.0183 -0.3383 -0.7518
 2902TIP3    H230122   6.417   6.253  12.572 -0.9709  1.1974  1.1763
 2903TIP3   OH230123   4.597   6.120  14.438  0.0520  0.1367  0.3368
 2903TIP3    H130124   4.628   6.064  14.366 -2.0208 -0.4841 -0.1289
 2903TIP3    H230125   4.627   6.208  14.414  1.1397 -0.3605 -0.2329
 2904TIP3   OH230126   2.581   4.941   0.717  0.3863  0.0637 -0.5155
 2904TIP3    H130127   2.599   5.017   0.772  0.6093  0.0622 -0.5860
 2904TIP3    H230128   2.612   4.966   0.630  0.4346 -0.0975 -0.5451
 2905TIP3   OH230129   0.833   2.451   3.467 -0.5468  0.2054  0.7597
 2905TIP3    H130130   0.872   2.434   3.381  0.1804  1.4018  0.8324
 2905TIP3    H230131   0.749   2.492   3.447 -0.6030  0.0206  0.6160
 2906TIP3   OH230132   4.364   2.043   0.719 -0.1712 -0.5139 -0.5896
 2906TIP3    H130133   4.417   1.981   0.669  1.0606 -1.2684  1.5176
 2906TIP3    H230134   4.426   2.110   0.747 -1.0334  0.4211 -0.8452
 2907TIP3   OH230135   6.041   4.758   3.962 -0.1511 -0.1248  0.0860
 2907TIP3    H130136   6.042   4.734   3.870 -1.5687 -0.8261  0.2240
 2907TIP3    H230137   5.969   4.707   3.999  1.1063 -0.7446  1.8254
 2908TIP3   OH230138   1.550   2.710   5.382  0.1679 -0.5426  0.0243
 2908TIP3    H130139   1.531   2.616   5.390  0.2381 -0.6333 -0.7567
 2908TIP3    H230140   1.465   2.750   5.364 -0.0551 -0.2917  1.5143
 2909TIP3   OH230141   5.139   0.263  16.494  0.0843  0.2103  0.7159
 2909TIP3    H130142   5.091   0.316  16.558  0.7414  0.2664  1.1691
 2909TIP3    H230143   5.211   0.224  16.543  0.1727 -0.3376  0.1731
 2910TIP3   OH230144   4.730   0.131   5.382 -0.2206  0.2143 -0.2450
 2910TIP3    H130145   4.686   0.187   5.318  0.6984 -0.4714 -1.5034
 2910TIP3    H230146   4.809   0.179   5.406 -0.3301  0.2572  0.0437
 2911TIP3   OH230147   4.079   4.895  11.780  0.3318  0.1128  0.0558
 2911TIP3    H130148   4.083   4.836  11.704  0.5698 -0.6441  0.6388
 2911TIP3    H230149   4.010   4.957  11.758 -0.1709 -0.5949 -0.4404
 2912TIP3   OH230150   5.352   2.843  11.834  0.3706 -0.8657  0.5952
 2912TIP3    H130151   5.445   2.843  11.812  0.2827 -1.7696  0.1534
 2912TIP3    H230152   5.309   2.811  11.755 -0.1562 -2.0942  1.3384
 2913TIP3   OH230153   0.034   6.676  15.412 -0.0023 -0.1134  0.0678
 2913TIP3    H130154   0.044   6.581  15.422 -3.4295 -0.7676 -1.3016
 2913TIP3    H230155  -0.047   6.687  15.362 -0.0758  3.5828  0.6829
 2914TIP3   OH230156   6.625   3.884  12.248 -0.4824  0.0918  0.3742
 2914TIP3    H130157   6.538   3.911  12.217  0.0900  0.5385 -0.8863
 2914TIP3    H230158   6.686   3.928  12.189  0.6695  1.0366  2.1747
 2915TIP3   OH230159   2.584   0.500  14.785  0.4010 -0.8777 -0.1609
 2915TIP3    H130160   2.540   0.583  14.805  1.0703 -0.6244  0.2880
 2915TIP3    H230161   2.525   0.433  14.820  0.5042 -0.5289  0.7292
 2916TIP3   OH230162   1.124   0.704   1.049  0.1000  0.0510 -0.2938
 2916TIP3    H130163   1.048   0.665   1.008 -0.9512  1.3854  0.2987
 2916TIP3    H230164   1.199   0.661   1.007 -0.9524 -0.7905 -1.3822
 2917TIP3   OH230165   6.746   3.151  12.570 -0.0853 -0.0632 -0.3139
 2917TIP3    H130166   6.837   3.132  12.545  0.1130 -0.5646  0.7175
 2917TIP3    H230167   6.732   3.241  12.542  0.7467  0.0348 -0.4493
 2918TIP3   OH230168   5.141   6.707   1.984  0.4638  0.4811  0.4089
 2918TIP3    H130169   5.146   6.780   1.922 -1.2217  0.7607  0.5420
 2918TIP3    H230170   5.198   6.641   1.947  0.0939  0.9375 -1.0686
 2919TIP3   OH230171   2.624   6.737   1.199  0.3856 -0.2742 -1.0120
 2919TIP3    H130172   2.609   6.706   1.109 -2.6401  1.0479 -1.0712
 2919TIP3    H230173   2.552   6.798   1.215  2.6834  2.0671  1.1862
 2920TIP3   OH230174   3.602   5.876  12.820 -0.0804 -0.3757 -0.0451
 2920TIP3    H130175   3.668   5.831  12.874  1.7116  0.0881 -1.7390
 2920TIP3    H230176   3.528   5.889  12.879  1.2881 -1.0252  1.9271
 2921TIP3   OH230177   4.767   2.017   0.148 -0.2384  0.2574 -0.3044
 2921TIP3    H130178   4.755   2.004   0.054 -2.1610  0.8561 -0.1776
 2921TIP3    H230179   4.842   2.075   0.155  0.0710  0.0087 -1.4555
 2922TIP3   OH230180   1.671   0.849  17.075 -0.4690 -0.3898  0.2247
 2922TIP3    H130181   1.740   0.835  17.010 -0.0239 -1.5575  0.9184
 2922TIP3    H230182   1.657   0.944  17.074 -0.4825 -0.3641 -1.5579
 2923TIP3   OH230183   0.500   2.919   1.571  0.3312 -0.0849  0.0111
 2923TIP3    H130184   0.454   2.838   1.592 -0.8865  1.0600  1.9586
 2923TIP3    H230185   0.593   2.897   1.582 -0.0048 -1.0682  1.0395
 2924TIP3   OH230186   5.846   2.351   0.950 -0.0380 -0.4917 -0.1032
 2924TIP3    H130187   5.844   2.365   1.044 -1.6150  0.5240 -0.2612
 2924TIP3    H230188   5.857   2.438   0.913  1.0140 -0.9259 -0.8711
 2925TIP3   OH230189   0.505   5.109  12.357 -0.0096 -0.3183 -0.2887
 2925TIP3    H130190   0.493   5.193  12.313 -1.0182 -1.7314 -2.9564
 2925TIP3    H230191   0.515   5.132  12.449  0.7455  2.7666 -0.9955
 2926TIP3   OH230192   5.221   0.974  12.198 -0.1995 -0.0552  0.3195
 2926TIP3    H130193   5.219   0.878  12.202 -0.5407 -0.0456  0.3511
 2926TIP3    H230194   5.233   0.994  12.105  0.0178 -0.1290  0.3304
 2927TIP3   OH230195   1.254   3.187  14.221 -0.0681 -0.3306  0.1852
 2927TIP3    H130196   1.207   3.105  14.206  0.5259 -0.5487 -0.5748
 2927TIP3    H230197   1.274   3.219  14.133 -2.0951  1.7336  0.3991
 2928TIP3   OH230198   0.347   5.141   1.340 -0.0329  0.0573 -0.3465
 2928TIP3    H130199   0.297   5.062   1.362 -1.0057  0.6098 -0.5279
 2928TIP3    H230200   0.284   5.198   1.297  0.8068  0.7067 -0.7393
 2929TIP3   OH230201   6.505   0.417   2.387 -0.1913  0.1872  0.5651
 2929TIP3    H130202   6.437   0.390   2.449 -0.3563 -0.4213  0.1256
 2929TIP3    H230203   6.458   0.439   2.307  0.0524  0.6688  0.5510
 2930TIP3   OH230204   4.151   4.156  15.422 -0.2661  0.0937 -0.1504
 2930TIP3    H130205   4.195   4.099  15.359 -1.2625 -0.9217  0.0427
 2930TIP3    H230206   4.088   4.205  15.369  0.5758  1.0414 -0.3125
 2931TIP3   OH230207   3.502   4.089   0.347  0.3514  0.7727 -0.0720
 2931TIP3    H130208   3.431   4.029   0.324  0.7948  0.7866 -1.5960
 2931TIP3    H230209   3.540   4.052   0.427 -0.9067  0.3793  0.3741
 2932TIP3   OH230210   6.222   6.279  13.959 -0.5844 -0.1063  0.1931
 2932TIP3    H130211   6.293   6.343  13.965 -0.1960 -0.3793 -1.2173
 2932TIP3    H230212   6.244   6.214  14.026 -0.5247  0.7778  1.0527
 2933TIP3   OH230213   0.739   5.651  10.364  0.1667  0.5675  0.4388
 2933TIP3    H130214   0.790   5.683  10.289  0.1555  0.3282  0.3296
 2933TIP3    H230215   0.676   5.590  10.326  2.4557 -2.3357  1.0133
 2934TIP3   OH230216   5.836   5.356   4.602  0.6459  0.4698 -0.3889
 2934TIP3    H130217   5.870   5.316   4.522  1.6428 -0.2969  0.3814
 2934TIP3    H230218   5.747   5.320   4.611  0.5950  0.4182 -1.0392
 2935TIP3   OH230219   6.047   0.715   1.569  0.4935  0.1363 -0.1032
 2935TIP3    H130220   5.956   0.703   1.542  0.2372 -1.1601  1.1690
 2935TIP3    H230221   6.094   0.646   1.522  1.0547  1.4997 -1.6302
 2936TIP3   OH230222   6.106   6.325  15.845  0.1963  0.2109 -0.3701
 2936TIP3    H130223   6.165   6.389  15.884  0.4876 -0.5513  0.4695
 2936TIP3    H230224   6.028   6.328  15.901  0.5077 -0.6895  0.1413
 2937TIP3   OH230225   6.052   1.171  15.666  0.0116  0.1664 -0.5342
 2937TIP3    H130226   6.052   1.242  15.731  0.1340  0.2694 -0.6459
 2937TIP3    H230227   6.065   1.216  15.582 -3.9876  0.5447 -1.1891
 2938TIP3   OH230228   3.851   2.938   3.717  0.3100 -0.0450  0.0353
 2938TIP3    H130229   3.906   3.016   3.714  2.0468 -1.1321  1.4773
 2938TIP3    H230230   3.911   2.866   3.736 -1.5184 -1.3718  1.2582
 2939TIP3   OH230231   4.194   1.557   0.804 -0.1344 -0.1647 -0.3249
 2939TIP3    H130232   4.180   1.647   0.831  1.2808 -0.2017  0.6682
 2939TIP3    H230233   4.111   1.530   0.766 -0.6024  1.5288 -0.5829
 2940TIP3   OH230234   1.441   3.689   4.487  0.0089  0.3416 -0.2511
 2940TIP3    H130235   1.348   3.674   4.504  0.0063  1.1338  0.4644
 2940TIP3    H230236   1.480   3.601   4.490 -0.9405 -0.2222 -2.1900
 2941TIP3   OH230237   3.255   5.814   5.859 -0.2486  0.2275 -0.1220
 2941TIP3    H130238   3.296   5.745   5.911  0.8498  1.2331  0.3912
 2941TIP3    H230239   3.188   5.851   5.917  1.5334  1.9045  0.9634
 2942TIP3   OH230240   1.270   0.523   2.890  0.1299  0.0867 -0.1735
 2942TIP3    H130241   1.226   0.547   2.809  0.2094  0.2001 -0.1829
 2942TIP3    H230242   1.235   0.584   2.955  1.8757  1.6615 -0.6170
 2943TIP3   OH230243   6.337   6.186   4.806 -0.2991 -0.4930 -0.0645
 2943TIP3    H130244   6.414   6.138   4.837 -0.1504 -0.5466 -0.5039
 2943TIP3    H230245   6.282   6.197   4.883  0.0086 -0.7266  0.1883
 2944TIP3   OH230246   4.916   1.991   5.721 -0.4828  0.0671 -0.6385
 2944TIP3    H130247   4.952   1.911   5.683  0.5182  0.6148 -0.8836
 2944TIP3    H230248   4.828   1.967   5.749  0.2050 -1.4357  0.3508
 2945TIP3   OH230249   6.519   2.439  10.581 -0.1231  0.2060 -0.8576
 2945TIP3    H130250   6.471   2.522  10.578 -1.4616 -0.5700 -1.3329
 2945TIP3    H230251   6.460   2.375  10.543 -0.0792 -1.4812  1.6990
 2946TIP3   OH230252   0.032   6.019   3.516  0.1760 -0.2067 -0.6537
 2946TIP3    H130253   0.010   5.927   3.530 -1.3974 -0.1253 -2.2507
 2946TIP3    H230254   0.058   6.024   3.424 -1.8554  1.2453 -1.2259
 2947TIP3   OH230255   3.373   6.374  11.596  0.2637 -0.7499  0.0275
 2947TIP3    H130256   3.390   6.468  11.588  2.5101 -1.1458 -0.4411
 2947TIP3    H230257   3.284   6.369  11.630  0.7601  1.5998  1.9467
 2948TIP3   OH230258   3.476   3.223  14.146  0.8926 -0.3418  0.4610
 2948TIP3    H130259   3.405   3.164  14.172  1.0171 -0.0156  1.5925
 2948TIP3    H230260   3.432   3.299  14.109  0.7016 -0.7158 -0.0953
 2949TIP3   OH230261   5.470   5.300  12.592 -0.2331 -0.4767 -0.0162
 2949TIP3    H130262   5.534   5.228  12.596  0.5185  0.0090 -2.0803
 2949TIP3    H230263   5.523   5.379  12.584 -1.0708  0.0034 -1.0546
 2950TIP3   OH230264   4.961   2.773   1.114 -0.0246 -0.0159  0.0826
 2950TIP3    H130265   4.911   2.704   1.069 -0.9718  1.4292 -1.1989
 2950TIP3    H230266   4.993   2.829   1.044  0.4790  1.0165  1.1034
 2951TIP3   OH230267   2.973   0.033   3.439  0.1483 -0.4626 -0.0066
 2951TIP3    H130268   3.031  -0.017   3.382 -0.1995 -0.9660  0.0756
 2951TIP3    H230269   2.903   0.064   3.382 -0.2273 -1.0099  0.1539
 2952TIP3   OH230270   5.531   6.213   2.378 -0.2510  0.0280 -0.1890
 2952TIP3    H130271   5.455   6.173   2.421  0.2093  0.3104  0.9250
 2952TIP3    H230272   5.510   6.306   2.374  0.2962  0.1990  0.7072
 2953TIP3   OH230273   1.135   1.482  13.177 -0.6802  0.0238 -0.4263
 2953TIP3    H130274   1.074   1.436  13.235 -0.0073  0.5505  0.7547
 2953TIP3    H230275   1.203   1.515  13.236 -0.3228  1.1784 -1.4337
 2954TIP3   OH230276   3.891   0.568  13.974  0.2101 -0.0731 -0.2640
 2954TIP3    H130277   3.859   0.515  14.047  0.7240  0.2637  0.2158
 2954TIP3    H230278   3.986   0.560  13.979  0.2729  0.5391 -0.4527
 2955TIP3   OH230279   0.032   3.608  10.954  0.2463  0.2922  0.0595
 2955TIP3    H130280  -0.056   3.584  10.983  1.0905 -0.4281  2.2053
 2955TIP3    H230281   0.060   3.675  11.017  0.4377  2.1698 -1.9146
 2956TIP3   OH230282   4.158   2.034  14.536  0.4286 -0.0784 -0.0560
 2956TIP3    H130283   4.192   2.075  14.615 -0.0082  0.3664 -0.0898
 2956TIP3    H230284   4.173   2.099  14.467 -0.3642  0.0805 -0.0928
 2957TIP3   OH230285   2.627   1.059  14.470 -0.0683 -0.0844 -0.3940
 2957TIP3    H130286   2.609   1.151  14.455 -3.0395 -0.2641  1.4195
 2957TIP3    H230287   2.682   1.057  14.548  0.7222  0.1578 -0.9356
 2958TIP3   OH230288   5.018   1.755  10.913  0.7173  0.0290  0.3412
 2958TIP3    H130289   4.928   1.786  10.922  0.9915  1.4523 -1.3382
 2958TIP3    H230290   5.072   1.824  10.952  1.1242 -0.4770  0.6885
 2959TIP3   OH230291   3.555   3.469  15.750  0.1953  0.2869 -0.0844
 2959TIP3    H130292   3.592   3.415  15.820 -2.0674 -0.1796  0.8431
 2959TIP3    H230293   3.529   3.550  15.794 -1.5439 -0.1396 -0.2837
 2960TIP3   OH230294   1.474   1.246  13.886 -0.1004 -0.6530  0.2287
 2960TIP3    H130295   1.497   1.189  13.960 -0.8408 -0.8685  0.3059
 2960TIP3    H230296   1.415   1.311  13.923 -1.1169 -1.2284 -0.3021
 2961TIP3   OH230297   2.443   3.529  12.969  0.4700  0.3231  0.6235
 2961TIP3    H130298   2.499   3.538  13.047  1.7671 -1.9331  0.0364
 2961TIP3    H230299   2.503   3.537  12.895 -0.4053  0.3367 -0.1067
 2962TIP3   OH230300   2.861   0.428   5.345 -0.5588  0.2637  0.3096
 2962TIP3    H130301   2.925   0.396   5.408 -0.4753 -1.6195 -0.6340
 2962TIP3    H230302   2.777   0.398   5.379 -0.5687 -0.2630 -0.1625
 2963TIP3   OH230303   5.826   0.025  11.991 -0.2243  0.0994 -0.2778
 2963TIP3    H130304   5.793  -0.044  11.934  0.0889  0.4670 -0.9153
 2963TIP3    H230305   5.785   0.105  11.957 -1.4784  0.1099  1.1440
 2964TIP3   OH230306   4.461   1.456  12.882  0.2117  0.1301 -0.9482
 2964TIP3    H130307   4.485   1.548  12.888 -0.4604  0.3595 -1.6508
 2964TIP3    H230308   4.367   1.456  12.863 -0.3898 -0.7515  1.5882
 2965TIP3   OH230309   4.216   4.316   2.586  0.6760  0.0195 -0.8498
 2965TIP3    H130310   4.294   4.289   2.538  1.2030  0.7508 -0.4250
 2965TIP3    H230311   4.223   4.412   2.591  1.5962 -0.0903  2.1941
 2966TIP3   OH230312   1.641   1.890   1.179 -0.0258  0.1470  0.2041
 2966TIP3    H130313   1.714   1.848   1.225 -1.0910 -0.8710  1.0077
 2966TIP3    H230314   1.578   1.912   1.248 -1.0950 -0.2602 -0.6260
 2967TIP3   OH230315   3.879   4.824  15.830 -0.1260 -0.5817  0.2997
 2967TIP3    H130316   3.914   4.756  15.888  0.8520  0.2778  0.7393
 2967TIP3    H230317   3.842   4.775  15.757  1.3985 -1.5687  0.1425
 2968TIP3   OH230318   0.220   1.077   4.795 -0.4817 -0.2381 -0.0519
 2968TIP3    H130319   0.150   1.017   4.819 -0.7712  0.2381  0.3050
 2968TIP3    H230320   0.279   1.024   4.741 -0.3901 -1.0281  0.7840
 2969TIP3   OH230321   2.182   5.559  11.060 -0.5616  0.0636  0.0667
 2969TIP3    H130322   2.276   5.576  11.060 -0.4542 -0.3922 -1.4211
 2969TIP3    H230323   2.144   5.636  11.103  0.4283  0.6129  0.0003
 2970TIP3   OH230324   2.289   0.674  11.807  0.3711 -0.3569  0.6625
 2970TIP3    H130325   2.324   0.595  11.766 -1.0841 -0.7735  0.1555
 2970TIP3    H230326   2.235   0.714  11.738 -0.0594  0.3002  1.3712
 2971TIP3   OH230327   3.269   6.424   3.565  0.2172 -0.9041 -0.0381
 2971TIP3    H130328   3.206   6.354   3.550  0.6634 -1.3101 -0.0132
 2971TIP3    H230329   3.332   6.416   3.494  0.8025 -1.1295  0.4978
 2972TIP3   OH230330   4.388   2.823   3.108  0.7419 -0.1324 -0.4190
 2972TIP3    H130331   4.442   2.774   3.045 -1.8894 -0.4646 -2.6264
 2972TIP3    H230332   4.427   2.910   3.110  3.6725 -1.3671  1.2019
 2973TIP3   OH230333   1.565   6.153   6.088 -0.3376 -0.0026 -0.5375
 2973TIP3    H130334   1.639   6.140   6.148 -0.6854 -0.5817 -0.2156
 2973TIP3    H230335   1.507   6.078   6.106 -1.6355  1.1127  0.1574
 2974TIP3   OH230336   6.641   5.142  11.237  0.5464 -0.3928  0.0077
 2974TIP3    H130337   6.579   5.178  11.301  2.0588  0.5005  1.0049
 2974TIP3    H230338   6.726   5.178  11.262  1.4705 -1.4751 -1.4236
 2975TIP3   OH230339   3.532   1.923  11.219 -0.0075 -0.0942  0.8468
 2975TIP3    H130340   3.611   1.977  11.212 -0.4927  0.4948 -0.5288
 2975TIP3    H230341   3.480   1.946  11.142 -3.0129  1.8755  3.2395
 2976TIP3   OH230342   0.166   1.207  16.235 -0.4151  0.2574  0.0495
 2976TIP3    H130343   0.107   1.241  16.167 -0.3352  1.2123  0.4487
 2976TIP3    H230344   0.115   1.212  16.316 -0.5876 -1.0791  0.0567
 2977TIP3   OH230345   3.132   4.053   4.964  0.1872  0.0663 -0.4936
 2977TIP3    H130346   3.226   4.060   4.981  0.8739 -0.7330 -3.4839
 2977TIP3    H230347   3.114   3.959   4.968 -0.2342  0.1219 -0.9907
 2978TIP3   OH230348   3.405   3.729  14.523 -0.3118 -0.2128  0.4829
 2978TIP3    H130349   3.468   3.799  14.544  0.8821 -0.9700 -0.4811
 2978TIP3    H230350   3.330   3.775  14.485 -1.7473  1.0336  4.3430
 2979TIP3   OH230351   3.220   4.965  11.074 -0.0094  0.4693 -0.4289
 2979TIP3    H130352   3.263   4.997  11.153 -1.4245  0.9116  0.1983
 2979TIP3    H230353   3.282   4.982  11.004  0.9988  0.6935  0.4900
 2980TIP3   OH230354   5.060   5.424  12.663  0.1247 -0.0290 -0.0025
 2980TIP3    H130355   5.068   5.333  12.634 -0.0076 -0.6609  1.7758
 2980TIP3    H230356   4.973   5.428  12.703 -0.2397  1.1502 -0.8866
 2981TIP3   OH230357   3.495   2.817   5.663  0.2249  0.2667  0.0717
 2981TIP3    H130358   3.506   2.898   5.613  1.1758  0.3524  0.3890
 2981TIP3    H230359   3.411   2.782   5.634 -0.1449  1.3035 -0.1578
 2982TIP3   OH230360   1.172   0.857   4.071  0.1081  0.1735 -0.6943
 2982TIP3    H130361   1.194   0.825   4.159 -1.5426 -1.3543 -0.7960
 2982TIP3    H230362   1.205   0.790   4.012 -2.5858 -1.0074 -0.9687
 2983TIP3   OH230363   4.574   3.232  17.389 -0.1852 -0.0760  0.2411
 2983TIP3    H130364   4.568   3.160  17.452  0.8106  0.3514  0.8500
 2983TIP3    H230365   4.485   3.267  17.383 -0.5775 -1.0369  0.3101
 2984TIP3   OH230366   5.071   3.516  14.833 -0.4286 -0.0481  0.2850
 2984TIP3    H130367   5.041   3.448  14.773 -1.4965  1.4633 -0.9604
 2984TIP3    H230368   5.157   3.486  14.862 -1.0064 -2.0665  0.0374
 2985TIP3   OH230369   2.796   3.561   4.943 -0.1560  0.1682 -0.0432
 2985TIP3    H130370   2.882   3.574   4.902 -1.2700  0.2944 -2.5608
 2985TIP3    H230371   2.737   3.618   4.893 -1.3966  1.8739  3.0767
 2986TIP3   OH230372   2.760   2.852  15.745 -0.0376  0.2417 -0.0078
 2986TIP3    H130373   2.691   2.848  15.812 -0.3523  0.4467 -0.3120
 2986TIP3    H230374   2.753   2.941  15.710 -2.1814 -0.8196 -2.7100
 2987TIP3   OH230375   3.743   6.458  10.276  0.3661  0.5761  0.4865
 2987TIP3    H130376   3.831   6.429  10.253 -0.0833 -0.0722 -0.4990
 2987TIP3    H230377   3.729   6.423  10.364  0.2461 -1.3604 -0.2388
 2988TIP3   OH230378   6.076   4.798  17.169  0.4834 -0.3650 -0.2173
 2988TIP3    H130379   6.098   4.705  17.172  0.7058 -0.3838 -1.5398
 2988TIP3    H230380   6.160   4.842  17.156  0.2057 -0.1430 -1.4179
 2989TIP3   OH230381   5.202   5.947   0.887 -0.5596  0.1041 -0.5489
 2989TIP3    H130382   5.134   6.011   0.910 -1.6072 -0.6011 -1.6170
 2989TIP3    H230383   5.162   5.862   0.905  0.3364 -0.3035 -0.4475
 2990TIP3   OH230384   4.124   2.087  15.271 -0.3978  0.6792 -0.5148
 2990TIP3    H130385   4.178   2.123  15.200  0.8005  0.2815  0.1571
 2990TIP3    H230386   4.158   1.999  15.285 -0.3644  0.8794  0.7889
 2991TIP3   OH230387   0.817   2.397   5.164 -0.1606 -0.3105  0.1756
 2991TIP3    H130388   0.760   2.401   5.088 -0.0068  0.1755  0.0827
 2991TIP3    H230389   0.809   2.307   5.196  0.3654 -0.7419 -0.8690
 2992TIP3   OH230390   2.354   4.889  12.759  0.4408 -0.1216  0.2523
 2992TIP3    H130391   2.300   4.930  12.827 -0.0563  0.0777 -0.2477
 2992TIP3    H230392   2.431   4.944  12.753  0.3269  0.0590  0.4139
 2993TIP3   OH230393   6.081   2.158   2.109  0.2074  0.1541  0.0414
 2993TIP3    H130394   6.020   2.096   2.068 -0.6803 -0.5729  2.2430
 2993TIP3    H230395   6.032   2.240   2.114  0.1174  0.0979  0.0958
 2994TIP3   OH230396   3.854   3.822  11.910 -0.2880 -0.2102 -0.3223
 2994TIP3    H130397   3.926   3.765  11.935  0.8305  1.4611  0.4151
 2994TIP3    H230398   3.780   3.762  11.897  1.1002 -1.9321 -0.7421
 2995TIP3   OH230399   6.029   5.512   5.174 -0.1398 -0.0612 -0.1792
 2995TIP3    H130400   5.936   5.503   5.152 -0.4834  3.4491 -0.7263
 2995TIP3    H230401   6.073   5.447   5.120 -2.0626  0.0765 -2.0351
 2996TIP3   OH230402   1.349   2.658  15.140  0.0161 -0.3692 -0.2063
 2996TIP3    H130403   1.445   2.659  15.130  0.0277  0.9336 -0.0957
 2996TIP3    H230404   1.317   2.638  15.052  0.3883 -1.4710 -0.1119
 2997TIP3   OH230405   1.160   1.644  13.620  0.0837 -0.0381 -0.1038
 2997TIP3    H130406   1.189   1.664  13.531 -0.1362  1.4968  0.1302
 2997TIP3    H230407   1.146   1.550  13.621  0.2372 -0.0958 -1.6466
 2998TIP3   OH230408   2.535   6.470  16.065 -0.4355 -0.1774 -0.1619
 2998TIP3    H130409   2.469   6.408  16.096 -0.7287  0.4257  0.4352
 2998TIP3    H230410   2.485   6.546  16.035  0.0193  0.7324  1.3013
 2999TIP3   OH230411   1.148   2.447  16.450  0.4657 -0.0733 -0.4915
 2999TIP3    H130412   1.178   2.528  16.491  2.3389 -0.7734 -0.4213
 2999TIP3    H230413   1.185   2.449  16.362  0.3538 -0.7708 -0.5583
 3000TIP3   OH230414   2.378   3.718  16.736 -0.6458  0.1323  0.7523
 3000TIP3    H130415   2.359   3.804  16.773 -1.1878  0.4717 -0.2879
 3000TIP3    H230416   2.343   3.656  16.800 -0.4633  0.6816  1.3895
 3001TIP3   OH230417   5.117   4.984   4.807 -0.1725  0.2537 -0.3605
 3001TIP3    H130418   5.059   5.026   4.871  1.3431  1.2581  0.3898
 3001TIP3    H230419   5.117   4.892   4.833  1.4205  0.8217  1.9609
 3002TIP3   OH230420   6.625   1.526  13.718 -0.4807  0.4726 -0.0074
 3002TIP3    H130421   6.596   1.548  13.629 -0.5860  0.6683  0.0727
 3002TIP3    H230422   6.674   1.602  13.747  0.2814  0.0620 -0.2090
 3003TIP3   OH230423   6.029   2.684  12.942 -0.2201 -0.0341 -0.1548
 3003TIP3    H130424   6.087   2.611  12.921  0.1444  0.0256  0.5966
 3003TIP3    H230425   6.086   2.748  12.985 -0.0098  1.7443 -2.8426
 3004TIP3   OH230426   1.637   2.835   1.168  0.1262  0.2671 -0.3521
 3004TIP3    H130427   1.652   2.860   1.077  0.2824 -0.8656 -0.6554
 3004TIP3    H230428   1.604   2.914   1.210 -0.3525  0.6943 -1.4987
 3005TIP3   OH230429   5.941   5.483   5.730 -0.0686  0.1504 -0.2077
 3005TIP3    H130430   6.002   5.539   5.778 -2.7090  2.8946  0.2169
 3005TIP3    H230431   5.977   5.479   5.641  1.2914  0.7423  0.2987
 3006TIP3   OH230432   3.344   4.781  12.728 -0.3315  0.6017  0.4285
 3006TIP3    H130433   3.261   4.828  12.727 -2.9806 -3.5048 -2.0542
 3006TIP3    H230434   3.344   4.733  12.811  0.2207  1.4579  0.9462
 3007TIP3   OH230435   2.678   2.354  13.722 -0.0428 -0.0870 -0.2777
 3007TIP3    H130436   2.746   2.395  13.669  0.4782  1.5341  1.5126
 3007TIP3    H230437   2.635   2.428  13.766  0.0066 -1.3486  2.0452
 3008TIP3   OH230438   0.594   3.296   2.962  0.2786 -0.1702  0.3972
 3008TIP3    H130439   0.599   3.315   2.868 -0.8049  0.7836  0.5153
 3008TIP3    H230440   0.604   3.381   3.004 -1.4225 -0.2647  1.0646
 3009TIP3   OH230441   3.039   2.591   3.673 -0.0285 -0.2219 -0.3800
 3009TIP3    H130442   3.109   2.587   3.738  0.7106 -0.2964 -1.1677
 3009TIP3    H230443   3.078   2.635   3.598 -1.0831  0.4919 -0.5264
 3010TIP3   OH230444   3.266   0.064   1.562 -0.2080 -0.1816  0.0237
 3010TIP3    H130445   3.282   0.076   1.469 -0.1063  0.8789  0.1594
 3010TIP3    H230446   3.354   0.056   1.600 -0.2432 -0.4383  0.0552
 3011TIP3   OH230447   6.363   2.690  14.655 -0.2078 -0.2322 -0.5223
 3011TIP3    H130448   6.332   2.635  14.583  2.0874 -0.1879 -1.6407
 3011TIP3    H230449   6.298   2.677  14.724 -0.6748 -3.0480 -1.3284
 3012TIP3   OH230450   1.959   6.395   6.143 -0.0612  0.2515  0.8670
 3012TIP3    H130451   2.007   6.331   6.195  0.4353  0.0280  0.1533
 3012TIP3    H230452   1.925   6.344   6.069  2.5044  1.2312 -1.1206
 3013TIP3   OH230453   2.313   1.929   5.547 -0.8901  0.3430 -0.0194
 3013TIP3    H130454   2.341   1.860   5.606  1.4134 -1.5188 -3.0000
 3013TIP3    H230455   2.357   2.008   5.580 -1.2504 -0.1486  1.7724
 3014TIP3   OH230456   1.101   2.459   4.315  0.2041 -0.3039 -0.3417
 3014TIP3    H130457   1.096   2.515   4.238  0.2502 -1.1983 -1.0035
 3014TIP3    H230458   1.010   2.434   4.333  0.1302  0.3515  0.2403
 3015TIP3   OH230459   4.370   1.778   1.084 -0.3584 -0.5728  0.0678
 3015TIP3    H130460   4.458   1.761   1.119 -0.5480 -0.4632  0.6049
 3015TIP3    H230461   4.330   1.691   1.076  0.6433 -0.8863 -2.5061
 3016TIP3   OH230462   2.717   5.471  14.108  0.3895 -0.9430 -0.0419
 3016TIP3    H130463   2.799   5.520  14.112 -0.2189  0.0409  2.5547
 3016TIP3    H230464   2.740   5.383  14.138  0.8725 -1.3291 -1.4898
 3017TIP3   OH230465   4.357   3.424   1.085  0.3066 -0.0993 -0.5407
 3017TIP3    H130466   4.265   3.414   1.111  0.3306  0.7600 -0.1043
 3017TIP3    H230467   4.356   3.411   0.990 -0.6798  2.3113 -0.9364
 3018TIP3   OH230468   5.683   5.333   1.779 -0.1561 -0.4959  0.0242
 3018TIP3    H130469   5.668   5.243   1.749 -0.4649 -0.5472  0.3247
 3018TIP3    H230470   5.689   5.325   1.874  2.6061 -0.5924 -0.1002
 3019TIP3   OH230471   6.272   6.148   0.756  0.4169  0.2369 -0.3018
 3019TIP3    H130472   6.339   6.217   0.763  1.5564 -0.7640 -0.9624
 3019TIP3    H230473   6.241   6.154   0.666 -0.0199  0.3523 -0.1466
 3020TIP3   OH230474   2.696   3.108  17.078  0.0401 -0.0557 -0.1950
 3020TIP3    H130475   2.752   3.140  17.007 -0.7762 -0.9277 -1.2720
 3020TIP3    H230476   2.714   3.014  17.083 -1.2750 -0.3572 -0.5583
 3021TIP3   OH230477   6.463   3.442  12.524 -0.5415 -0.0173 -0.3052
 3021TIP3    H130478   6.554   3.437  12.550 -0.4038  2.4306 -0.0350
 3021TIP3    H230479   6.440   3.353  12.497  1.4660 -1.0014  1.0028
 3022TIP3   OH230480   3.056   2.531  11.978  0.2368  0.2312  0.2321
 3022TIP3    H130481   3.038   2.593  12.049  0.2907  0.8062 -0.2448
 3022TIP3    H230482   3.050   2.584  11.899  1.0197 -0.2130 -0.1389
 3023TIP3   OH230483   2.147   4.744  10.909  0.5635 -0.0500  0.3580
 3023TIP3    H130484   2.063   4.780  10.878  0.1321 -0.2124  1.3188
 3023TIP3    H230485   2.187   4.707  10.830 -0.4693 -0.3642 -0.0409
 3024TIP3   OH230486   4.763   2.842   5.647  0.3677  0.3058 -0.0331
 3024TIP3    H130487   4.695   2.825   5.581  0.4905  1.6999 -0.5369
 3024TIP3    H230488   4.740   2.784   5.720 -2.1989  1.6955  0.3949
 3025TIP3   OH230489   4.236   5.914  10.161  0.1549 -0.1545 -0.0740
 3025TIP3    H130490   4.169   5.920  10.229  1.0768 -0.7894  0.9127
 3025TIP3    H230491   4.250   5.820  10.150 -0.0474 -0.0677 -1.2349
 3026TIP3   OH230492   4.878   6.656  14.265 -0.5116  0.1206 -0.9544
 3026TIP3    H130493   4.894   6.750  14.270 -0.5104  0.0599  0.6871
 3026TIP3    H230494   4.952   6.621  14.216  0.6332  0.7256  0.2871
 3027TIP3   OH230495   1.183   0.250   0.760  0.1085  0.1332 -0.2657
 3027TIP3    H130496   1.260   0.301   0.786 -0.1787 -0.4028  1.8901
 3027TIP3    H230497   1.210   0.202   0.682  2.3850 -0.9062  1.0764
 3028TIP3   OH230498   3.232   2.806   2.581  0.1574 -0.7144 -0.5734
 3028TIP3    H130499   3.143   2.822   2.551  0.8432 -0.7686 -2.8201
 3028TIP3    H230500   3.232   2.715   2.610 -0.7910 -0.3462  0.6892
 3029TIP3   OH230501   1.216   6.276  12.626 -0.0512 -0.1280  0.1433
 3029TIP3    H130502   1.249   6.308  12.543  0.7381  1.3386  0.9808
 3029TIP3    H230503   1.149   6.339  12.652 -0.7454 -0.9213  0.3256
 3030TIP3   OH230504   4.791   6.629  17.369 -0.3380 -0.6905 -0.0818
 3030TIP3    H130505   4.822   6.686  17.440  0.7608 -1.6581  0.2402
 3030TIP3    H230506   4.706   6.666  17.344  1.0309  2.0691 -1.0148
 3031TIP3   OH230507   2.073   4.745  11.165 -0.5882  0.4345 -0.7152
 3031TIP3    H130508   2.016   4.674  11.195 -0.3426  0.7161  0.4491
 3031TIP3    H230509   2.110   4.712  11.083 -1.0144 -0.4979 -0.5521
 3032TIP3   OH230510   1.300   1.582   1.926  0.5649 -0.0088  0.5782
 3032TIP3    H130511   1.252   1.508   1.889  1.2013  0.4754 -1.3150
 3032TIP3    H230512   1.326   1.552   2.013 -2.5394 -0.5341  1.4356
 3033TIP3   OH230513   5.907   3.329  13.280  0.3665  0.1038 -0.1554
 3033TIP3    H130514   5.846   3.400  13.263  1.1550  0.5699 -1.1121
 3033TIP3    H230515   5.982   3.371  13.323 -0.2593 -0.5726  1.6779
 3034TIP3   OH230516   0.149   1.324   5.737 -0.1306 -0.3806  0.1783
 3034TIP3    H130517   0.204   1.310   5.660 -1.1549 -1.8349 -0.3562
 3034TIP3    H230518   0.205   1.305   5.812  0.0051 -2.4040 -0.3720
 3035TIP3   OH230519   6.638   2.156   1.320  0.4300 -0.3617 -0.5758
 3035TIP3    H130520   6.639   2.137   1.414 -1.6238 -0.3165 -0.5127
 3035TIP3    H230521   6.696   2.232   1.311  1.1153 -0.7143  0.5464
 3036TIP3   OH230522   5.804   2.399  10.518 -0.5392  0.2158 -0.3804
 3036TIP3    H130523   5.749   2.432  10.448 -2.8681  1.0106  1.6661
 3036TIP3    H230524   5.844   2.478  10.556  1.8786 -0.3141 -1.5980
 3037TIP3   OH230525   0.458   1.300   1.310 -0.4500  0.0057 -0.2574
 3037TIP3    H130526   0.398   1.279   1.381  0.4769 -2.1260 -0.0535
 3037TIP3    H230527   0.510   1.374   1.343 -2.6386  1.6838 -0.3268
 3038TIP3   OH230528   4.907   6.562  13.902  0.4012 -0.3165  0.1362
 3038TIP3    H130529   4.962   6.519  13.836 -0.4868  0.1108 -0.9207
 3038TIP3    H230530   4.960   6.636  13.932  1.2395 -1.1195  0.7076
 3039TIP3   OH230531   6.457   4.776   0.810 -0.1093  0.0505 -0.3732
 3039TIP3    H130532   6.438   4.713   0.740 -0.2603 -0.5426  0.1928
 3039TIP3    H230533   6.429   4.860   0.775  0.9613 -0.0402 -1.5030
 3040TIP3   OH230534   4.156   6.242   4.783 -0.0058  0.1491 -0.7211
 3040TIP3    H130535   4.230   6.189   4.813  0.1970  1.7274  1.8215
 3040TIP3    H230536   4.195   6.325   4.756 -0.7839  0.9489  0.5126
 3041TIP3   OH230537   3.540   4.710   5.841  1.0228  0.0897  0.5904
 3041TIP3    H130538   3.565   4.618   5.826  0.5108  0.1970 -1.1236
 3041TIP3    H230539   3.621   4.759   5.829  0.8112  0.0792 -1.1918
 3042TIP3   OH230540   1.169   4.159   1.814 -0.6267  0.0430  0.2702
 3042TIP3    H130541   1.133   4.106   1.884  0.6388  0.9841  1.6861
 3042TIP3    H230542   1.133   4.246   1.828 -1.9548 -0.1670 -1.4817
 3043TIP3   OH230543   6.705   6.295   4.387  0.0578 -0.0997 -0.8525
 3043TIP3    H130544   6.615   6.327   4.376  0.3880  1.2354  0.1444
 3043TIP3    H230545   6.742   6.300   4.299 -0.1046  1.7237 -0.8555
 3044TIP3   OH230546   0.960   1.911  11.191  0.3783  0.3284  0.3054
 3044TIP3    H130547   1.007   1.843  11.142 -0.4446  0.8894 -1.3538
 3044TIP3    H230548   1.015   1.988  11.185  0.3755  0.3410  0.4433
 3045TIP3   OH230549   3.011   6.079   5.653  0.1520 -0.3597 -0.8421
 3045TIP3    H130550   3.040   6.098   5.742  0.4360  1.6720 -1.3013
 3045TIP3    H230551   2.948   6.008   5.662  0.3008 -0.3006  0.9557
 3046TIP3   OH230552   2.896   2.904   1.106  0.0019  0.0237  0.7894
 3046TIP3    H130553   2.803   2.882   1.100 -0.1104  0.8516 -1.4113
 3046TIP3    H230554   2.934   2.833   1.157 -1.9793  0.2397  2.7335
 3047TIP3   OH230555   2.661   1.842   2.577  0.0284  0.2230 -0.8511
 3047TIP3    H130556   2.652   1.929   2.536 -1.0186  0.1471 -0.8056
 3047TIP3    H230557   2.575   1.824   2.614  1.0891  0.5819  2.0155
 3048TIP3   OH230558   0.117   4.130  13.986  0.1935  0.2735 -0.0509
 3048TIP3    H130559   0.161   4.202  13.941 -1.1078 -0.2803 -2.3580
 3048TIP3    H230560   0.134   4.053  13.931 -0.8483 -0.6105  0.8061
 3049TIP3   OH230561   2.609   4.477  14.765 -0.4917 -0.3775 -0.1322
 3049TIP3    H130562   2.571   4.410  14.708 -0.9308 -0.8101  0.6586
 3049TIP3    H230563   2.534   4.530  14.791 -0.2712 -0.1098 -0.0425
 3050TIP3   OH230564   2.075   1.328   2.250 -0.1588  0.1997 -0.1408
 3050TIP3    H130565   2.060   1.325   2.344  0.1680  1.4201 -0.0423
 3050TIP3    H230566   2.026   1.253   2.216 -3.3390  1.7691  0.6047
 3051TIP3   OH230567   1.916   1.323  12.733  0.2664  0.1320 -0.3628
 3051TIP3    H130568   2.005   1.311  12.700  0.6725  0.8486  0.4326
 3051TIP3    H230569   1.923   1.309  12.828 -0.1159  1.8518 -0.0420
 3052TIP3   OH230570   3.297   2.081   3.402 -0.2861  0.5038  1.0797
 3052TIP3    H130571   3.308   2.147   3.471 -1.1556 -1.9167  3.7740
 3052TIP3    H230572   3.228   2.024   3.436  0.8508 -2.1408 -0.7554
 3053TIP3   OH230573   0.691   3.551   1.022  0.2831 -0.1928 -0.0083
 3053TIP3    H130574   0.620   3.555   1.086  0.3552 -4.6011  0.6551
 3053TIP3    H230575   0.771   3.567   1.073  0.0623  2.1825 -0.2778
 3054TIP3   OH230576   3.969   2.968  15.912  0.1526  0.1813  0.0576
 3054TIP3    H130577   3.937   2.973  15.822 -1.1117  0.5466  0.5088
 3054TIP3    H230578   4.049   2.915  15.906  0.2654  0.4686 -1.3149
 3055TIP3   OH230579   0.846   2.374   3.841  0.3012 -0.2532 -0.5553
 3055TIP3    H130580   0.774   2.420   3.797  0.4657  0.9376  0.3687
 3055TIP3    H230581   0.832   2.282   3.819 -1.5987 -0.0687 -0.2936
 3056TIP3   OH230582   1.383   4.539   5.144 -0.5709  0.2084 -0.0890
 3056TIP3    H130583   1.424   4.611   5.096 -1.5606  0.7232 -0.1717
 3056TIP3    H230584   1.315   4.580   5.197 -2.2408 -0.8311 -1.3298
 3057TIP3   OH230585   4.483   1.929  10.448  0.0033 -0.2109  0.0023
 3057TIP3    H130586   4.496   1.838  10.422  1.9886  0.1114 -0.3284
 3057TIP3    H230587   4.389   1.944  10.438 -0.1613 -1.8083 -1.3167
 3058TIP3   OH230588   3.417   5.479   2.771 -0.4694 -0.1925 -0.1092
 3058TIP3    H130589   3.420   5.513   2.861  0.0578 -0.1702 -0.1344
 3058TIP3    H230590   3.508   5.458   2.750 -0.9008 -2.7670  0.3180
 3059TIP3   OH230591   1.166   5.963  13.294 -0.2472 -0.2658  0.1384
 3059TIP3    H130592   1.195   6.032  13.354  0.4286 -0.7654  0.4008
 3059TIP3    H230593   1.120   5.900  13.350 -0.3637 -0.3088 -0.0054
 3060TIP3   OH230594   5.229   3.354  13.452  0.1433 -0.3256 -0.4698
 3060TIP3    H130595   5.235   3.434  13.400 -1.2996  0.9016  1.1257
 3060TIP3    H230596   5.142   3.319  13.433 -0.2943 -0.0097  0.8577
 3061TIP3   OH230597   4.249   2.505  10.950  0.3193  0.7643 -0.2011
 3061TIP3    H130598   4.231   2.520  11.043 -0.4792  0.5543 -0.3164
 3061TIP3    H230599   4.193   2.566  10.904 -0.8227 -0.5195 -0.5882
 3062TIP3   OH230600   5.720   0.830   2.924 -0.1781 -0.6930  0.1437
 3062TIP3    H130601   5.738   0.858   2.835 -1.5670 -2.4862 -0.7489
 3062TIP3    H230602   5.625   0.833   2.932 -0.0538  0.3269  1.9067
 3063TIP3   OH230603   4.535   3.183  14.014  0.2469 -0.2084 -0.0397
 3063TIP3    H130604   4.477   3.236  14.069 -0.3640 -1.7931  0.9444
 3063TIP3    H230605   4.475   3.123  13.969  0.8953  0.0419 -1.2765
 3064TIP3   OH230606   5.267   4.294  17.132 -0.0904 -0.6973 -0.1287
 3064TIP3    H130607   5.358   4.294  17.161 -0.5712 -0.7291  1.4432
 3064TIP3    H230608   5.234   4.207  17.155 -0.7597 -0.3874  0.0944
 3065TIP3   OH230609   5.890   5.554   1.100 -0.0644 -0.3085  0.3522
 3065TIP3    H130610   5.918   5.590   1.184  0.7812 -1.0803  0.4162
 3065TIP3    H230611   5.896   5.627   1.039 -1.2930  0.4278  1.0728
 3066TIP3   OH230612   3.169   5.440   2.102 -0.6320  0.5763 -0.1325
 3066TIP3    H130613   3.176   5.353   2.062 -0.5833  0.4487  0.1487
 3066TIP3    H230614   3.084   5.440   2.144 -1.8967  1.6723 -2.4807
 3067TIP3   OH230615   6.578   6.327  12.630 -0.1386 -0.1610 -0.4222
 3067TIP3    H130616   6.561   6.293  12.718  1.5682 -0.4717 -0.1727
 3067TIP3    H230617   6.609   6.416  12.645  1.7348 -0.7565 -0.5454
 3068TIP3   OH230618   2.044   5.458   2.031 -0.2691  0.6264 -0.4239
 3068TIP3    H130619   1.973   5.514   2.063 -0.4252  0.4660 -0.4887
 3068TIP3    H230620   2.010   5.421   1.949 -0.0236  0.7268 -0.5706
 3069TIP3   OH230621   0.357   5.329   2.616 -0.6952  0.2094 -0.4151
 3069TIP3    H130622   0.312   5.250   2.646 -0.5535  0.2124 -0.1928
 3069TIP3    H230623   0.332   5.337   2.524 -3.0690  1.5221  0.2633
 3070TIP3   OH230624   2.020   0.635  14.959 -0.1796 -0.1543  0.1569
 3070TIP3    H130625   2.044   0.687  15.035  0.8342  1.1343 -1.0030
 3070TIP3    H230626   2.103   0.622  14.912 -0.7368 -1.2096 -0.5737
 3071TIP3   OH230627   1.719   4.830  17.346  0.1297 -0.1922  0.3491
 3071TIP3    H130628   1.751   4.803  17.260  0.5097  1.7251 -0.1542
 3071TIP3    H230629   1.788   4.802  17.407  0.2345 -0.8271 -0.0530
 3072TIP3   OH230630   2.563   4.344  13.513  0.3297 -0.5671 -0.3277
 3072TIP3    H130631   2.535   4.253  13.522  1.5332 -0.8750  0.5451
 3072TIP3    H230632   2.487   4.389  13.477 -0.3652 -1.8690 -0.5505
 3073TIP3   OH230633   0.990   6.251  11.210  0.7967 -0.0116 -0.1967
 3073TIP3    H130634   1.014   6.190  11.280  0.5138 -0.8700 -0.8360
 3073TIP3    H230635   0.993   6.199  11.130  4.2618  1.6157 -1.3467
 3074TIP3   OH230636   0.251   1.298   3.553 -0.0838 -0.0638 -0.0341
 3074TIP3    H130637   0.337   1.266   3.579  0.0957  0.2038 -0.2851
 3074TIP3    H230638   0.268   1.351   3.475 -0.5699 -0.6304 -0.5376
 3075TIP3   OH230639   1.935   6.616   2.468 -0.5921 -0.3293  0.0109
 3075TIP3    H130640   2.018   6.655   2.439  1.1119 -2.1031  2.0991
 3075TIP3    H230641   1.868   6.678   2.440  1.6083  2.3028  0.1165
 3076TIP3   OH230642   4.089   2.295  13.549 -0.5102 -0.4288  0.4440
 3076TIP3    H130643   3.999   2.265  13.532  0.1742 -3.0194  1.0366
 3076TIP3    H230644   4.106   2.272  13.640  1.0949 -0.8933  0.0547
 3077TIP3   OH230645   2.766   1.572   3.568 -0.2549  0.2332  0.0941
 3077TIP3    H130646   2.792   1.481   3.575  0.9934  0.5033 -0.7436
 3077TIP3    H230647   2.672   1.569   3.548 -0.2984 -0.8474  0.4180
 3078TIP3   OH230648   3.328   2.629  12.550 -0.0368 -1.1486  0.3057
 3078TIP3    H130649   3.420   2.626  12.576  0.1113 -0.9301 -0.1735
 3078TIP3    H230650   3.329   2.672  12.464 -0.8230  1.3459  1.4322
 3079TIP3   OH230651   0.936   0.021  12.333 -0.6435 -0.3059 -0.0342
 3079TIP3    H130652   0.887   0.079  12.391  2.2453  0.6086  1.6825
 3079TIP3    H230653   0.905  -0.067  12.354  0.2207  0.0024  2.9195
 3080TIP3   OH230654   3.901   4.469  10.613  0.1213 -0.6714  0.3926
 3080TIP3    H130655   3.888   4.494  10.705  3.7427 -3.1875  1.7874
 3080TIP3    H230656   3.881   4.375  10.611  1.9716 -1.0830 -0.8785
 3081TIP3   OH230657   3.986   1.827  14.530 -0.3341  0.3520  0.1803
 3081TIP3    H130658   4.018   1.768  14.462 -0.9662 -0.9885  0.9950
 3081TIP3    H230659   4.036   1.908  14.518 -0.3569  0.1213 -1.7859
 3082TIP3   OH230660   1.423   0.541  17.116  0.3233  0.5502 -0.0553
 3082TIP3    H130661   1.435   0.553  17.210  0.1670  3.1784 -0.2940
 3082TIP3    H230662   1.506   0.570  17.078  0.5023 -0.7983 -0.7370
 3083TIP3   OH230663   6.313   3.913  15.804 -0.1328 -0.7013  0.0525
 3083TIP3    H130664   6.236   3.906  15.747 -0.0637  0.1782 -0.1672
 3083TIP3    H230665   6.283   3.883  15.890 -1.0956  0.7896  0.2806
 3084TIP3   OH230666   1.693   4.210   3.888 -0.3507 -0.5071 -0.2114
 3084TIP3    H130667   1.675   4.262   3.966 -0.2336 -1.3736  0.3997
 3084TIP3    H230668   1.752   4.265   3.836  0.2110 -0.2586  0.6747
 3085TIP3   OH230669   2.153   3.791  13.798 -0.2376  0.4592 -0.2019
 3085TIP3    H130670   2.151   3.776  13.703 -1.0447  2.5863 -0.5723
 3085TIP3    H230671   2.198   3.875  13.808 -0.1270  0.2442  1.3142
 3086TIP3   OH230672   1.979   0.941  13.632  0.3549 -0.0046  0.1770
 3086TIP3    H130673   1.996   0.854  13.596  0.4146  0.9101 -2.1723
 3086TIP3    H230674   2.047   0.997  13.595 -0.8400  1.4198  0.0190
 3087TIP3   OH230675   3.129   1.528  15.253  0.2827 -0.1563 -0.5197
 3087TIP3    H130676   3.074   1.464  15.209  0.0327  0.2432 -0.7893
 3087TIP3    H230677   3.208   1.534  15.198  0.9107 -1.2361  0.2284
 3088TIP3   OH230678   5.328   6.432  11.880 -0.3637 -0.0101  0.2551
 3088TIP3    H130679   5.233   6.437  11.878 -0.3754  0.3636  1.2954
 3088TIP3    H230680   5.353   6.412  11.789 -1.4846 -1.3306  0.2141
 3089TIP3   OH230681   5.930   3.523  17.241  0.0627  0.2929 -0.2882
 3089TIP3    H130682   5.977   3.592  17.288  0.6789 -1.0353  1.1197
 3089TIP3    H230683   5.998   3.469  17.201 -0.3111 -0.6047  0.2428
 3090TIP3   OH230684   1.653   1.568   5.355 -0.0175 -0.0708 -0.6022
 3090TIP3    H130685   1.603   1.645   5.382 -0.4167 -0.7733  0.7858
 3090TIP3    H230686   1.743   1.588   5.378  0.2080  0.7397 -2.0576
 3091TIP3   OH230687   2.203   3.087   2.142  0.4842  0.3383 -0.4377
 3091TIP3    H130688   2.133   3.136   2.186  0.7355  0.4100 -0.1147
 3091TIP3    H230689   2.252   3.047   2.213 -0.4204 -1.3844 -0.7231
 3092TIP3   OH230690   2.720   0.083  10.808  0.0974  0.2627  0.1416
 3092TIP3    H130691   2.635   0.091  10.766 -0.2121 -0.1723  0.6674
 3092TIP3    H230692   2.753  -0.003  10.781  1.9408  1.7330 -2.8425
 3093TIP3   OH230693   4.160   5.766   6.507 -0.6541 -0.1152  0.2687
 3093TIP3    H130694   4.246   5.762   6.464  0.3358  1.0602  1.9823
 3093TIP3    H230695   4.161   5.694   6.570 -0.8931 -0.0600  0.3362
 3094TIP3   OH230696   2.431   1.718  13.759 -0.1721 -0.1967 -0.3755
 3094TIP3    H130697   2.503   1.660  13.786 -0.9190 -0.9354  0.0936
 3094TIP3    H230698   2.423   1.781  13.831  1.6575  1.5090 -1.5835
 3095TIP3   OH230699   6.645   4.348  13.970 -0.7017  0.1394  0.2815
 3095TIP3    H130700   6.675   4.318  14.056  0.4371 -0.1085 -0.1835
 3095TIP3    H230701   6.668   4.441  13.968 -0.0404 -0.0249 -0.0319
 3096TIP3   OH230702   4.375   6.452   6.267 -0.2026 -0.3691  0.2530
 3096TIP3    H130703   4.321   6.507   6.210  0.0520 -2.7065 -2.4947
 3096TIP3    H230704   4.463   6.460   6.232  0.5008  0.1608  2.0580
 3097TIP3   OH230705   3.285   1.927  11.860 -0.1039 -0.2696  0.0380
 3097TIP3    H130706   3.214   1.992  11.868 -0.3286 -0.4959 -0.1024
 3097TIP3    H230707   3.352   1.971  11.807  0.3359  0.3485  1.0661
 3098TIP3   OH230708   0.804   5.734   1.540  0.5964  0.3572  0.2471
 3098TIP3    H130709   0.805   5.739   1.635  1.9556  0.1281  0.2649
 3098TIP3    H230710   0.896   5.741   1.515  0.2204  0.8040 -1.0714
 3099TIP3   OH230711   4.428   1.978  17.357 -0.5906 -0.4495  0.2430
 3099TIP3    H130712   4.445   2.060  17.405 -2.1103  0.0830 -0.0848
 3099TIP3    H230713   4.382   2.006  17.278  0.6767 -1.4473 -0.8915
 3100TIP3   OH230714   0.444   4.695  16.155 -0.6708  0.4962 -0.4670
 3100TIP3    H130715   0.456   4.621  16.215  0.3146  1.7299  0.9529
 3100TIP3    H230716   0.525   4.696  16.103 -1.3835 -0.3703 -1.6501
 3101TIP3   OH230717   6.321   1.750   6.298  0.0805 -0.2809 -0.2166
 3101TIP3    H130718   6.305   1.657   6.317 -2.0606 -0.0155 -0.5092
 3101TIP3    H230719   6.335   1.753   6.203 -2.2609 -0.0659 -0.6052
 3102TIP3   OH230720   5.464   0.406   2.732 -0.7613 -0.0002 -0.2124
 3102TIP3    H130721   5.469   0.488   2.683 -1.0108  0.7894  1.0332
 3102TIP3    H230722   5.549   0.400   2.777 -0.2149 -1.1287 -1.3356
 3103TIP3   OH230723   6.280   0.059  13.672  0.1812  0.0105 -0.1464
 3103TIP3    H130724   6.278   0.155  13.671  0.3710  0.0191  0.1387
 3103TIP3    H230725   6.331   0.036  13.594  2.4826  0.2345  1.1843
 3104TIP3   OH230726   1.979   3.576   0.532 -0.5188  0.9628 -0.0832
 3104TIP3    H130727   2.064   3.593   0.493 -0.2135  2.5946  1.1719
 3104TIP3    H230728   1.971   3.481   0.534 -0.2736  0.7877 -3.4041
 3105TIP3   OH230729   1.150   3.861  16.997 -0.4602 -0.0495  0.0444
 3105TIP3    H130730   1.125   3.816  16.916  1.3131 -0.3428 -0.3930
 3105TIP3    H230731   1.242   3.884  16.983 -0.9684  2.7078  0.7346
 3106TIP3   OH230732   3.438   2.251  16.721  0.3495 -0.5775  0.9423
 3106TIP3    H130733   3.455   2.176  16.663 -1.6689 -0.2746 -0.1344
 3106TIP3    H230734   3.501   2.317  16.693  0.2893 -0.9026 -0.0206
 3107TIP3   OH230735   0.982   6.027   3.084  0.1513 -0.7960  0.2388
 3107TIP3    H130736   1.049   6.087   3.115  0.3435 -1.2613  0.7404
 3107TIP3    H230737   1.016   5.992   3.001  1.3191 -2.2994  1.2998
 3108TIP3   OH230738   6.221   1.653   3.902 -0.7660  0.6893 -0.0772
 3108TIP3    H130739   6.238   1.668   3.809 -1.8511  0.3846 -0.3340
 3108TIP3    H230740   6.241   1.561   3.916  2.7109  1.4231  0.7844
 3109TIP3   OH230741   6.407   4.014  13.357 -0.6284  0.1449  0.3113
 3109TIP3    H130742   6.369   3.934  13.392 -0.6691 -0.0565 -0.1856
 3109TIP3    H230743   6.337   4.079  13.362 -0.2737  0.4621  1.7358
 3110TIP3   OH230744   4.042   4.249   3.205 -0.0693 -0.1968  0.7308
 3110TIP3    H130745   4.002   4.176   3.252  0.7268 -1.4100 -0.4005
 3110TIP3    H230746   4.090   4.207   3.134  0.3776  1.4526  0.0335
 3111TIP3   OH230747   0.876   0.937  11.216 -0.1914 -0.3732  1.2054
 3111TIP3    H130748   0.854   0.846  11.196 -1.4690  0.3304 -0.8705
 3111TIP3    H230749   0.968   0.933  11.244  0.2631 -2.1509 -0.2926
 3112TIP3   OH230750   1.721   5.963  11.414  0.3959 -0.4777  0.0152
 3112TIP3    H130751   1.655   5.914  11.463 -0.5539 -0.2973 -1.0501
 3112TIP3    H230752   1.671   6.013  11.349  1.5680 -0.2472 -0.7403
 3113TIP3   OH230753   1.656   6.700  16.041 -0.2267 -0.5770 -0.5184
 3113TIP3    H130754   1.593   6.635  16.074  0.2389 -0.5755  0.3974
 3113TIP3    H230755   1.741   6.659  16.054  0.1436  0.6015  1.0195
 3114TIP3   OH230756   1.199   4.576   3.718  0.0828 -0.1105  0.4981
 3114TIP3    H130757   1.233   4.563   3.806  0.5207  0.1803  0.3734
 3114TIP3    H230758   1.133   4.507   3.707  1.1838 -1.1967  0.4636
 3115TIP3   OH230759   5.581   0.173  17.238  0.2715  0.2345  0.1404
 3115TIP3    H130760   5.637   0.248  17.256  1.7289 -0.7797  0.0147
 3115TIP3    H230761   5.642   0.099  17.230 -1.1873 -1.1576  1.3339
 3116TIP3   OH230762   5.984   3.608   3.764  0.0168  0.3183 -0.7812
 3116TIP3    H130763   5.919   3.538   3.767 -0.1701  0.4094 -2.1815
 3116TIP3    H230764   5.936   3.687   3.788  0.4519 -0.1327  1.8448
 3117TIP3   OH230765   2.968   2.269  13.767  0.4249 -0.3162  0.4028
 3117TIP3    H130766   2.962   2.216  13.846  1.2619  0.5916  1.0972
 3117TIP3    H230767   2.904   2.230  13.707  1.7039 -2.7141  0.4993
 3118TIP3   OH230768   1.207   5.942   2.078 -0.2932  0.6257 -0.3146
 3118TIP3    H130769   1.182   5.883   2.007 -0.0700 -0.0073  0.1211
 3118TIP3    H230770   1.255   6.013   2.035  2.8215 -1.4243 -0.5132
 3119TIP3   OH230771   6.347   1.214  12.348  0.4792 -0.4016 -0.2504
 3119TIP3    H130772   6.436   1.234  12.319  0.2846 -0.1658 -0.6860
 3119TIP3    H230773   6.305   1.174  12.273 -0.9017  2.7185 -1.3289
 3120TIP3   OH230774   2.314   1.994  12.717  0.1017  0.2492  0.6908
 3120TIP3    H130775   2.389   1.956  12.762  1.8681  0.8617 -1.5408
 3120TIP3    H230776   2.283   1.924  12.659 -1.5105 -0.1975  2.0031
 3121TIP3   OH230777   5.324   3.636   5.153 -0.3402 -0.2403 -0.2418
 3121TIP3    H130778   5.287   3.579   5.086 -2.4261  0.3379  0.3516
 3121TIP3    H230779   5.394   3.584   5.193  2.0910 -0.0891 -3.7734
 3122TIP3   OH230780   2.034   2.365  14.715 -0.3577  0.2520  0.4413
 3122TIP3    H130781   2.087   2.414  14.777  0.2477  1.8801 -1.2823
 3122TIP3    H230782   2.069   2.388  14.629 -0.6799 -2.4844 -0.5230
 3123TIP3   OH230783   3.952   6.514   1.410  1.0816  0.4450 -0.2874
 3123TIP3    H130784   4.016   6.573   1.450  0.8628  1.1746 -0.9729
 3123TIP3    H230785   3.891   6.493   1.481  1.1374  1.0864 -0.0386
 3124TIP3   OH230786   4.297   1.605   2.132 -0.4197  0.3086  0.1081
 3124TIP3    H130787   4.314   1.693   2.097 -0.9510  0.0239 -0.9164
 3124TIP3    H230788   4.231   1.619   2.200 -1.6844  0.5487 -1.1221
 3125TIP3   OH230789   5.834   2.137   1.633 -0.1215  0.5095  0.7199
 3125TIP3    H130790   5.778   2.168   1.562 -1.0988 -0.8776  0.8460
 3125TIP3    H230791   5.773   2.100   1.697  0.8622  0.1902  1.4923
 3126TIP3   OH230792   4.294   1.859   1.926  0.7111  0.0054  0.3040
 3126TIP3    H130793   4.252   1.917   1.863 -3.1439 -0.2714  2.3564
 3126TIP3    H230794   4.295   1.908   2.008  2.1985 -1.0019  0.9510
 3127TIP3   OH230795   2.642   0.462  11.364 -0.0093  0.5829 -0.0812
 3127TIP3    H130796   2.713   0.492  11.421 -0.0147  2.3588 -0.9713
 3127TIP3    H230797   2.562   0.478  11.414  0.1398 -2.0467  1.2112
 3128TIP3   OH230798   1.946   4.866   5.770  0.2055 -0.0722  0.4441
 3128TIP3    H130799   1.958   4.811   5.692 -1.5162 -0.5339  0.4645
 3128TIP3    H230800   1.875   4.824   5.818 -0.5036  1.6328  0.9658
 3129TIP3   OH230801   6.044   2.706   6.245 -0.0966  0.6396  0.3986
 3129TIP3    H130802   6.056   2.660   6.162  1.0717 -0.0836  0.9349
 3129TIP3    H230803   5.999   2.787   6.221  0.0488  0.3637 -0.9072
 3130TIP3   OH230804   5.634   0.838  12.826  0.1232  0.1839  0.2709
 3130TIP3    H130805   5.616   0.761  12.879 -0.4327 -1.1138 -1.7063
 3130TIP3    H230806   5.678   0.804  12.748 -1.5369  1.6175 -1.3884
 3131TIP3   OH230807   1.906   4.427   5.740  0.7311  0.0332 -0.1968
 3131TIP3    H130808   1.845   4.404   5.811 -1.0742 -0.3699 -1.7850
 3131TIP3    H230809   1.852   4.476   5.678  1.9316 -0.7209 -1.8843
 3132TIP3   OH230810   5.502   5.788  17.152 -0.9700  0.2463 -0.0966
 3132TIP3    H130811   5.444   5.763  17.081 -1.4268 -0.2682  0.4542
 3132TIP3    H230812   5.530   5.706  17.192  0.7864  0.4283 -0.8388
 3133TIP3   OH230813   4.579   4.437   0.472 -0.1644  0.2577 -0.4158
 3133TIP3    H130814   4.604   4.405   0.559 -0.5655  1.5470  0.1898
 3133TIP3    H230815   4.637   4.389   0.412 -1.8857 -2.9616  0.2327
 3134TIP3   OH230816   1.346   4.791   4.433  0.0251  0.2321 -0.0466
 3134TIP3    H130817   1.406   4.788   4.358 -0.1205  1.9934 -0.2900
 3134TIP3    H230818   1.301   4.707   4.432  1.4252 -0.5316 -0.7596
 3135TIP3   OH230819   6.042   1.907   3.537 -0.2195  0.2137  0.0014
 3135TIP3    H130820   5.990   1.849   3.591 -0.4591  0.0133 -0.4342
 3135TIP3    H230821   6.124   1.918   3.584 -1.8213  3.2592  2.4649
 3136TIP3   OH230822   4.025   4.142   5.046  0.6495 -0.3190 -0.3326
 3136TIP3    H130823   3.967   4.198   4.994  2.1448 -0.3121 -2.0680
 3136TIP3    H230824   4.035   4.062   4.995  0.9680 -0.9495  0.6797
 3137TIP3   OH230825   2.877   6.567   4.629  0.3722  0.1998 -0.7160
 3137TIP3    H130826   2.799   6.581   4.683  1.4852  2.7947  0.3675
 3137TIP3    H230827   2.868   6.477   4.598 -2.5555  0.0789  0.1383
 3138TIP3   OH230828   6.587   1.479   2.770  0.1978  0.4734 -0.0665
 3138TIP3    H130829   6.597   1.573   2.783  1.0476  0.1945  1.6172
 3138TIP3    H230830   6.516   1.454   2.829 -0.7417  0.1953 -1.2752
 3139TIP3   OH230831   3.003   3.623   3.640  0.2975 -0.0824 -0.2767
 3139TIP3    H130832   3.083   3.671   3.619  0.5206  0.6927  2.0266
 3139TIP3    H230833   3.034   3.534   3.660  0.0685 -0.8665 -2.9593
 3140TIP3   OH230834   2.198   0.018  15.698 -0.3021 -0.0518  0.6438
 3140TIP3    H130835   2.263  -0.042  15.661  0.9354  1.8017 -0.3824
 3140TIP3    H230836   2.122   0.009  15.640 -0.3992 -1.0941  0.9127
 3141TIP3   OH230837   2.032   4.831  14.192 -0.3789  0.0279 -0.2537
 3141TIP3    H130838   1.958   4.801  14.245 -0.1726  0.2523  0.1651
 3141TIP3    H230839   1.996   4.903  14.140 -0.6495 -0.3642 -0.6171
 3142TIP3   OH230840   2.318   5.939   2.952 -0.4040 -0.2427 -0.8048
 3142TIP3    H130841   2.234   5.960   2.994  0.3166  0.9391  0.1079
 3142TIP3    H230842   2.383   5.985   3.005  0.8462 -1.2690 -1.4009
 3143TIP3   OH230843   1.515   5.194  13.365  0.3711 -0.3359  0.5644
 3143TIP3    H130844   1.610   5.193  13.375  0.2379 -2.5800  2.3454
 3143TIP3    H230845   1.491   5.102  13.352 -1.5876  0.1427  0.4814
 3144TIP3   OH230846   3.317   3.978   3.348 -0.6861  0.6749 -0.1437
 3144TIP3    H130847   3.393   4.030   3.321  0.1386  0.7585  2.0802
 3144TIP3    H230848   3.310   3.909   3.282  0.4437  1.4941 -1.1674
 3145TIP3   OH230849   3.138   0.865   2.074  0.1390  0.3760 -0.2333
 3145TIP3    H130850   3.115   0.936   2.014  1.3116  0.6381 -0.4096
 3145TIP3    H230851   3.083   0.792   2.046  1.7603 -0.0195 -2.7524
 3146TIP3   OH230852   2.098   1.828  13.404 -0.1953  0.1331 -0.1973
 3146TIP3    H130853   2.122   1.814  13.496  1.7019 -0.1535 -0.6861
 3146TIP3    H230854   2.170   1.882  13.369 -0.0580 -1.0694 -1.8775
 3147TIP3   OH230855   3.381   3.713   5.256  0.1535  0.0192 -0.4066
 3147TIP3    H130856   3.330   3.634   5.274  1.9749 -1.3370 -0.8564
 3147TIP3    H230857   3.430   3.728   5.336 -1.1866  1.5604  0.1750
 3148TIP3   OH230858   5.721   5.240   5.878 -0.0715 -0.0197  0.2308
 3148TIP3    H130859   5.809   5.204   5.880 -0.0877 -0.0700  0.0264
 3148TIP3    H230860   5.733   5.332   5.902  0.3655  0.6322 -2.2487
 3149TIP3   OH230861   2.128   3.570   2.970  0.5670 -0.2301  0.0591
 3149TIP3    H130862   2.133   3.475   2.961  1.1725 -0.2084  0.1180
 3149TIP3    H230863   2.129   3.602   2.880  1.1204 -0.2467  0.0595
 3150TIP3   OH230864   5.183   1.215   5.334 -0.1229 -0.1911 -0.2403
 3150TIP3    H130865   5.253   1.217   5.399 -1.7135 -0.1769  1.5498
 3150TIP3    H230866   5.182   1.125   5.302 -0.6903 -0.7956  1.3847
 3151TIP3   OH230867   5.358   1.698  14.226 -0.3535 -0.1693  0.0595
 3151TIP3    H130868   5.283   1.642  14.206 -0.4820 -0.3817  1.0932
 3151TIP3    H230869   5.429   1.664  14.171 -0.8709 -0.2802 -0.5560
 3152TIP3   OH230870   5.452   4.404   3.743  0.4164 -0.1059  0.2567
 3152TIP3    H130871   5.518   4.441   3.684  1.2180 -0.7295  0.7382
 3152TIP3    H230872   5.392   4.358   3.686  0.3993  0.4585 -0.1911
 3153TIP3   OH230873   4.704   1.740  12.243 -0.6906  0.0924  0.0919
 3153TIP3    H130874   4.781   1.725  12.297 -0.2526  1.7329 -0.0112
 3153TIP3    H230875   4.630   1.733  12.303 -0.3205  0.3527  0.5837
 3154TIP3   OH230876   1.308   0.345  10.621  0.5477 -0.2136  0.2718
 3154TIP3    H130877   1.262   0.262  10.631 -2.2652  1.0826 -0.8771
 3154TIP3    H230878   1.320   0.356  10.527  1.5320  0.3825  0.4459
 3155TIP3   OH230879   5.390   0.825  11.168  0.1349 -0.3280  0.5360
 3155TIP3    H130880   5.481   0.803  11.186  1.0041  2.4128 -0.1317
 3155TIP3    H230881   5.344   0.806  11.250  1.6852  0.0964  1.5383
 3156TIP3   OH230882   0.201   1.771  13.247 -0.1513  0.4845  0.1632
 3156TIP3    H130883   0.178   1.789  13.156  1.6505  0.8822 -0.2529
 3156TIP3    H230884   0.207   1.676  13.251  1.2245  0.5180 -0.5529
 3157TIP3   OH230885   4.450   4.064   2.698  0.3191 -0.6112 -0.3602
 3157TIP3    H130886   4.445   4.040   2.791 -0.8237 -1.3885 -0.5922
 3157TIP3    H230887   4.358   4.075   2.672  0.6419 -0.0823 -1.3227
 3158TIP3   OH230888   2.418   3.549  12.062  0.1120  0.5803  0.1854
 3158TIP3    H130889   2.431   3.534  11.968 -0.6842 -1.9949  0.3891
 3158TIP3    H230890   2.465   3.630  12.080  1.1153  0.6440 -2.2399
 3159TIP3   OH230891   3.848   6.752  16.826 -0.6397 -0.2506  0.4449
 3159TIP3    H130892   3.890   6.766  16.741 -0.6778  0.0646  0.4770
 3159TIP3    H230893   3.832   6.658  16.830  0.2588 -0.4064  0.5230
 3160TIP3   OH230894   4.915   2.227  15.070  0.0344 -0.3015  0.3458
 3160TIP3    H130895   4.906   2.207  14.977  0.1594 -2.5688  0.7567
 3160TIP3    H230896   4.997   2.186  15.095 -0.9355 -1.4516  1.8246
 3161TIP3   OH230897   1.331   5.173  12.339 -0.0339 -0.2616 -0.6544
 3161TIP3    H130898   1.366   5.104  12.396  0.1621 -1.1353 -1.8079
 3161TIP3    H230899   1.409   5.219  12.307 -0.2033  1.8275  1.6393
 3162TIP3   OH230900   1.836   1.164  13.541 -0.4794  0.0328  0.3195
 3162TIP3    H130901   1.762   1.201  13.589 -1.1315 -1.7749  0.8095
 3162TIP3    H230902   1.876   1.102  13.602  1.0255  0.4390 -0.1998
 3163TIP3   OH230903   5.363   5.015   2.940  0.8151 -0.1527 -0.1729
 3163TIP3    H130904   5.334   4.986   2.853 -1.0586  1.0863 -0.0165
 3163TIP3    H230905   5.288   4.998   2.997  1.7220 -0.1926  1.0649
 3164TIP3   OH230906   2.090   4.021  13.004  0.0809  0.0676  0.0304
 3164TIP3    H130907   2.183   4.004  13.015  0.2421  1.2303  0.5741
 3164TIP3    H230908   2.047   3.942  13.037  0.8371  0.0853  1.1061
 3165TIP3   OH230909   1.688   0.714   5.619 -0.1166 -0.6075 -0.2244
 3165TIP3    H130910   1.612   0.739   5.566 -0.1006  0.5913  0.2778
 3165TIP3    H230911   1.669   0.750   5.705  1.3912  0.4345 -0.2957
 3166TIP3   OH230912   1.066   5.625   0.002 -0.0754 -0.5079 -0.1574
 3166TIP3    H130913   1.013   5.546   0.005 -2.1871  0.7822 -0.9470
 3166TIP3    H230914   1.024   5.679  -0.066  1.1523  1.3667  0.5021
 3167TIP3   OH230915   2.024   0.714  16.091 -0.0021 -0.0679 -0.3278
 3167TIP3    H130916   2.033   0.785  16.027  0.6391 -2.2828 -2.9241
 3167TIP3    H230917   2.109   0.709  16.134  0.5824 -0.3636 -1.4686
 3168TIP3   OH230918   3.019   6.563  15.303  0.0181  0.2626  0.4511
 3168TIP3    H130919   2.935   6.534  15.270 -0.1743  0.7481  0.5063
 3168TIP3    H230920   2.999   6.611  15.383  0.4457 -0.5657  1.0725
 3169TIP3   OH230921   1.873   1.860   0.262 -0.1400 -0.1728 -0.2723
 3169TIP3    H130922   1.907   1.774   0.239 -0.5953 -0.6507  0.8144
 3169TIP3    H230923   1.951   1.911   0.286 -0.1122 -1.2031  2.0096
 3170TIP3   OH230924   2.312   0.597  16.146 -0.4917 -0.6044  0.2210
 3170TIP3    H130925   2.331   0.504  16.160  0.5430 -0.4666 -0.2245
 3170TIP3    H230926   2.382   0.628  16.089  0.2499  0.8875  1.8345
 3171TIP3   OH230927   1.705   2.991   0.365 -0.6206 -0.3032 -0.2209
 3171TIP3    H130928   1.774   2.925   0.363 -0.8270 -0.5180 -0.1613
 3171TIP3    H230929   1.632   2.952   0.318 -0.6016  0.0385 -0.5418
 3172TIP3   OH230930   3.177   0.224  16.358 -0.2831  0.3345  0.0702
 3172TIP3    H130931   3.188   0.289  16.428  0.2883  0.6443 -0.3049
 3172TIP3    H230932   3.088   0.239  16.327 -0.8656 -0.3932  1.3148
 3173TIP3   OH230933   4.733   3.154  12.099 -0.0320 -0.3448 -0.3104
 3173TIP3    H130934   4.825   3.139  12.077 -0.0785 -0.9945 -0.0642
 3173TIP3    H230935   4.714   3.240  12.061 -0.0165 -1.2548 -2.5785
 3174TIP3   OH230936   1.773   5.075   5.557  0.3228  0.1810 -0.3120
 3174TIP3    H130937   1.688   5.120   5.553  0.3815  0.2279 -1.1993
 3174TIP3    H230938   1.812   5.105   5.639 -1.5924 -1.8040  1.4480
 3175TIP3   OH230939   5.237   1.150  11.668 -0.3048 -0.1814 -0.0955
 3175TIP3    H130940   5.317   1.101  11.649 -0.7382 -1.0565  0.2453
 3175TIP3    H230941   5.194   1.098  11.736 -1.6259 -0.2484 -0.9516
 3176TIP3   OH230942   3.629   4.898   0.743 -0.6004  0.0220  0.2700
 3176TIP3    H130943   3.696   4.861   0.686  1.8572  1.4186  2.0520
 3176TIP3    H230944   3.553   4.910   0.686  1.0530 -0.4490 -2.1930
 3177TIP3   OH230945   0.422   5.753   2.462  0.1763  0.4296  0.9368
 3177TIP3    H130946   0.327   5.737   2.466  0.1084  0.9772  1.9029
 3177TIP3    H230947   0.460   5.675   2.502  0.5287 -2.5028 -4.3286
 3178TIP3   OH230948   4.223   2.789  12.349  0.2856  0.5059  0.0331
 3178TIP3    H130949   4.222   2.868  12.294  2.4683  0.3975 -0.2618
 3178TIP3    H230950   4.213   2.717  12.287  0.8722  0.4651 -0.0236
 3179TIP3   OH230951   6.501   1.572   4.799  0.6943  0.0004  0.4025
 3179TIP3    H130952   6.437   1.630   4.758  1.2162  0.9664  0.9219
 3179TIP3    H230953   6.559   1.545   4.728  0.3151 -0.0621  0.1182
 3180TIP3   OH230954   5.208   2.751   1.232 -0.0526 -0.0703  0.1262
 3180TIP3    H130955   5.202   2.674   1.289  2.9007 -0.0998  0.5373
 3180TIP3    H230956   5.133   2.743   1.173 -0.2886 -2.8413  0.6698
 3181TIP3   OH230957   0.387   0.787  10.436  0.0823  0.0851  0.2499
 3181TIP3    H130958   0.441   0.723  10.483 -2.3576 -1.1678  1.5559
 3181TIP3    H230959   0.305   0.741  10.419 -0.7531  2.0113 -1.3160
 3182TIP3   OH230960   2.972   5.719  11.064  0.2691  0.3141 -0.4979
 3182TIP3    H130961   2.879   5.701  11.077 -0.3897  0.9811 -3.6418
 3182TIP3    H230962   3.010   5.632  11.047  0.0549  0.1500 -0.1631
 3183TIP3   OH230963   1.656   0.077  10.869  0.9553  0.1001  0.5987
 3183TIP3    H130964   1.593   0.148  10.882 -1.8325 -1.9703 -0.3910
 3183TIP3    H230965   1.711   0.106  10.797 -0.5634  1.0222 -0.2494
 3184TIP3   OH230966   1.751   6.163  14.166 -0.7138 -0.0938  0.1810
 3184TIP3    H130967   1.735   6.092  14.229  2.2750 -0.2236  0.9620
 3184TIP3    H230968   1.798   6.122  14.094 -1.7415  0.5666 -0.9121
 3185TIP3   OH230969   5.720   3.121  13.273 -0.0203 -0.0974  0.1512
 3185TIP3    H130970   5.756   3.062  13.207  0.7795 -0.2687  0.7325
 3185TIP3    H230971   5.785   3.191  13.281 -0.3709  0.2126  0.3667
 3186TIP3   OH230972   2.771   1.597  10.751 -0.0940 -0.1623 -0.1551
 3186TIP3    H130973   2.809   1.644  10.677 -2.6869  0.1816 -1.3509
 3186TIP3    H230974   2.819   1.514  10.753  0.1487 -0.1196 -2.1335
 3187TIP3   OH230975   4.678   2.481  17.089 -0.6777  0.4073 -0.0774
 3187TIP3    H130976   4.615   2.552  17.079  0.4765  1.1592 -2.6964
 3187TIP3    H230977   4.758   2.513  17.049  0.5077 -1.6121  0.5180
 3188TIP3   OH230978   0.752   5.795  12.840 -0.2775 -0.0938  0.7491
 3188TIP3    H130979   0.712   5.719  12.797  0.8184 -1.5430  2.1507
 3188TIP3    H230980   0.830   5.814  12.788  0.0922 -0.7175  1.0639
 3189TIP3   OH230981   4.531   2.875   6.062  0.1891 -0.2665  0.5172
 3189TIP3    H130982   4.621   2.843   6.069  0.1103 -0.4459  0.6996
 3189TIP3    H230983   4.491   2.851   6.146  0.3460  0.9548  0.9755
 3190TIP3   OH230984   4.435   6.196   1.396  0.1698 -0.0147 -0.2147
 3190TIP3    H130985   4.515   6.204   1.345 -0.9763  0.3491 -2.0118
 3190TIP3    H230986   4.436   6.271   1.455  0.9640  0.1814 -0.4687
 3191TIP3   OH230987   4.135   4.007   0.672  0.4099  0.5539  0.4441
 3191TIP3    H130988   4.174   4.090   0.644 -1.9632  1.4354 -0.4850
 3191TIP3    H230989   4.044   4.029   0.691 -1.3341 -2.3963 -3.2677
 3192TIP3   OH230990   6.641   4.308  16.082  0.3802 -0.1662 -0.0440
 3192TIP3    H130991   6.586   4.248  16.134 -0.5162  0.1184 -0.6412
 3192TIP3    H230992   6.723   4.312  16.130 -0.4379  0.1202  1.3959
 3193TIP3   OH230993   3.382   2.921  15.382 -0.4888  0.0493 -0.3729
 3193TIP3    H130994   3.441   2.848  15.364  0.7480  0.8112  0.3974
 3193TIP3    H230995   3.334   2.895  15.461 -1.4753 -0.7311 -1.2161
 3194TIP3   OH230996   1.784   4.380  12.199 -0.1837 -0.5980 -0.4478
 3194TIP3    H130997   1.724   4.449  12.224 -0.2834 -0.6312 -0.6016
 3194TIP3    H230998   1.835   4.416  12.127  1.2088  0.0972  0.8110
 3195TIP3   OH230999   1.061   6.186  15.411  0.4503  0.5042  0.1988
 3195TIP3    H131000   1.001   6.145  15.349 -0.5345  1.4917  0.4666
 3195TIP3    H231001   1.119   6.115  15.439 -0.8331 -0.5755  0.2161
 3196TIP3   OH231002   2.558   4.180   0.134 -0.0004  0.2977 -0.7256
 3196TIP3    H131003   2.580   4.273   0.137 -0.4075  0.3993  2.2798
 3196TIP3    H231004   2.642   4.136   0.127  0.5016  0.8923  0.8894
 3197TIP3   OH231005   1.192   0.848   1.677 -0.0605 -0.1270 -0.5427
 3197TIP3    H131006   1.258   0.779   1.682 -0.2676 -0.4644 -1.9064
 3197TIP3    H231007   1.117   0.806   1.636 -1.2275  0.2102  1.1525
 3198TIP3   OH231008   0.006   4.828  11.191  0.2161 -0.0712 -0.0386
 3198TIP3    H131009  -0.048   4.823  11.113 -2.5955 -0.9260  1.8096
 3198TIP3    H231010  -0.034   4.896  11.245  2.2181  0.6708  0.6132
 3199TIP3   OH231011   4.591   0.367   2.186  0.6061  0.5452 -0.0343
 3199TIP3    H131012   4.598   0.462   2.195  1.3496  0.6669 -1.6263
 3199TIP3    H231013   4.504   0.346   2.219  1.0714  1.5308  2.0131
 3200TIP3   OH231014   6.719   0.458  10.189  0.2140  0.2771 -0.2686
 3200TIP3    H131015   6.809   0.485  10.170  0.4560 -0.9494 -0.9700
 3200TIP3    H231016   6.693   0.406  10.113 -1.2774  1.0380 -0.2974
 3201TIP3   OH231017   1.079   0.330  12.035  0.2709 -0.0203  0.1261
 3201TIP3    H131018   1.139   0.399  12.064  0.7840 -0.5653  0.3844
 3201TIP3    H231019   1.119   0.249  12.067 -1.3347 -0.2943  1.5974
 3202TIP3   OH231020   3.749   0.710   0.126  0.0386 -0.0755 -0.4650
 3202TIP3    H131021   3.726   0.790   0.173  0.5957  0.4622 -1.0961
 3202TIP3    H231022   3.835   0.727   0.089  0.7486 -1.4488  0.4711
 3203TIP3   OH231023   3.437   0.036   3.367 -0.2757 -0.2352  0.5029
 3203TIP3    H131024   3.517   0.078   3.336 -1.2774 -0.4384 -2.7355
 3203TIP3    H231025   3.376   0.108   3.384 -1.0207 -0.1305 -2.1654
 3204TIP3   OH231026   2.347   3.802   2.862 -0.5285 -0.3374 -0.3794
 3204TIP3    H131027   2.442   3.804   2.859 -0.5096 -0.9419 -0.3293
 3204TIP3    H231028   2.319   3.857   2.788 -0.1300 -2.0683 -1.8811
 3205TIP3   OH231029   0.680   3.297  17.377  0.2605  0.2666 -0.1532
 3205TIP3    H131030   0.619   3.233  17.413  0.3807  0.6464  0.7593
 3205TIP3    H231031   0.763   3.250  17.368  0.2118  0.1510  0.0142
 3206TIP3   OH231032   0.086   5.514  10.344  0.1007  0.5660  0.7395
 3206TIP3    H131033   0.050   5.467  10.269  0.2146 -1.4478  1.8966
 3206TIP3    H231034   0.068   5.606  10.325 -2.8016 -0.1026 -0.2195
 3207TIP3   OH231035   4.455   5.072   0.878  0.6885 -0.3052 -0.0191
 3207TIP3    H131036   4.531   5.095   0.824  1.5342 -1.5363  0.5723
 3207TIP3    H231037   4.445   4.977   0.866 -1.5847  0.0164 -1.0774
 3208TIP3   OH231038   4.948   0.416  17.173  0.3428  0.2230  0.6726
 3208TIP3    H131039   4.976   0.334  17.213  0.4631 -1.1435 -1.9932
 3208TIP3    H231040   5.017   0.437  17.109  0.0912  2.2001  0.9642
 3209TIP3   OH231041   2.515   0.062   2.114  0.1419 -0.0091  0.3538
 3209TIP3    H131042   2.527   0.065   2.209  1.5286  1.1366  0.1777
 3209TIP3    H231043   2.587   0.114   2.079  1.1670 -2.4840 -1.4725
 3210TIP3   OH231044   0.723   0.812   0.171  0.1927  0.2009 -0.1502
 3210TIP3    H131045   0.741   0.721   0.148 -1.2056  0.4458 -2.5631
 3210TIP3    H231046   0.673   0.807   0.253 -2.6184 -1.5118 -1.7919
 3211TIP3   OH231047   1.955   5.137  14.774  0.5648 -0.2135  0.1920
 3211TIP3    H131048   1.970   5.225  14.738  3.0708 -0.9161 -0.7284
 3211TIP3    H231049   2.002   5.138  14.857 -0.5552 -0.2929  0.8374
 3212TIP3   OH231050   2.928   4.253   3.209  0.3097 -0.2195  0.0630
 3212TIP3    H131051   2.980   4.185   3.253  1.5748  0.9503  0.4252
 3212TIP3    H231052   2.941   4.331   3.262 -1.3135  0.2822 -0.2214
 3213TIP3   OH231053   5.412   5.376  11.229 -0.8185 -0.2488 -0.0515
 3213TIP3    H131054   5.502   5.366  11.200 -0.6502 -0.1730  0.4351
 3213TIP3    H231055   5.373   5.436  11.165  0.3451  2.2737  1.4438
 3214TIP3   OH231056   5.405   0.074  15.558 -0.0206  0.1460 -0.4281
 3214TIP3    H131057   5.417   0.006  15.625  0.4082  0.1720 -0.4751
 3214TIP3    H231058   5.372   0.150  15.607 -0.7190 -0.1610 -0.4102
 3215TIP3   OH231059   0.143   1.133  12.720  0.2819  0.4249  0.0060
 3215TIP3    H131060   0.100   1.193  12.660  1.1185 -0.5419 -1.6203
 3215TIP3    H231061   0.228   1.173  12.737  0.1611  0.5475  0.3477
 3216TIP3   OH231062   5.603   3.324   4.431 -0.0251  0.1673  0.5665
 3216TIP3    H131063   5.568   3.411   4.412 -2.2473 -0.4222  1.5623
 3216TIP3    H231064   5.528   3.265   4.417  1.4075 -1.6120 -0.0800
 3217TIP3   OH231065   2.310   5.615  11.635  0.0605 -0.0676  0.4203
 3217TIP3    H131066   2.397   5.574  11.633  1.0964  2.0100  0.0256
 3217TIP3    H231067   2.308   5.671  11.558 -1.6227  0.0001  0.4824
 3218TIP3   OH231068   4.504   4.990   6.046  0.3717  0.2636  0.4519
 3218TIP3    H131069   4.551   4.973   6.128  2.3799  0.0811 -0.6592
 3218TIP3    H231070   4.412   4.988   6.070  0.7530 -2.6940  2.2167
 3219TIP3   OH231071   0.348   6.251   5.325  0.2343 -0.0036 -0.7034
 3219TIP3    H131072   0.322   6.194   5.397  1.5323  0.3371  0.0639
 3219TIP3    H231073   0.335   6.198   5.247 -1.8638 -0.1504 -0.3164
 3220TIP3   OH231074   4.582   0.758  13.550 -0.7028  0.2721  0.2263
 3220TIP3    H131075   4.644   0.743  13.478  1.0060 -2.6464  2.0758
 3220TIP3    H231076   4.503   0.711  13.524  0.9584 -3.5077  1.3542
 3221TIP3   OH231077   3.103   2.200   0.221  0.4010  0.1177 -0.3563
 3221TIP3    H131078   3.113   2.279   0.274  3.1309  0.6107 -1.4767
 3221TIP3    H231079   3.056   2.229   0.143  0.1828  0.3074 -0.1580
 3222TIP3   OH231080   4.299   3.850   5.177  0.2895 -0.1849  0.2280
 3222TIP3    H131081   4.346   3.850   5.094 -0.6497 -1.5769 -0.3445
 3222TIP3    H231082   4.273   3.759   5.191  0.5706 -0.0219  2.1546
 3223TIP3   OH231083   3.929   2.926  15.028 -0.2293  0.0789  0.6184
 3223TIP3    H131084   3.916   2.942  14.935  1.3759 -2.5195 -0.1453
 3223TIP3    H231085   3.845   2.946  15.068 -0.4941  2.9043 -1.0648
 3224TIP3   OH231086   4.334   1.659   3.868 -0.4001  0.0868 -0.0964
 3224TIP3    H131087   4.301   1.687   3.953 -1.2037 -1.1404  0.0200
 3224TIP3    H231088   4.258   1.621   3.824  0.4216 -1.0262 -0.5963
 3225TIP3   OH231089   4.887   1.622  12.414 -0.2743  0.2483  0.4972
 3225TIP3    H131090   4.943   1.566  12.361 -1.8510 -0.4584 -0.4936
 3225TIP3    H231091   4.899   1.590  12.503  2.8508  1.8282  0.7759
 3226TIP3   OH231092   5.652   2.273  11.794 -0.2410 -0.0370 -0.2238
 3226TIP3    H131093   5.677   2.198  11.740  0.1010 -0.0703 -0.0216
 3226TIP3    H231094   5.617   2.235  11.874  1.6750 -0.0100  0.6938
 3227TIP3   OH231095   3.221   3.625   1.325  0.1151  0.1958 -0.2686
 3227TIP3    H131096   3.205   3.550   1.382  0.5034  0.1858 -0.1693
 3227TIP3    H231097   3.156   3.690   1.350 -0.1151 -0.0476 -0.2423
 3228TIP3   OH231098   5.962   0.322   1.028  0.1337  0.2216  0.7626
 3228TIP3    H131099   5.963   0.300   1.121 -0.7843  1.0717  0.9988
 3228TIP3    H231100   6.051   0.349   1.009  0.4817 -0.5407  1.2403
 3229TIP3   OH231101   1.102   6.526   1.880  0.3993  0.1689 -0.4342
 3229TIP3    H131102   1.155   6.580   1.821  0.4394 -0.6203 -1.1227
 3229TIP3    H231103   1.059   6.462   1.823  0.8852 -0.9705  0.4519
 3230TIP3   OH231104   0.478   5.479  15.527  0.0989  0.6447  0.7738
 3230TIP3    H131105   0.537   5.523  15.465  0.4430  0.3234  0.8740
 3230TIP3    H231106   0.391   5.488  15.487  0.5378 -1.2482 -0.7366
 3231TIP3   OH231107   2.875   1.360   1.864  0.1339 -0.1755  0.5121
 3231TIP3    H131108   2.831   1.324   1.788  0.0103  1.6613 -0.3397
 3231TIP3    H231109   2.906   1.284   1.913 -0.5635 -1.3995 -0.9008
 3232TIP3   OH231110   3.910   5.039  14.560  0.2574 -0.4846 -0.1496
 3232TIP3    H131111   3.910   4.989  14.642  0.4346  0.1836  0.2658
 3232TIP3    H231112   3.921   4.973  14.492  1.2095 -0.9441  0.4276
 3233TIP3   OH231113   2.340   3.450  16.201 -0.1386 -0.0445 -0.0160
 3233TIP3    H131114   2.422   3.498  16.209 -1.5180  2.4809  0.0899
 3233TIP3    H231115   2.339   3.419  16.110  0.7302  0.2853 -0.1442
 3234TIP3   OH231116   3.803   1.429  14.355 -0.1871 -0.6716  0.0478
 3234TIP3    H131117   3.793   1.338  14.325  0.4816 -0.8961  0.4863
 3234TIP3    H231118   3.897   1.446  14.349 -0.2044 -0.2821  0.7414
 3235TIP3   OH231119   2.223   1.432  14.436 -0.0231 -0.2057 -0.2307
 3235TIP3    H131120   2.280   1.430  14.513 -0.7615 -1.2790  0.3270
 3235TIP3    H231121   2.139   1.401  14.469 -1.0185  1.5553 -0.9822
 3236TIP3   OH231122   3.523   3.152  14.950 -0.2759 -1.1398  0.4319
 3236TIP3    H131123   3.501   3.226  14.894  0.3391 -1.5015 -0.3134
 3236TIP3    H231124   3.454   3.150  15.016  0.1962  0.6471  1.0320
 3237TIP3   OH231125   5.778   2.660   4.253 -0.1724 -0.1959  0.0365
 3237TIP3    H131126   5.872   2.675   4.266 -0.1606  0.5568 -0.8282
 3237TIP3    H231127   5.749   2.736   4.202 -1.8096  1.0719  2.6357
 3238TIP3   OH231128   0.999   4.948   5.268 -0.1690 -0.8943 -0.0762
 3238TIP3    H131129   1.009   4.931   5.362 -2.8422  3.0483  1.1565
 3238TIP3    H231130   1.063   5.015   5.249 -1.5289  0.4037 -0.2701
 3239TIP3   OH231131   3.053   0.430   2.404  0.0780 -0.2208 -0.3035
 3239TIP3    H131132   3.097   0.465   2.481  0.8445 -0.0408 -0.8049
 3239TIP3    H231133   3.064   0.497   2.337  0.8032 -1.0116 -1.0179
 3240TIP3   OH231134   3.327   3.438  14.980  0.0022  0.2184 -0.6415
 3240TIP3    H131135   3.359   3.398  14.899  2.8589  1.2116 -0.1128
 3240TIP3    H231136   3.299   3.525  14.955 -1.0674 -0.1857 -0.8814
 3241TIP3   OH231137   6.656   5.865  13.088  0.1096  0.3250 -0.4247
 3241TIP3    H131138   6.577   5.906  13.122 -0.5263 -0.6186 -0.6899
 3241TIP3    H231139   6.728   5.913  13.127 -0.5958  1.4357 -0.4523
 3242TIP3   OH231140   5.242   3.660  12.977 -0.1869  0.2558 -0.3692
 3242TIP3    H131141   5.212   3.717  12.907  1.7819 -0.2183 -1.6774
 3242TIP3    H231142   5.215   3.572  12.950 -0.2232  0.1750 -0.0741
 3243TIP3   OH231143   5.284   2.182   0.420 -0.0178 -0.5822 -0.0982
 3243TIP3    H131144   5.299   2.146   0.333  1.7024  1.4132 -0.7078
 3243TIP3    H231145   5.241   2.266   0.403  1.8067  0.5877  0.8309
 3244TIP3   OH231146   0.116   5.164  12.281  0.2818 -0.0351 -0.0343
 3244TIP3    H131147   0.170   5.134  12.209  1.0829  1.1313  0.0513
 3244TIP3    H231148   0.032   5.186  12.241  0.4102 -0.3025 -0.4462
 3245TIP3   OH231149   2.234   2.586  15.793  1.0365  0.1793  0.0213
 3245TIP3    H131150   2.307   2.646  15.810  0.3110  0.7406  1.3033
 3245TIP3    H231151   2.272   2.519  15.736  1.9562  1.6557 -1.1978
 3246TIP3   OH231152   5.175   2.587   6.302 -0.1611  0.2577 -0.3417
 3246TIP3    H131153   5.105   2.640   6.341  0.1262 -0.4955  1.2779
 3246TIP3    H231154   5.129   2.520   6.251 -0.6197  0.0193  0.3723
 3247TIP3   OH231155   2.715   3.970   1.313  0.3688 -0.0405  0.0619
 3247TIP3    H131156   2.811   3.969   1.307  0.6677  0.3997  3.0327
 3247TIP3    H231157   2.693   4.063   1.320 -0.1134 -0.2028  0.7839
 3248TIP3   OH231158   6.083   0.306   6.588  0.1385 -0.3501  0.7859
 3248TIP3    H131159   5.995   0.339   6.568  0.2884 -0.5992 -0.3445
 3248TIP3    H231160   6.117   0.366   6.654 -0.6164  0.1549  0.7215
 3249TIP3   OH231161   3.228   3.415  15.719  0.1026  0.2973 -0.3457
 3249TIP3    H131162   3.219   3.415  15.623  0.2563  0.3476 -0.3604
 3249TIP3    H231163   3.292   3.347  15.737 -0.0169  0.2054 -0.2689
 3250TIP3   OH231164   2.588   1.091  16.724  0.0174  0.3605  0.1909
 3250TIP3    H131165   2.626   1.179  16.727  1.4778 -0.1683 -1.2534
 3250TIP3    H231166   2.572   1.075  16.631 -0.1760 -0.9160  0.4341
 3251TIP3   OH231167   5.336   4.446  13.737 -0.1408 -0.0743  0.5243
 3251TIP3    H131168   5.292   4.458  13.821 -0.0054  0.2589  0.5481
 3251TIP3    H231169   5.273   4.477  13.672 -0.7660 -1.5243  0.3923
 3252TIP3   OH231170   2.520   3.235  13.834 -0.1719  0.3939  0.2470
 3252TIP3    H131171   2.530   3.243  13.928  0.3374  2.3174  0.0680
 3252TIP3    H231172   2.567   3.310  13.798 -0.5733 -0.1478 -1.5324
 3253TIP3   OH231173   0.652   6.360   4.326 -0.3010  0.3251 -0.0564
 3253TIP3    H131174   0.724   6.318   4.372 -0.7017 -1.5987 -1.1059
 3253TIP3    H231175   0.596   6.288   4.297 -2.9529  1.7414  1.1327
 3254TIP3   OH231176   2.733   6.600   0.624 -0.4341 -0.4140 -0.7662
 3254TIP3    H131177   2.784   6.535   0.673 -0.4510 -0.7702 -1.2093
 3254TIP3    H231178   2.779   6.607   0.540 -0.6959 -0.1878 -0.8907
 3255TIP3   OH231179   4.585   0.983   3.969 -0.6453  0.2380  0.0599
 3255TIP3    H131180   4.526   0.923   3.924  0.7256  0.9095 -2.8477
 3255TIP3    H231181   4.609   0.937   4.050 -1.4976 -2.0549 -0.9133
 3256TIP3   OH231182   4.067   3.236  16.839  0.0238  0.4333  0.0331
 3256TIP3    H131183   4.031   3.230  16.750  1.2646  0.8428 -0.5208
 3256TIP3    H231184   4.160   3.255  16.826  0.0118  1.6541  1.4280
 3257TIP3   OH231185   4.229   3.651   5.431  0.2644  0.0769  0.2359
 3257TIP3    H131186   4.261   3.562   5.418  0.6143  0.2398 -0.0627
 3257TIP3    H231187   4.155   3.659   5.371  0.8226  0.2827 -0.4508
 3258TIP3   OH231188   2.737   4.505   3.133 -0.2275 -0.4982 -1.3014
 3258TIP3    H131189   2.704   4.558   3.206  0.4085 -0.1094 -1.2881
 3258TIP3    H231190   2.675   4.520   3.062 -0.5649 -0.4715 -1.0046
 3259TIP3   OH231191   4.292   1.505   1.067  0.3520  0.9623  0.4657
 3259TIP3    H131192   4.284   1.410   1.074 -1.3478  1.0423  0.0359
 3259TIP3    H231193   4.259   1.525   0.979 -2.4381  2.2187  1.6817
 3260TIP3   OH231194   0.245   3.314  11.696  0.0010  0.0537  0.1613
 3260TIP3    H131195   0.271   3.392  11.647  0.3549 -1.3736 -2.1095
 3260TIP3    H231196   0.303   3.313  11.772  0.4731  1.6157 -0.1366
 3261TIP3   OH231197   2.469   4.365   5.591 -0.0913 -0.4059  0.8692
 3261TIP3    H131198   2.489   4.364   5.497  0.4278 -0.4821  0.9783
 3261TIP3    H231199   2.554   4.369   5.633 -0.3087 -0.8719  1.3537
 3262TIP3   OH231200   6.173   6.387  15.357  0.2981 -0.2126  0.3799
 3262TIP3    H131201   6.163   6.334  15.437  0.4276  0.0011  0.5370
 3262TIP3    H231202   6.216   6.328  15.295 -0.1416 -0.5041  0.3444
 3263TIP3   OH231203   2.804   3.401  13.458 -0.6582 -0.1167 -0.2795
 3263TIP3    H131204   2.840   3.472  13.404 -0.0195 -0.6427 -0.5671
 3263TIP3    H231205   2.872   3.333  13.455 -1.3107 -0.7820 -0.0981
 3264TIP3   OH231206   4.757   0.611  13.954 -0.7854 -0.1462 -0.0306
 3264TIP3    H131207   4.729   0.574  13.871  1.1552  0.4498 -1.0010
 3264TIP3    H231208   4.810   0.687  13.930 -0.4536  0.2367  1.7648
 3265TIP3   OH231209   6.229   4.611  15.052  0.1824 -0.1536  0.3338
 3265TIP3    H131210   6.139   4.631  15.079  0.2566  2.1715 -0.8441
 3265TIP3    H231211   6.222   4.531  15.000 -2.0155  2.1159 -3.2829
 3266TIP3   OH231212   4.201   1.239   1.085 -0.0013 -0.2384 -0.1315
 3266TIP3    H131213   4.188   1.177   1.157 -1.2129 -0.0725 -0.1936
 3266TIP3    H231214   4.126   1.225   1.027  0.2613  0.5604 -0.6833
 3267TIP3   OH231215   0.646   2.290   6.084 -0.5681  0.1631 -0.0725
 3267TIP3    H131216   0.721   2.239   6.115 -0.5893 -0.3581 -0.8483
 3267TIP3    H231217   0.570   2.251   6.127 -0.3839  0.8006  0.8461
 3268TIP3   OH231218   1.191   0.924   2.084  0.1186  0.3133 -0.4710
 3268TIP3    H131219   1.199   0.901   2.177  0.0490  1.3980 -0.1739
 3268TIP3    H231220   1.215   0.845   2.037 -1.2046 -0.7014  0.4818
 3269TIP3   OH231221   3.505   3.869   0.928  0.0738 -0.0448 -0.1746
 3269TIP3    H131222   3.506   3.833   0.840  0.1639 -1.4229  0.3693
 3269TIP3    H231223   3.488   3.963   0.916  1.9408  0.1416 -1.7608
 3270TIP3   OH231224   5.374   1.020   2.668  0.5212  0.2658 -0.5454
 3270TIP3    H131225   5.282   1.045   2.675  0.1422 -0.6306 -1.9314
 3270TIP3    H231226   5.397   0.986   2.754 -0.2560  1.0862 -0.0040
 3271TIP3   OH231227   5.867   1.883  11.585  0.4268  0.6351  0.1225
 3271TIP3    H131228   5.843   1.859  11.495  1.0209 -0.0793  0.1497
 3271TIP3    H231229   5.838   1.809  11.638 -0.9717  1.5554  0.6880
 3272TIP3   OH231230   3.592   2.408   5.623  0.3933  0.4634 -0.3644
 3272TIP3    H131231   3.511   2.429   5.669 -0.8044 -0.3772 -1.9774
 3272TIP3    H231232   3.585   2.455   5.540  0.4482 -1.3841 -1.4808
 3273TIP3   OH231233   6.399   5.093   5.560 -0.1912 -0.0176  0.2345
 3273TIP3    H131234   6.469   5.039   5.597 -1.3378 -0.8128  1.3272
 3273TIP3    H231235   6.400   5.073   5.466  0.2330 -0.9817  0.4354
 3274TIP3   OH231236   6.301   3.651   1.087  0.0294 -0.2160  0.0254
 3274TIP3    H131237   6.222   3.693   1.119  0.3409  1.3274 -1.1187
 3274TIP3    H231238   6.295   3.658   0.991 -0.0178 -3.0362 -0.2834
 3275TIP3   OH231239   1.093   3.233  15.293 -0.3528  0.1067  0.0911
 3275TIP3    H131240   1.158   3.186  15.345 -0.5270 -1.1027 -0.7377
 3275TIP3    H231241   1.012   3.183  15.306 -0.7518  0.6715 -0.1524
 3276TIP3   OH231242   5.850   3.150   0.903 -0.6426 -0.5255 -0.2630
 3276TIP3    H131243   5.849   3.156   0.999  0.6706  0.1879 -0.2799
 3276TIP3    H231244   5.864   3.057   0.886  0.8684 -0.4358  0.2870
 3277TIP3   OH231245   0.692   3.206  16.636  0.0019 -0.3012  0.0713
 3277TIP3    H131246   0.739   3.204  16.719 -0.8249 -3.2943  0.5821
 3277TIP3    H231247   0.611   3.159  16.653 -1.0500  0.6443 -1.9786
 3278TIP3   OH231248   4.696   1.514  16.230 -0.2594  0.2803  0.2461
 3278TIP3    H131249   4.755   1.439  16.227  0.0094  0.5249 -1.1785
 3278TIP3    H231250   4.610   1.478  16.208 -0.3093  0.2296  0.5230
 3279TIP3   OH231251   4.946   4.313   3.571  0.5435 -0.5885  0.5858
 3279TIP3    H131252   4.982   4.233   3.531  1.5856  0.4138 -0.6028
 3279TIP3    H231253   4.973   4.308   3.662  1.6022 -1.0792  0.2733
 3280TIP3   OH231254   1.167   3.619   4.578 -0.6088 -0.0633  0.0933
 3280TIP3    H131255   1.171   3.646   4.670  0.4879 -2.1840  0.7329
 3280TIP3    H231256   1.074   3.629   4.554 -0.7997  1.0687  1.2312
 3281TIP3   OH231257   1.484   6.555   3.456 -0.2844  0.2121  0.1735
 3281TIP3    H131258   1.541   6.616   3.502 -0.6875  0.8695 -0.1800
 3281TIP3    H231259   1.526   6.543   3.371  0.2718 -0.7200  0.5707
 3282TIP3   OH231260   3.361   4.225  12.679  0.3524  0.3019  0.1545
 3282TIP3    H131261   3.388   4.152  12.734  0.8923 -1.1766 -1.9420
 3282TIP3    H231262   3.439   4.280  12.672  0.5717 -0.0089  0.1285
 3283TIP3   OH231263   6.579   0.065   0.054 -0.8977 -0.1572  0.0608
 3283TIP3    H131264   6.667   0.036   0.080  0.0162  0.6093 -1.9993
 3283TIP3    H231265   6.531  -0.017   0.037 -0.7366 -0.5897  1.5215
 3284TIP3   OH231266   2.618   2.023  12.581  0.0595 -0.6882 -0.0872
 3284TIP3    H131267   2.575   2.101  12.547 -0.6390 -1.5821 -1.3368
 3284TIP3    H231268   2.552   1.954  12.574  0.5234 -1.3225  1.3666
 3285TIP3   OH231269   1.943   4.936   1.725  0.0010 -0.0931 -0.5024
 3285TIP3    H131270   1.918   4.858   1.775 -0.0330  0.0182 -0.3439
 3285TIP3    H231271   1.899   4.926   1.641 -1.4193  0.5948  0.1307
 3286TIP3   OH231272   2.481   3.340  15.501 -0.2949  0.1467  0.2347
 3286TIP3    H131273   2.433   3.423  15.511 -1.7548 -0.4341 -1.4480
 3286TIP3    H231274   2.428   3.276  15.549 -1.0931 -0.4238 -1.3213
 3287TIP3   OH231275   4.211   1.910   2.229 -0.0165  0.3540  0.5944
 3287TIP3    H131276   4.162   1.941   2.154 -1.5661  1.6050  2.0523
 3287TIP3    H231277   4.283   1.972   2.239  0.2155  0.1633  0.1644
 3288TIP3   OH231278   2.851   5.049  13.587 -0.0463  0.6203 -0.1658
 3288TIP3    H131279   2.808   4.969  13.558 -1.8676  1.3947  0.2530
 3288TIP3    H231280   2.901   5.023  13.664 -2.4326  0.2721  1.3542
 3289TIP3   OH231281   1.511   0.444  12.709 -0.7078 -0.3357 -0.3315
 3289TIP3    H131282   1.469   0.516  12.756  1.0177 -0.6397  1.8661
 3289TIP3    H231283   1.598   0.477  12.687  0.7860 -2.1702  2.2713
 3290TIP3   OH231284   3.595   5.292   0.664 -0.2430 -0.1945  0.3752
 3290TIP3    H131285   3.539   5.369   0.661 -0.6919 -0.5404 -0.8084
 3290TIP3    H231286   3.585   5.259   0.753 -2.8905 -0.9068 -0.0914
 3291TIP3   OH231287   1.346   3.292  17.281 -0.2392 -0.0206  0.0493
 3291TIP3    H131288   1.257   3.325  17.290 -1.1260 -1.7653 -1.6217
 3291TIP3    H231289   1.389   3.353  17.221  0.6930  2.4285  2.9307
 3292TIP3   OH231290   4.083   0.143  16.692  0.1424 -0.2771  0.1887
 3292TIP3    H131291   4.162   0.196  16.686  0.5414 -0.8332  0.4267
 3292TIP3    H231292   4.048   0.141  16.603  1.1812 -1.2015 -0.2251
 3293TIP3   OH231293   0.103   1.930   0.112 -0.2146 -0.1274 -0.7340
 3293TIP3    H131294   0.178   1.984   0.087  1.7369 -2.6213 -0.6216
 3293TIP3    H231295   0.131   1.840   0.096 -2.6278 -1.2673  0.7910
 3294TIP3   OH231296   4.563   3.487  13.511 -0.0905 -0.2080 -0.1526
 3294TIP3    H131297   4.518   3.571  13.516  0.4663  0.0561  0.3801
 3294TIP3    H231298   4.529   3.437  13.585  1.4890  0.4843  1.0786
 3295TIP3   OH231299   6.266   0.795  16.796  0.1311 -0.4936 -0.1218
 3295TIP3    H131300   6.255   0.885  16.765  2.7780  0.0072  0.1571
 3295TIP3    H231301   6.190   0.779  16.851 -1.9744  0.4607 -2.5402
 3296TIP3   OH231302   3.911   4.777  16.231  0.0172 -0.1392 -0.0984
 3296TIP3    H131303   3.960   4.789  16.312 -2.3851  1.4751  1.2224
 3296TIP3    H231304   3.921   4.684  16.210  2.0310 -0.2552  1.0728
 3297TIP3   OH231305   4.648   0.802   1.787 -0.3158  0.1229 -0.2542
 3297TIP3    H131306   4.590   0.744   1.836 -0.3971 -0.3814 -0.9350
 3297TIP3    H231307   4.718   0.822   1.848  0.4395 -1.7898 -0.4217
 3298TIP3   OH231308   2.598   5.354  13.079 -0.1732  0.1698  0.0430
 3298TIP3    H131309   2.541   5.425  13.108  0.3951 -0.2508  2.4236
 3298TIP3    H231310   2.687   5.387  13.096  0.2480  0.0438 -1.7387
 3299TIP3   OH231311   5.643   3.440  15.215  0.1217  0.2693  0.4297
 3299TIP3    H131312   5.626   3.509  15.279 -0.3906 -1.1480  1.8957
 3299TIP3    H231313   5.557   3.400  15.200  0.1056  0.9729 -1.6903
 3300TIP3   OH231314   5.228   1.944   0.856 -0.2976 -0.6074  0.6797
 3300TIP3    H131315   5.156   1.998   0.889  1.3294  0.1581  3.2690
 3300TIP3    H231316   5.223   1.952   0.761 -0.2070  4.1233  0.8411
 3301TIP3   OH231317   4.096   3.218   4.317 -0.1344  0.6102  0.0494
 3301TIP3    H131318   4.086   3.272   4.395  0.1625  1.4228 -0.4629
 3301TIP3    H231319   4.177   3.169   4.332 -0.2417  0.5325  0.3839
 3302TIP3   OH231320   3.390   1.525  10.933  0.1057  0.2195  0.3588
 3302TIP3    H131321   3.382   1.566  11.020  0.5866  2.4659 -0.5879
 3302TIP3    H231322   3.309   1.549  10.888  0.6253  0.5884 -0.3978
 3303TIP3   OH231323   1.985   4.953  15.384  0.1830 -0.0253 -0.3735
 3303TIP3    H131324   2.027   4.916  15.462 -1.5005 -1.8015 -0.2153
 3303TIP3    H231325   1.912   5.004  15.418  0.7744  1.1127 -0.7406
 3304TIP3   OH231326   0.038   6.562  14.967 -0.3395 -0.2843  0.2482
 3304TIP3    H131327   0.090   6.641  14.981 -1.0478  0.2595 -0.1490
 3304TIP3    H231328   0.026   6.557  14.872 -1.8830  0.1863  0.3894
 3305TIP3   OH231329   4.057   6.751   3.900  0.8156  0.0706  0.0446
 3305TIP3    H131330   3.992   6.684   3.879 -0.2491  0.7854  0.9478
 3305TIP3    H231331   4.111   6.712   3.969 -0.6302  0.5796  1.5186
 3306TIP3   OH231332   6.535   0.405  15.574  0.0988 -0.1468  0.2760
 3306TIP3    H131333   6.457   0.384  15.522  0.2984 -0.6429  0.1672
 3306TIP3    H231334   6.504   0.464  15.642 -0.2973 -0.0309 -0.0036
 3307TIP3   OH231335   0.362   1.082  12.376 -0.0375 -0.0792  0.3529
 3307TIP3    H131336   0.302   1.134  12.324  1.9056  1.3249 -0.6135
 3307TIP3    H231337   0.354   0.993  12.341 -3.0066 -0.4414  1.6711
 3308TIP3   OH231338   1.133   0.013  15.526 -0.0125  0.8571 -0.6219
 3308TIP3    H131339   1.070  -0.053  15.555  2.1992 -1.1232  0.0068
 3308TIP3    H231340   1.174   0.044  15.607 -0.8020  2.8639 -0.9348
 3309TIP3   OH231341   2.739   4.185  12.754  0.4432  0.0853  0.0770
 3309TIP3    H131342   2.805   4.255  12.760  1.3444 -0.8440  1.4095
 3309TIP3    H231343   2.764   4.136  12.676  1.4325 -0.3421  0.6459
 3310TIP3   OH231344   3.470   5.655   5.300  0.4924  0.1365 -0.4765
 3310TIP3    H131345   3.441   5.697   5.380  0.9007 -1.8300  0.7712
 3310TIP3    H231346   3.389   5.631   5.255  0.2329 -0.0855  0.0985
 3311TIP3   OH231347   0.354   1.319   3.047 -0.4911 -0.1927 -0.2600
 3311TIP3    H131348   0.338   1.364   2.964 -0.0828 -1.1324 -0.8694
 3311TIP3    H231349   0.320   1.230   3.032  3.2539 -1.6883 -0.9153
 3312TIP3   OH231350   0.683   3.656   3.660  0.1740 -0.0373 -0.1880
 3312TIP3    H131351   0.769   3.685   3.631 -0.1507  0.8822 -0.2723
 3312TIP3    H231352   0.621   3.713   3.615 -0.5170 -1.0036 -0.5069
 3313TIP3   OH231353   2.321   0.280  17.358 -0.0821  0.4224 -0.3631
 3313TIP3    H131354   2.226   0.274  17.356 -0.0003 -1.5148 -2.1684
 3313TIP3    H231355   2.346   0.236  17.440 -0.7068 -0.4981 -0.6510
 3314TIP3   OH231356   0.187   1.827   1.497  0.3004  0.2135 -0.3332
 3314TIP3    H131357   0.230   1.911   1.516 -0.8997  1.2067 -1.8200
 3314TIP3    H231358   0.109   1.851   1.448 -0.7938 -1.7149  0.3847
 3315TIP3   OH231359   3.197   6.076   1.460  0.2267  0.4029  0.1788
 3315TIP3    H131360   3.157   6.130   1.393  2.6042  0.0159 -1.7000
 3315TIP3    H231361   3.159   5.989   1.447 -1.0076  0.8231  0.8851
 3316TIP3   OH231362   1.710   0.425   2.585  0.3696 -0.1549 -0.0812
 3316TIP3    H131363   1.785   0.440   2.642 -0.4382  0.6309  0.8127
 3316TIP3    H231364   1.634   0.434   2.642 -0.4748  0.8011 -1.2931
 3317TIP3   OH231365   2.293   5.099   1.234  0.2012 -0.5211  0.2003
 3317TIP3    H131366   2.281   5.154   1.312 -0.9496 -1.2817  0.5834
 3317TIP3    H231367   2.205   5.068   1.213  0.4075  0.0554 -1.7124
 3318TIP3   OH231368   6.523   6.555  10.145 -0.3110 -0.0478  0.0465
 3318TIP3    H131369   6.516   6.549  10.240 -0.2523  0.1221  0.0609
 3318TIP3    H231370   6.526   6.464  10.116  0.4996 -0.1054  0.2699
 3319TIP3   OH231371   3.045   6.104   3.286  0.1727 -0.3225 -0.1687
 3319TIP3    H131372   3.021   6.172   3.222 -1.1701 -0.0442  0.5859
 3319TIP3    H231373   3.005   6.024   3.250 -0.4208 -0.2023  0.2066
 3320TIP3   OH231374   2.494   3.827   1.262 -0.5761  0.3168 -0.3969
 3320TIP3    H131375   2.582   3.854   1.286  0.1701 -1.2571 -1.1942
 3320TIP3    H231376   2.475   3.878   1.182  0.3682 -0.6305 -1.2616
 3321TIP3   OH231377   3.727   2.166   0.428  0.2683  0.1226 -0.0462
 3321TIP3    H131378   3.714   2.077   0.461  0.7311  0.0655 -0.0097
 3321TIP3    H231379   3.815   2.164   0.390 -0.8437 -0.3026 -2.8639
 3322TIP3   OH231380   1.608   5.077  13.027  0.2985 -0.6066  0.1178
 3322TIP3    H131381   1.579   5.166  13.006 -0.4281 -0.7571  0.4607
 3322TIP3    H231382   1.537   5.021  12.996  0.0311 -0.9525  1.3300
 3323TIP3   OH231383   5.928   1.930   4.876  0.0701 -0.4114 -0.6072
 3323TIP3    H131384   5.963   1.980   4.950  2.7380 -1.0816 -1.3095
 3323TIP3    H231385   5.872   1.864   4.916 -0.1715  0.5132  0.6359
 3324TIP3   OH231386   5.267   3.428   0.778 -0.1134 -0.1224  0.4609
 3324TIP3    H131387   5.253   3.404   0.870  0.1471 -0.3030  0.4562
 3324TIP3    H231388   5.257   3.346   0.730  3.7392 -0.9538  0.7434
 3325TIP3   OH231389   1.711   1.786   0.004  0.1438 -0.0379 -0.0792
 3325TIP3    H131390   1.640   1.780  -0.059  1.1267 -1.6005 -1.1139
 3325TIP3    H231391   1.695   1.868   0.050 -1.7434  0.1484 -0.9583
 3326TIP3   OH231392   2.371   3.107  16.707  0.4244  0.3729  0.3774
 3326TIP3    H131393   2.328   3.186  16.740 -0.2839  0.6939 -1.2453
 3326TIP3    H231394   2.410   3.133  16.624 -1.6231 -1.4328 -1.2827
 3327TIP3   OH231395   4.277   4.779  12.676  0.1569 -0.6239 -0.1498
 3327TIP3    H131396   4.330   4.829  12.738  0.9499 -1.1100 -0.4227
 3327TIP3    H231397   4.189   4.780  12.713  1.1079 -3.3645  2.5559
 3328TIP3   OH231398   5.521   5.534  15.153 -0.5314  0.0614 -0.0871
 3328TIP3    H131399   5.479   5.570  15.232  0.0807 -0.2013  0.3637
 3328TIP3    H231400   5.558   5.611  15.109 -0.9493  0.2203 -0.1764
 3329TIP3   OH231401   3.800   4.283  14.593 -0.1152  0.7667  0.0725
 3329TIP3    H131402   3.786   4.249  14.504 -0.3834  0.6102  0.1732
 3329TIP3    H231403   3.783   4.377  14.586  2.7430  1.3101 -0.6866
 3330TIP3   OH231404   6.636   4.016   4.386  0.5302  0.1090  0.2426
 3330TIP3    H131405   6.697   4.046   4.454  1.9824 -0.7128 -0.6479
 3330TIP3    H231406   6.615   4.095   4.336  0.6357  0.4487  0.7261
 3331TIP3   OH231407   4.323   0.677  13.433 -0.9010 -0.2078  0.5354
 3331TIP3    H131408   4.269   0.653  13.508 -0.6161 -2.1016  0.1894
 3331TIP3    H231409   4.322   0.599  13.377  0.9927  0.2086 -0.1619
 3332TIP3   OH231410   3.596   5.633   4.323  0.3480 -0.2024  0.3160
 3332TIP3    H131411   3.608   5.621   4.417 -4.1924 -0.8761  1.0559
 3332TIP3    H231412   3.592   5.728   4.311 -0.4884 -0.1279  1.0960
 3333TIP3   OH231413   6.735   1.380   3.466  0.4218  0.3524  0.0835
 3333TIP3    H131414   6.822   1.365   3.431  0.5806  1.9824 -0.2706
 3333TIP3    H231415   6.747   1.380   3.561  0.5310 -0.8690  0.0906
 3334TIP3   OH231416   2.706   2.330  10.810  0.1897 -0.4285  0.3542
 3334TIP3    H131417   2.794   2.359  10.835  0.4939 -0.2325 -0.8768
 3334TIP3    H231418   2.711   2.319  10.715 -1.0166 -0.7800  0.3206
 3335TIP3   OH231419   5.715   4.058  14.466 -0.2808  0.3322 -0.9930
 3335TIP3    H131420   5.633   4.014  14.447 -0.9007  1.7458 -1.7811
 3335TIP3    H231421   5.691   4.128  14.528  0.5294  0.0537 -0.3489
 3336TIP3   OH231422   3.740   4.914  12.445  0.2820  0.1544 -0.3687
 3336TIP3    H131423   3.679   4.848  12.411 -1.4817  2.1829 -1.4613
 3336TIP3    H231424   3.726   4.913  12.540  2.8356 -3.3065  0.1383
 3337TIP3   OH231425   2.010   1.618  14.680  0.1893  0.5694  0.4804
 3337TIP3    H131426   1.982   1.532  14.650 -2.1422  0.9355  1.4242
 3337TIP3    H231427   2.010   1.611  14.775 -0.4914  1.7461  0.5777
 3338TIP3   OH231428   0.976   4.750  15.875  0.2382 -0.5787 -0.5396
 3338TIP3    H131429   0.953   4.681  15.937 -1.1508 -0.6015 -1.0528
 3338TIP3    H231430   1.005   4.823  15.930  0.0943 -0.9780  0.0767
 3339TIP3   OH231431   0.721   0.667  13.192 -0.0537 -0.2109  0.3156
 3339TIP3    H131432   0.782   0.594  13.200 -1.0648 -1.2859 -1.2636
 3339TIP3    H231433   0.704   0.674  13.098 -1.6883  0.5981  0.6391
 3340TIP3   OH231434   6.476   0.126   2.405  0.1057  0.3006  0.3608
 3340TIP3    H131435   6.533   0.098   2.476  0.1975  0.9098  0.5302
 3340TIP3    H231436   6.524   0.196   2.361 -0.4440  0.7209  0.4128
 3341TIP3   OH231437   1.205   1.127   4.884  0.2442 -0.1698  0.2786
 3341TIP3    H131438   1.288   1.136   4.839 -0.4087  0.2775 -0.8842
 3341TIP3    H231439   1.167   1.046   4.849 -1.5016  1.5393 -2.1969
 3342TIP3   OH231440   0.856   4.150  15.673 -0.5032  0.0840  0.2149
 3342TIP3    H131441   0.770   4.120  15.701  0.1548 -2.0393  0.1679
 3342TIP3    H231442   0.840   4.233  15.629 -2.4580 -0.0326  0.6473
 3343TIP3   OH231443   6.220   3.076   1.146 -0.8292 -0.5825 -0.1183
 3343TIP3    H131444   6.258   3.030   1.221 -2.9544 -0.4726  1.1045
 3343TIP3    H231445   6.229   3.015   1.073 -1.1355 -1.8330  0.8545
 3344TIP3   OH231446   4.326   1.086   4.619 -0.0908 -0.0887  0.2367
 3344TIP3    H131447   4.307   1.137   4.697  0.8134 -0.6377  0.8264
 3344TIP3    H231448   4.243   1.042   4.598 -0.3280  0.0465  0.8816
 3345TIP3   OH231449   3.783   2.240   0.864  0.0850  0.1076 -0.6340
 3345TIP3    H131450   3.818   2.159   0.901 -0.2427  0.1867 -0.1258
 3345TIP3    H231451   3.688   2.235   0.880  0.2460  1.4589  1.2434
 3346TIP3   OH231452   3.803   5.328   2.461 -0.4937  0.6923  0.2111
 3346TIP3    H131453   3.807   5.258   2.396 -0.2760  1.0011 -0.1155
 3346TIP3    H231454   3.887   5.373   2.452 -1.2334  1.9509 -0.6660
 3347TIP3   OH231455   4.217   4.573   6.717 -0.0825 -0.3394 -0.5604
 3347TIP3    H131456   4.270   4.609   6.646 -0.9443  0.4897 -0.7980
 3347TIP3    H231457   4.162   4.646   6.746  0.2426 -0.6533  0.9660
 3348TIP3   OH231458   4.265   5.404   2.793  0.0476  0.0811 -0.2377
 3348TIP3    H131459   4.335   5.355   2.837  1.6734  0.2344 -2.4939
 3348TIP3    H231460   4.275   5.494   2.825  1.2317  0.2017 -0.9068
 3349TIP3   OH231461   0.790   4.833  11.308 -0.5002 -0.1187  0.9596
 3349TIP3    H131462   0.758   4.745  11.326 -0.9971 -0.1218  0.0871
 3349TIP3    H231463   0.729   4.869  11.244  0.6864  0.2156 -0.0191
 3350TIP3   OH231464   4.117   6.248  12.276  0.4336 -0.5830 -0.0607
 3350TIP3    H131465   4.208   6.221  12.290  0.7171 -0.3670 -1.2965
 3350TIP3    H231466   4.087   6.278  12.361  1.3798 -1.0884  0.4657
 3351TIP3   OH231467   0.947   5.543  14.923 -0.2349  0.0851 -0.8849
 3351TIP3    H131468   0.887   5.518  14.853 -1.0195 -1.6157  0.3467
 3351TIP3    H231469   1.018   5.478  14.918 -0.8357 -0.7140  0.5427
 3352TIP3   OH231470   4.868   5.719   5.097 -1.0732 -0.1408  0.4013
 3352TIP3    H131471   4.899   5.655   5.033 -0.8668 -0.7822  1.1286
 3352TIP3    H231472   4.887   5.804   5.056 -1.5580 -0.5283 -0.6681
 3353TIP3   OH231473   1.414   4.527  14.188 -0.2590  0.1821  0.0827
 3353TIP3    H131474   1.500   4.539  14.147 -0.1749 -0.4571  0.0721
 3353TIP3    H231475   1.373   4.457  14.139 -0.4688 -0.0577  0.5973
 3354TIP3   OH231476   3.357   4.201  13.949 -0.0711 -0.4856 -0.0783
 3354TIP3    H131477   3.301   4.124  13.956  1.9701 -2.0250  0.5653
 3354TIP3    H231478   3.439   4.168  13.912  0.0887  1.8578 -2.0687
 3355TIP3   OH231479   3.133   5.510  11.419 -0.0211 -0.6828  0.6370
 3355TIP3    H131480   3.156   5.425  11.455  1.7566 -0.5363 -0.0592
 3355TIP3    H231481   3.049   5.496  11.375 -0.1284 -1.8750  1.1885
 3356TIP3   OH231482   5.632   0.665   6.085 -0.3166 -0.6244  0.2345
 3356TIP3    H131483   5.688   0.738   6.114 -1.6002  0.4920 -0.0306
 3356TIP3    H231484   5.543   0.696   6.097 -0.9299 -2.5994  1.2022
 3357TIP3   OH231485   3.449   5.914   0.468  0.5577  0.4729 -0.4494
 3357TIP3    H131486   3.528   5.959   0.498  0.3746  0.3282  0.2651
 3357TIP3    H231487   3.480   5.856   0.398  1.3950 -0.8474  0.9622
 3358TIP3   OH231488   0.397   0.625  12.028  0.2009  0.2977 -0.2477
 3358TIP3    H131489   0.340   0.553  12.054  1.2900 -0.5395 -0.0752
 3358TIP3    H231490   0.360   0.657  11.945 -0.3872 -0.3615 -0.2492
 3359TIP3   OH231491   6.052   2.928  11.120 -0.1644  0.8669  0.0273
 3359TIP3    H131492   6.103   2.863  11.072  0.3862 -0.1238  1.8905
 3359TIP3    H231493   5.982   2.953  11.059  0.8397  0.1176 -1.5002
 3360TIP3   OH231494   6.576   0.004  16.079  0.8738  0.0711  0.2033
 3360TIP3    H131495   6.488   0.042  16.085  0.3916 -0.8924 -0.4757
 3360TIP3    H231496   6.634   0.080  16.077 -0.1344  0.9479 -2.7238
 3361TIP3   OH231497   4.679   3.260   2.331 -0.3644  0.0596  0.4225
 3361TIP3    H131498   4.714   3.238   2.244 -0.7921 -0.3615  0.3530
 3361TIP3    H231499   4.642   3.178   2.363 -2.5609  0.8019 -0.0928
 3362TIP3   OH231500   4.853   0.933   2.853  0.4438  0.1412 -0.1305
 3362TIP3    H131501   4.821   0.976   2.933  1.6821  0.2262  0.3457
 3362TIP3    H231502   4.945   0.915   2.871  0.2159 -1.8230 -0.7088
 3363TIP3   OH231503   2.362   5.147   4.376 -0.3072  0.1572  0.2152
 3363TIP3    H131504   2.411   5.075   4.336 -1.2173  0.8951 -2.4781
 3363TIP3    H231505   2.420   5.222   4.370 -0.1088  0.0825  1.1614
 3364TIP3   OH231506   0.749   2.874  14.187  0.1931  0.1984  0.3282
 3364TIP3    H131507   0.809   2.829  14.128  0.5640 -0.3205  1.0836
 3364TIP3    H231508   0.751   2.965  14.159  0.7709  0.0528 -0.1201
 3365TIP3   OH231509   5.277   0.812  13.895  0.2028 -0.2552  0.2652
 3365TIP3    H131510   5.243   0.882  13.950 -0.8581  0.0271 -0.7014
 3365TIP3    H231511   5.356   0.848  13.856  0.6429 -0.2543  1.1375
 3366TIP3   OH231512   0.609   6.535   5.635  0.2205 -0.3897  0.0410
 3366TIP3    H131513   0.622   6.542   5.540 -0.9565 -0.5704 -0.1550
 3366TIP3    H231514   0.526   6.580   5.651  0.1287 -0.8471  0.9072
 3367TIP3   OH231515   1.254   1.389  15.923  0.2805 -0.8285 -0.0697
 3367TIP3    H131516   1.166   1.419  15.903  0.5084  0.4447  0.7216
 3367TIP3    H231517   1.246   1.347  16.009  0.6574  0.4776  0.6317
 3368TIP3   OH231518   3.381   5.568   3.337  0.3151 -0.3079 -0.2610
 3368TIP3    H131519   3.463   5.523   3.357  0.5290  0.6803  1.2850
 3368TIP3    H231520   3.393   5.656   3.374 -1.2869 -0.0101 -0.3878
 3369TIP3   OH231521   1.597   6.413   4.697  0.5740 -0.4786 -0.4900
 3369TIP3    H131522   1.591   6.323   4.731 -0.4391 -0.5624 -0.8427
 3369TIP3    H231523   1.515   6.453   4.724  0.3435 -0.1289 -1.6550
 3370TIP3   OH231524   0.025   5.594   1.345  0.5185 -0.3151 -0.6071
 3370TIP3    H131525   0.068   5.545   1.416  0.6229 -0.3790 -0.7146
 3370TIP3    H231526  -0.066   5.564   1.347  0.8830 -1.5704 -1.5862
 3371TIP3   OH231527   5.035   3.971  11.017  0.7920 -0.0508 -0.8391
 3371TIP3    H131528   4.980   3.985  10.940  0.4709 -0.4578 -0.6821
 3371TIP3    H231529   4.974   3.959  11.089  1.0605 -1.4814 -0.8266
 3372TIP3   OH231530   3.701   1.045   2.119 -0.3919 -0.5640 -0.6431
 3372TIP3    H131531   3.615   1.084   2.138 -0.5030 -0.8825 -0.4762
 3372TIP3    H231532   3.701   1.031   2.025 -0.3062 -0.0581 -0.7209
 3373TIP3   OH231533   5.758   3.539   2.106 -0.5551  0.5491  0.5988
 3373TIP3    H131534   5.720   3.619   2.141  1.4208  1.9772 -0.3132
 3373TIP3    H231535   5.721   3.531   2.018  0.2848  1.2777  0.1610
 3374TIP3   OH231536   0.349   4.603  15.848 -0.4288 -0.5736 -0.1880
 3374TIP3    H131537   0.323   4.560  15.929  0.0324 -1.0656 -0.2991
 3374TIP3    H231538   0.342   4.697  15.867 -2.1888 -0.6769 -0.1792
 3375TIP3   OH231539   1.604   5.549  15.952 -0.9108  0.1433  0.5371
 3375TIP3    H131540   1.595   5.459  15.985 -2.5067 -0.2432 -0.8566
 3375TIP3    H231541   1.516   5.575  15.928 -0.0647  0.8108 -2.2573
 3376TIP3   OH231542   5.664   0.021   1.710  0.5503  0.5853  0.2178
 3376TIP3    H131543   5.676   0.107   1.671  0.7039  0.1164 -0.8275
 3376TIP3    H231544   5.735   0.012   1.773  2.0515  0.2945 -1.4213
 3377TIP3   OH231545   4.452   2.699   3.682 -0.3024 -0.5266 -0.0033
 3377TIP3    H131546   4.478   2.701   3.774 -0.8505  1.3622  0.1645
 3377TIP3    H231547   4.483   2.615   3.650  1.6070 -0.4366  1.4169
 3378TIP3   OH231548   2.415   1.010   1.840  0.0418 -0.5991 -0.0328
 3378TIP3    H131549   2.335   0.986   1.794 -0.5316 -0.1804  0.7343
 3378TIP3    H231550   2.480   1.019   1.770 -0.5631 -0.9559 -0.6627
 3379TIP3   OH231551   5.264   1.778   5.353  0.3869  0.1928 -0.0521
 3379TIP3    H131552   5.259   1.685   5.376  2.8163  0.0305  0.0923
 3379TIP3    H231553   5.343   1.810   5.397 -0.4875  2.4051  0.0702
 3380TIP3   OH231554   2.988   4.553   2.892  0.2195  0.2824 -0.2597
 3380TIP3    H131555   2.927   4.493   2.934  3.3308 -2.5557  0.6037
 3380TIP3    H231556   2.932   4.621   2.854 -3.2874 -1.1793  1.8041
 3381TIP3   OH231557   5.991   5.173  13.835  0.3544  0.3217 -0.6239
 3381TIP3    H131558   6.079   5.185  13.799  1.3837  0.2739  1.6538
 3381TIP3    H231559   5.996   5.089  13.882 -0.7947  0.4826 -0.1797
 3382TIP3   OH231560   2.369   6.186   3.670  0.4829 -0.5181  0.3747
 3382TIP3    H131561   2.334   6.262   3.624  0.6035 -0.7558 -0.1086
 3382TIP3    H231562   2.301   6.119   3.662 -0.3906  0.0491  2.2621
 3383TIP3   OH231563   4.160   5.264   3.686  0.1618 -0.0822  0.6210
 3383TIP3    H131564   4.140   5.324   3.758 -0.2322 -0.3660  0.7475
 3383TIP3    H231565   4.256   5.259   3.685  0.1734  0.0407  1.0238
 3384TIP3   OH231566   6.540   4.493   4.875  0.4328  0.3183 -0.0237
 3384TIP3    H131567   6.609   4.559   4.885 -1.0388  2.1557 -1.1407
 3384TIP3    H231568   6.515   4.499   4.782 -0.9393 -0.5632  0.2638
 3385TIP3   OH231569   5.323   3.989  10.608  0.3191  0.7250 -0.1527
 3385TIP3    H131570   5.333   4.079  10.638 -2.9723  2.9855 -4.6496
 3385TIP3    H231571   5.373   3.985  10.526  1.4573 -2.0500  0.5642
 3386TIP3   OH231572   3.172   1.249  16.726  0.5867  0.4377  0.1477
 3386TIP3    H131573   3.141   1.196  16.799 -0.5093  1.5594  0.5108
 3386TIP3    H231574   3.198   1.184  16.660  0.6889 -0.5682  1.1447
 3387TIP3   OH231575   1.536   4.344   5.323  0.5698 -0.1407 -0.3201
 3387TIP3    H131576   1.502   4.383   5.242  2.7545 -0.0239 -1.2605
 3387TIP3    H231577   1.577   4.418   5.369 -2.5785  0.3164  2.1420
 3388TIP3   OH231578   2.517   1.580  11.763 -0.2753 -0.3073  0.5093
 3388TIP3    H131579   2.505   1.590  11.857 -0.1438 -1.0316  0.6121
 3388TIP3    H231580   2.611   1.568  11.751 -0.5226 -3.0244  0.6172
 3389TIP3   OH231581   4.997   1.883   1.140  0.3080  0.3673  0.3582
 3389TIP3    H131582   4.926   1.926   1.092  0.7711  0.2669 -0.4428
 3389TIP3    H231583   5.022   1.946   1.207  0.3856  0.9800 -0.2418
 3390TIP3   OH231584   4.648   4.176  14.082  0.1641 -0.4938 -0.1072
 3390TIP3    H131585   4.594   4.253  14.098 -1.4759 -1.5685 -0.2048
 3390TIP3    H231586   4.683   4.152  14.168 -1.6086 -1.2432  0.4425
 3391TIP3   OH231587   0.036   0.354  11.885 -0.4103 -0.0693 -1.3744
 3391TIP3    H131588   0.034   0.434  11.939  0.4576 -1.5898  1.0763
 3391TIP3    H231589  -0.055   0.338  11.862 -0.9551  0.2063  0.4106
 3392TIP3   OH231590   0.244   1.178  15.767 -0.0304 -0.0165 -0.4156
 3392TIP3    H131591   0.163   1.128  15.763 -0.8847  1.3835 -1.9061
 3392TIP3    H231592   0.273   1.184  15.676  1.9349 -0.7441  0.1193
 3393TIP3   OH231593   0.866   4.775   4.005  0.4088  0.0535 -0.0205
 3393TIP3    H131594   0.773   4.754   4.020  0.1331  0.7357 -0.6823
 3393TIP3    H231595   0.912   4.734   4.078 -0.1955 -1.8842 -0.6852
 3394TIP3   OH231596   1.850   5.797   5.367 -0.2610 -0.8421 -0.1670
 3394TIP3    H131597   1.925   5.776   5.311  1.1019 -0.0186  1.2410
 3394TIP3    H231598   1.821   5.713   5.401 -0.5380 -1.2534 -1.3831
 3395TIP3   OH231599   0.020   0.340  14.490 -0.0070 -0.0325 -0.3100
 3395TIP3    H131600  -0.029   0.334  14.408  0.4520  0.4151 -0.6230
 3395TIP3    H231601  -0.012   0.421  14.531  2.1562  1.6199 -1.6668
 3396TIP3   OH231602   5.403   5.451  12.296 -0.1801  0.3463 -0.1519
 3396TIP3    H131603   5.432   5.412  12.378 -0.8277 -2.1793 -1.0228
 3396TIP3    H231604   5.308   5.446  12.298 -0.1835 -1.2671 -1.6663
 3397TIP3   OH231605   3.336   4.443  15.904 -0.5374 -0.2287  0.2548
 3397TIP3    H131606   3.279   4.518  15.916  0.5225  0.3295  2.2227
 3397TIP3    H231607   3.276   4.369  15.894 -1.5872  0.6450 -0.0990
 3398TIP3   OH231608   4.533   0.712   1.298 -0.3644 -0.0229 -1.1575
 3398TIP3    H131609   4.538   0.673   1.385  4.7655  1.4622 -0.4499
 3398TIP3    H231610   4.502   0.801   1.313  0.6563  0.2781 -0.7551
 3399TIP3   OH231611   2.296   0.812   4.351  0.3276 -0.3486  0.1544
 3399TIP3    H131612   2.364   0.870   4.384  1.2203 -1.3371  0.1046
 3399TIP3    H231613   2.236   0.801   4.425  0.9981 -0.5946  0.6727
 3400TIP3   OH231614   0.184   0.040  10.797  0.0582  0.3019 -0.3821
 3400TIP3    H131615   0.093   0.060  10.774  0.3601  0.0486 -1.9047
 3400TIP3    H231616   0.214  -0.018  10.727  2.0806  2.1900 -1.2059
 3401TIP3   OH231617   2.297   5.370   2.560  0.4530 -0.2147 -0.2595
 3401TIP3    H131618   2.241   5.406   2.492  0.7175 -0.7999 -0.7971
 3401TIP3    H231619   2.378   5.347   2.516  1.4186  1.2665  0.6416
 3402TIP3   OH231620   5.397   4.122   0.588 -0.8784  0.5505 -0.1483
 3402TIP3    H131621   5.404   4.077   0.504  0.6735 -2.8030  1.5865
 3402TIP3    H231622   5.475   4.178   0.592  0.4423 -1.1979 -0.0172
 3403TIP3   OH231623   0.019   3.039   0.886 -0.3715 -0.4483  0.0165
 3403TIP3    H131624  -0.024   3.070   0.806 -0.3351 -0.9368 -0.1962
 3403TIP3    H231625  -0.040   3.066   0.956 -0.6638 -0.4741 -0.2159
 3404TIP3   OH231626   2.062   3.641   5.251  0.0722  0.4194  0.8119
 3404TIP3    H131627   2.096   3.568   5.199 -1.1512 -0.0962  0.6945
 3404TIP3    H231628   2.021   3.699   5.186 -0.4970  0.3227  1.0815
 3405TIP3   OH231629   1.251   3.187  12.573  0.1326  0.0755 -0.5263
 3405TIP3    H131630   1.330   3.213  12.526  0.9457 -1.5800 -0.1528
 3405TIP3    H231631   1.269   3.212  12.664  1.2136 -2.2281 -0.0360
 3406TIP3   OH231632   2.948   2.640  14.447 -0.1005  0.2051  0.3281
 3406TIP3    H131633   2.876   2.666  14.504  0.0837  0.2564  0.5395
 3406TIP3    H231634   3.013   2.603  14.507  1.3433  2.8534  0.5494
 3407TIP3   OH231635   4.600   5.372   3.551 -0.4834 -0.8654  0.3160
 3407TIP3    H131636   4.541   5.299   3.570  0.3542 -1.5540  0.3393
 3407TIP3    H231637   4.688   5.336   3.566  0.0052 -0.2436 -0.9201
 3408TIP3   OH231638   1.605   2.470   2.910 -0.0761  0.5149 -0.3090
 3408TIP3    H131639   1.579   2.472   3.002 -1.3466 -1.3871 -0.5717
 3408TIP3    H231640   1.612   2.377   2.889 -0.8517  0.8721 -2.3852
 3409TIP3   OH231641   4.012   4.419  12.337 -0.1697  0.0094 -0.1585
 3409TIP3    H131642   4.025   4.466  12.254 -2.4595 -0.4695 -0.8573
 3409TIP3    H231643   4.009   4.488  12.403 -0.3325  0.5766 -0.7439
 3410TIP3   OH231644   1.684   2.845  12.465  0.2074  0.1006 -0.2770
 3410TIP3    H131645   1.726   2.930  12.478  0.4369 -0.1277  0.5500
 3410TIP3    H231646   1.736   2.785  12.519 -0.1003 -0.5160 -0.6654
 3411TIP3   OH231647   1.501   6.768   3.996 -0.0101  0.7232 -0.0826
 3411TIP3    H131648   1.521   6.834   3.929 -0.1064 -0.0355 -0.8771
 3411TIP3    H231649   1.516   6.813   4.079  0.2660  1.6396 -0.6135
 3412TIP3   OH231650   4.596   6.609  15.726 -0.1406  0.3533 -0.4186
 3412TIP3    H131651   4.585   6.513  15.728 -1.7200  0.4998  0.3256
 3412TIP3    H231652   4.653   6.628  15.801 -0.9589  0.0758  0.2986
 3413TIP3   OH231653   4.264   5.850  15.153 -0.3825  0.2454 -0.1877
 3413TIP3    H131654   4.230   5.939  15.140 -0.1887  0.3913  0.2545
 3413TIP3    H231655   4.297   5.824  15.067  1.1372  1.2881  0.0322
 3414TIP3   OH231656   3.662   1.068   3.194  0.1833 -0.0000  1.2272
 3414TIP3    H131657   3.628   1.088   3.282  1.1181 -1.2031  1.8914
 3414TIP3    H231658   3.653   0.974   3.186  0.6480  0.0332  0.2510
 3415TIP3   OH231659   1.613   0.968   0.163  0.3635  0.4849 -0.2455
 3415TIP3    H131660   1.543   1.022   0.201 -0.6105  0.1316 -1.4996
 3415TIP3    H231661   1.574   0.882   0.152  1.1196  0.1789 -0.6056
 3416TIP3   OH231662   2.190   1.108   0.091  0.4661 -0.2349  0.3232
 3416TIP3    H131663   2.174   1.052   0.167  0.1883  1.7363  1.7927
 3416TIP3    H231664   2.241   1.182   0.125 -1.2295  1.6506 -0.9731
 3417TIP3   OH231665   6.031   3.836   2.921  0.7367 -0.0155 -0.2933
 3417TIP3    H131666   6.088   3.814   2.847 -0.6234 -0.2631 -1.3150
 3417TIP3    H231667   6.029   3.756   2.974 -1.3155 -1.2747 -2.0810
 3418TIP3   OH231668   2.825   4.097  13.532  0.1421 -0.0406  1.0185
 3418TIP3    H131669   2.770   4.110  13.455 -0.6945  0.2914  1.6649
 3418TIP3    H231670   2.910   4.132  13.506  0.2164 -0.9901 -0.1557
 3419TIP3   OH231671   6.396   2.376   5.061 -0.4112 -0.4571 -0.2543
 3419TIP3    H131672   6.449   2.384   4.981 -0.7789 -0.5089 -0.5036
 3419TIP3    H231673   6.460   2.380   5.132 -0.2739  2.4749 -0.4016
 3420TIP3   OH231674   3.260   1.329  17.400 -0.1926 -0.4827 -0.1098
 3420TIP3    H131675   3.276   1.354  17.491 -2.6015 -0.4821  0.3763
 3420TIP3    H231676   3.273   1.410  17.351  1.7049 -0.6130  0.1038
 3421TIP3   OH231677   1.655   2.060   2.504  0.2426 -0.3063  0.3145
 3421TIP3    H131678   1.620   2.038   2.418  2.3960  0.8279 -0.9281
 3421TIP3    H231679   1.583   2.106   2.548 -0.4838  0.2800 -1.4029
 3422TIP3   OH231680   5.583   4.518   3.518 -0.5058 -0.3859  0.4822
 3422TIP3    H131681   5.560   4.602   3.478 -0.5363 -0.3980  0.4744
 3422TIP3    H231682   5.538   4.453   3.463 -2.6948 -0.2798  2.0298
 3423TIP3   OH231683   6.602   2.160  12.612  0.0800 -0.8652  0.0877
 3423TIP3    H131684   6.525   2.214  12.631  0.1805  0.0260 -1.8789
 3423TIP3    H231685   6.565   2.074  12.591 -0.5843 -0.0469 -2.4114
 3424TIP3   OH231686   2.271   3.361   0.367 -0.1557 -0.0647 -0.3938
 3424TIP3    H131687   2.295   3.290   0.309 -0.6255 -0.2493 -0.3663
 3424TIP3    H231688   2.350   3.378   0.419  0.3019  0.1950 -1.1717
 3425TIP3   OH231689   4.595   1.646  10.873 -0.1004  0.3543 -0.3247
 3425TIP3    H131690   4.557   1.558  10.869 -1.7626  0.9184  1.3784
 3425TIP3    H231691   4.545   1.696  10.809 -0.6307  0.5313  0.2147
 3426TIP3   OH231692   6.137   5.584  16.407  0.1772 -0.3415  0.4968
 3426TIP3    H131693   6.111   5.666  16.366 -1.4251 -0.8873  0.3680
 3426TIP3    H231694   6.176   5.533  16.336  1.6823  0.4824  0.6918
 3427TIP3   OH231695   5.253   1.688   2.674 -0.4313 -0.1332  0.2454
 3427TIP3    H131696   5.178   1.741   2.700 -0.7483  0.5616 -1.8930
 3427TIP3    H231697   5.320   1.751   2.651  0.6027 -0.7499  1.4227
 3428TIP3   OH231698   2.989   1.226   4.652  0.2979 -0.3556 -0.3484
 3428TIP3    H131699   2.993   1.149   4.596  1.4389 -1.3433  1.0285
 3428TIP3    H231700   2.988   1.300   4.591  2.0908 -1.3588 -1.6901
 3429TIP3   OH231701   2.170   1.103   3.580  0.3608  0.1273  0.5107
 3429TIP3    H131702   2.230   1.130   3.510 -0.2205 -1.5276 -0.6900
 3429TIP3    H231703   2.120   1.182   3.600  0.5372  0.6482 -0.9583
 3430TIP3   OH231704   2.790   5.987   0.831 -0.4714  0.3243  0.5630
 3430TIP3    H131705   2.867   6.043   0.821 -1.3570  1.6573  0.9917
 3430TIP3    H231706   2.825   5.898   0.830  1.1417  0.9094  1.2594
 3431TIP3   OH231707   4.039   3.674   5.652  0.1018 -0.2520 -0.1228
 3431TIP3    H131708   4.116   3.691   5.599  1.4691 -2.5051  0.9621
 3431TIP3    H231709   4.069   3.611   5.718 -2.4800 -0.6046  0.8404
 3432TIP3   OH231710   5.613   6.259   0.024 -0.0996 -0.0821 -0.1444
 3432TIP3    H131711   5.577   6.172   0.008 -0.8116  0.0903  0.4400
 3432TIP3    H231712   5.654   6.284  -0.058  1.2436 -1.4926  0.0581
 3433TIP3   OH231713   4.696   0.415  15.930 -0.1476 -0.6472 -0.2651
 3433TIP3    H131714   4.652   0.453  15.853 -1.2144 -1.1673  0.0708
 3433TIP3    H231715   4.626   0.369  15.977  0.1045  0.9943  1.8829
 3434TIP3   OH231716   3.837   0.857  12.589  0.5447 -0.0270 -0.3413
 3434TIP3    H131717   3.770   0.920  12.561 -0.1262 -0.2765  0.6720
 3434TIP3    H231718   3.789   0.776  12.605  0.7016  0.3614  2.4834
 3435TIP3   OH231719   6.103   0.981  14.114  0.4172  0.2351 -0.2942
 3435TIP3    H131720   6.073   0.936  14.035 -1.1477  0.1337  0.3372
 3435TIP3    H231721   6.024   0.996  14.166  0.9897  2.9236 -0.0527
 3436TIP3   OH231722   0.195   5.286   0.231 -0.0127  0.4077  0.6786
 3436TIP3    H131723   0.105   5.313   0.246  0.2341  1.0360  1.0414
 3436TIP3    H231724   0.228   5.347   0.165 -0.0756 -0.2847 -0.0055
 3437TIP3   OH231725   0.618   3.506   4.607 -0.2595  0.2500  0.1844
 3437TIP3    H131726   0.532   3.465   4.603 -0.5780  0.9011  0.2949
 3437TIP3    H231727   0.612   3.567   4.681  0.2628  0.3760  0.1286
 3438TIP3   OH231728   6.711   2.061  13.868  0.7062 -0.3102 -0.4430
 3438TIP3    H131729   6.617   2.073  13.854  0.4670 -1.6753 -0.1227
 3438TIP3    H231730   6.750   2.146  13.845 -0.7201  0.6904  0.6522
 3439TIP3   OH231731   3.259   4.644   0.967  0.4563 -0.1871  0.0547
 3439TIP3    H131732   3.169   4.669   0.944  0.0872 -0.3341  1.2428
 3439TIP3    H231733   3.291   4.718   1.018  1.2362  0.1221 -0.8607
 3440TIP3   OH231734   0.501   4.484   2.654  0.0033 -0.3323  0.2581
 3440TIP3    H131735   0.522   4.445   2.739 -2.3659 -1.5060  0.3848
 3440TIP3    H231736   0.532   4.420   2.590 -1.1756 -1.0640  0.3822
 3441TIP3   OH231737   4.976   3.129   2.470  0.1639 -0.4652  0.2224
 3441TIP3    H131738   4.949   3.041   2.445 -0.6202 -0.0644 -0.4308
 3441TIP3    H231739   4.898   3.167   2.511 -0.0681  0.4708 -1.0135
 3442TIP3   OH231740   3.630   5.506   2.128 -0.2422 -0.3350 -0.1539
 3442TIP3    H131741   3.555   5.561   2.108  0.1251 -0.3370 -1.6769
 3442TIP3    H231742   3.601   5.417   2.105 -0.5276 -0.6902  1.4372
 3443TIP3   OH231743   2.876   3.501  15.392  0.3548  0.4146 -0.2228
 3443TIP3    H131744   2.816   3.521  15.463 -0.2839 -1.4564 -0.1718
 3443TIP3    H231745   2.860   3.409  15.373 -0.1089  1.0244 -3.3488
 3444TIP3   OH231746   0.185   1.769  16.006  0.3106  0.1615 -0.2815
 3444TIP3    H131747   0.148   1.710  16.071 -0.9345  0.1536 -0.9583
 3444TIP3    H231748   0.235   1.833  16.056  0.4944 -0.6326  0.5654
 3445TIP3   OH231749   6.470   1.492   0.611  0.0666 -0.3641  0.0993
 3445TIP3    H131750   6.533   1.537   0.668 -0.2587  1.6352 -0.9943
 3445TIP3    H231751   6.395   1.476   0.667  0.9767 -1.5042  1.0586
 3446TIP3   OH231752   3.624   2.998   4.278 -0.0148  0.3753 -0.1004
 3446TIP3    H131753   3.528   3.003   4.277 -0.0152  0.6104  0.7285
 3446TIP3    H231754   3.649   3.020   4.188 -0.7452  0.0512 -0.3989
 3447TIP3   OH231755   0.554   2.134  16.683  0.1200 -0.5405  0.5161
 3447TIP3    H131756   0.537   2.156  16.591  0.6468 -0.0225  0.5377
 3447TIP3    H231757   0.647   2.114  16.686  0.0469 -0.8352  0.8894
 3448TIP3   OH231758   0.133   1.604   4.106  0.4841 -0.1677 -0.2629
 3448TIP3    H131759   0.073   1.638   4.172  1.4058  2.7724 -0.7794
 3448TIP3    H231760   0.083   1.537   4.059 -1.0246 -0.5170  1.7531
 3449TIP3   OH231761   1.361   4.271   5.538  0.0040 -0.4825 -0.2452
 3449TIP3    H131762   1.396   4.279   5.450 -0.3664 -1.4496 -0.4923
 3449TIP3    H231763   1.359   4.361   5.572  0.0939 -0.1007 -1.2345
 3450TIP3   OH231764   2.941   2.296   4.563 -0.8937  0.0509 -1.0187
 3450TIP3    H131765   2.931   2.343   4.480 -0.7696  1.5543 -0.2268
 3450TIP3    H231766   3.001   2.351   4.614  1.4356 -2.2815 -0.9775
 3451TIP3   OH231767   3.785   5.847   9.707 -0.1509  0.1534  0.3361
 3451TIP3    H131768   3.725   5.915   9.678 -0.0568 -0.3979 -1.2147
 3451TIP3    H231769   3.766   5.837   9.800 -4.1594 -1.6430 -0.4851
 3452TIP3   OH231770   3.331   5.485   0.581 -0.0633  0.7161 -0.4509
 3452TIP3    H131771   3.347   5.463   0.489  0.1052  2.2267 -0.7970
 3452TIP3    H231772   3.256   5.545   0.579 -1.3566 -0.7550  0.5810
 3453TIP3   OH231773   6.242   4.954   6.340  0.6455 -0.3263  0.3030
 3453TIP3    H131774   6.317   4.970   6.281 -0.1999 -0.4807 -0.8533
 3453TIP3    H231775   6.215   4.864   6.319  1.4209 -1.0581  2.2204
 3454TIP3   OH231776   2.653   2.888  11.649 -0.0425  0.4289 -0.5800
 3454TIP3    H131777   2.570   2.919  11.612 -0.8361 -0.5931  0.2871
 3454TIP3    H231778   2.654   2.924  11.738 -0.0753 -0.4202 -0.2245
 3455TIP3   OH231779   5.866   4.306  12.075  0.1521  0.0377 -0.0729
 3455TIP3    H131780   5.878   4.349  11.991  2.1133  0.5419  0.4086
 3455TIP3    H231781   5.952   4.270  12.097  0.2865  1.6712  2.6086
 3456TIP3   OH231782   1.497   0.539  10.699  0.0482  0.3186  0.4703
 3456TIP3    H131783   1.461   0.602  10.761 -1.5765  0.8345 -0.9236
 3456TIP3    H231784   1.427   0.476  10.685  1.2155 -1.1174  0.8945
 3457TIP3   OH231785   1.016   1.271   1.526 -0.0392 -0.5515 -0.1069
 3457TIP3    H131786   0.962   1.329   1.581 -1.1241 -0.4565 -1.2262
 3457TIP3    H231787   1.048   1.327   1.456 -0.5032 -1.1461 -0.8040
 3458TIP3   OH231788   1.638   2.050  16.707  0.2539  0.1600 -0.5378
 3458TIP3    H131789   1.618   2.142  16.720  1.1112  0.1157  1.3346
 3458TIP3    H231790   1.713   2.033  16.764 -0.8411 -2.0584  0.3598
 3459TIP3   OH231791   0.478   3.047  13.176 -0.0802 -0.2039  0.5257
 3459TIP3    H131792   0.387   3.046  13.146  0.5010 -0.0082 -1.3891
 3459TIP3    H231793   0.474   3.009  13.264 -2.1664  1.0296  1.0490
 3460TIP3   OH231794   0.616   6.520   0.892 -0.2138  0.4776 -0.0473
 3460TIP3    H131795   0.657   6.435   0.906  0.0086  0.3828 -1.1734
 3460TIP3    H231796   0.633   6.569   0.973 -0.8838 -0.7519  0.8631
 3461TIP3   OH231797   4.050   5.044   4.603 -0.1574  0.3361 -0.1945
 3461TIP3    H131798   3.980   5.109   4.611 -0.3108  0.0192  1.1508
 3461TIP3    H231799   4.084   5.057   4.514 -1.5952  0.8210 -0.7055
 3462TIP3   OH231800   1.770   3.855   3.301 -0.4344 -0.0435 -0.4436
 3462TIP3    H131801   1.830   3.837   3.373  1.1912  0.2493 -1.6723
 3462TIP3    H231802   1.704   3.913   3.339  0.3202  0.0290  0.8204
 3463TIP3   OH231803   0.072   1.866   1.780 -0.1499  0.1790 -0.2189
 3463TIP3    H131804   0.162   1.854   1.749 -0.0242 -1.7856  0.7085
 3463TIP3    H231805   0.025   1.789   1.748 -1.3132  0.7551  0.0267
 3464TIP3   OH231806   0.981   2.543  12.931  0.3241 -0.2497  0.5490
 3464TIP3    H131807   1.008   2.633  12.914  0.7766 -0.5151 -0.1804
 3464TIP3    H231808   0.901   2.552  12.982  0.4220  0.5670  0.5787
 3465TIP3   OH231809   6.311   2.821  17.194  0.4865  0.1801  0.0188
 3465TIP3    H131810   6.306   2.880  17.119 -1.8972 -0.2437 -0.2484
 3465TIP3    H231811   6.220   2.813  17.223  0.9858 -1.9438  1.1655
 3466TIP3   OH231812   0.455   1.841   3.065  0.4637  0.0650 -0.7702
 3466TIP3    H131813   0.489   1.752   3.075 -0.0260 -0.1937 -1.3314
 3466TIP3    H231814   0.365   1.828   3.036 -0.6298  0.7058  2.0296
 3467TIP3   OH231815   6.411   6.049   2.911  0.1282  0.0228  0.1225
 3467TIP3    H131816   6.403   6.005   2.995 -0.1338 -0.1291  0.0194
 3467TIP3    H231817   6.503   6.041   2.888 -0.1134 -1.5499 -0.4639
 3468TIP3   OH231818   0.685   5.515  11.731  0.2963  0.2900  0.6473
 3468TIP3    H131819   0.677   5.598  11.778  0.9950  0.2947  0.7727
 3468TIP3    H231820   0.757   5.469  11.775  0.5933  0.0581 -0.0687
 3469TIP3   OH231821   4.168   4.589   4.917  0.2155 -0.2222  0.6994
 3469TIP3    H131822   4.242   4.591   4.977  0.2312  1.1275  0.6625
 3469TIP3    H231823   4.158   4.680   4.888 -1.5411 -0.3385  0.8223
 3470TIP3   OH231824   0.775   6.404  13.168  0.5803  0.0217  0.1329
 3470TIP3    H131825   0.713   6.475  13.177  2.6733  2.2751 -1.7596
 3470TIP3    H231826   0.847   6.441  13.117  3.2124 -2.5821  1.6394
 3471TIP3   OH231827   3.781   0.288  15.296  0.1023 -0.2604 -0.3179
 3471TIP3    H131828   3.701   0.318  15.340 -0.0162 -1.4019  0.2939
 3471TIP3    H231829   3.765   0.195  15.280  0.9333 -0.2810 -1.0473
 3472TIP3   OH231830   4.395   5.231  10.828 -0.0371  0.0528 -0.4540
 3472TIP3    H131831   4.487   5.256  10.821 -0.0480  0.7146  1.2344
 3472TIP3    H231832   4.357   5.257  10.744  1.3469 -0.4590 -1.2759
 3473TIP3   OH231833   2.185   0.230   0.887 -0.1760  0.6260  0.6548
 3473TIP3    H131834   2.161   0.149   0.931 -3.1803  0.6432 -0.6942
 3473TIP3    H231835   2.278   0.240   0.903 -0.4878 -0.9696  4.2648
 3474TIP3   OH231836   5.954   0.549  13.408 -0.1002 -0.1780  0.5618
 3474TIP3    H131837   5.929   0.630  13.363 -2.4268 -1.6743 -1.0484
 3474TIP3    H231838   6.045   0.535  13.383 -0.2108  1.0026 -0.6374
 3475TIP3   OH231839   4.334   1.795   4.394  0.0335  0.4414  0.3568
 3475TIP3    H131840   4.385   1.839   4.326  0.7195  4.2868  3.0077
 3475TIP3    H231841   4.396   1.735   4.435  0.6634  0.7225 -0.1506
 3476TIP3   OH231842   1.125   6.065  11.814 -0.0206 -0.3317 -0.0842
 3476TIP3    H131843   1.144   6.017  11.894 -2.2456  0.2001  0.8386
 3476TIP3    H231844   1.163   6.012  11.744  2.2054 -0.6681  1.2870
 3477TIP3   OH231845   1.170   1.554   0.204  0.2823  0.1704 -1.0838
 3477TIP3    H131846   1.254   1.559   0.157  0.1157  0.7416 -1.3289
 3477TIP3    H231847   1.182   1.482   0.266  0.2849 -1.0585 -2.4407
 3478TIP3   OH231848   2.983   6.527  11.474  0.2556 -0.2320 -0.0293
 3478TIP3    H131849   2.911   6.554  11.416 -0.7995  0.0424  1.3599
 3478TIP3    H231850   3.051   6.593  11.461 -0.2932  0.2790 -0.3402
 3479TIP3   OH231851   0.613   2.013  17.059 -0.0048 -0.6193  0.0147
 3479TIP3    H131852   0.699   2.033  17.021  0.0898 -1.7802 -0.4398
 3479TIP3    H231853   0.622   2.035  17.151  0.1062  1.2511 -0.3982
 3480TIP3   OH231854   3.473   0.595   4.092 -0.5335 -0.0735  0.5992
 3480TIP3    H131855   3.407   0.527   4.083 -0.2782 -0.4798  1.6481
 3480TIP3    H231856   3.503   0.588   4.183  1.8530 -0.7560 -0.1512
 3481TIP3   OH231857   4.056   6.521  16.934 -0.3541  0.2204  0.4641
 3481TIP3    H131858   3.971   6.524  16.977 -0.4125  1.6530  0.3065
 3481TIP3    H231859   4.096   6.606  16.953  0.3863  0.1731 -0.7335
 3482TIP3   OH231860   2.622   6.762   0.931  0.4697  0.1797 -0.2133
 3482TIP3    H131861   2.679   6.817   0.878 -1.9473  3.5759  0.4103
 3482TIP3    H231862   2.550   6.740   0.873  0.3928 -0.6096  0.1723
 3483TIP3   OH231863   5.488   4.548  13.455  0.2195  0.4444  0.0691
 3483TIP3    H131864   5.460   4.457  13.450 -0.0477  0.5155  0.2273
 3483TIP3    H231865   5.429   4.588  13.519  0.9365  0.5014  0.7114
 3484TIP3   OH231866   5.040   2.949   0.910 -0.3075 -0.8338  0.3734
 3484TIP3    H131867   5.082   3.008   0.848  0.0005 -1.9922 -0.5443
 3484TIP3    H231868   4.958   2.924   0.868 -1.3967  0.4496  1.6224
 3485TIP3   OH231869   5.563   0.503   1.751 -0.3015  0.0427  0.4936
 3485TIP3    H131870   5.506   0.450   1.696 -0.9584  0.9090  0.3025
 3485TIP3    H231871   5.508   0.578   1.777  0.6663  0.7673  0.5200
 3486TIP3   OH231872   4.102   3.674  16.055  0.0921 -0.2982 -0.0417
 3486TIP3    H131873   4.104   3.613  15.981  0.4159 -0.6754  0.2709
 3486TIP3    H231874   4.059   3.753  16.021 -1.3149 -1.0772 -0.1632
 3487TIP3   OH231875   2.840   2.891  17.185 -0.3312  0.2337  0.5770
 3487TIP3    H131876   2.823   2.911  17.277 -0.1657  1.9741  0.2717
 3487TIP3    H231877   2.935   2.897  17.176 -0.4288  1.2817  0.0670
 3488TIP3   OH231878   6.577   3.633  11.117  0.0026  0.1237  0.0336
 3488TIP3    H131879   6.582   3.711  11.173 -0.3200 -0.1384  0.4289
 3488TIP3    H231880   6.576   3.560  11.178  0.2703 -0.1936 -0.3388
 3489TIP3   OH231881   2.851   3.153  13.892  0.2605 -0.6298  0.2872
 3489TIP3    H131882   2.822   3.209  13.821  0.4297 -0.3978  0.4026
 3489TIP3    H231883   2.843   3.207  13.970 -0.0659 -0.9293  0.4675
 3490TIP3   OH231884   6.682   5.845   4.157  0.2868 -0.2916  0.4508
 3490TIP3    H131885   6.746   5.850   4.087 -0.4833 -0.4748 -0.2733
 3490TIP3    H231886   6.629   5.767   4.138 -1.2815  0.8180  0.0304
 3491TIP3   OH231887   1.959   2.291  17.205  0.2431 -0.3663  0.4281
 3491TIP3    H131888   2.016   2.221  17.173  0.4884 -0.3320  0.7818
 3491TIP3    H231889   2.005   2.327  17.281  0.5753  0.8089 -0.2975
 3492TIP3   OH231890   0.966   4.842   5.023  1.2302 -0.1870  0.0397
 3492TIP3    H131891   1.043   4.889   4.993  0.4075  1.7962  0.8980
 3492TIP3    H231892   0.950   4.873   5.111 -1.9889  1.4562 -0.9447
 3493TIP3   OH231893   2.073   0.934  11.923 -0.1949  0.3771  0.1146
 3493TIP3    H131894   2.075   0.968  11.834  0.3752  2.1955  0.7667
 3493TIP3    H231895   2.036   0.846  11.915  0.4732  0.2403 -1.9764
 3494TIP3   OH231896   0.206   5.228   5.323  0.0541 -0.4671 -0.5153
 3494TIP3    H131897   0.294   5.253   5.352  0.4209  0.5502 -2.3450
 3494TIP3    H231898   0.218   5.147   5.274 -0.2343 -1.0007  0.2766
 3495TIP3   OH231899   3.382   0.058  16.319 -0.1001  0.3844 -0.0623
 3495TIP3    H131900   3.306   0.106  16.353 -1.2831 -0.1816 -1.7872
 3495TIP3    H231901   3.442   0.127  16.290 -0.0048  0.8354  1.1459
 3496TIP3   OH231902   1.126   3.771  16.739 -0.5845 -0.0284  0.4006
 3496TIP3    H131903   1.050   3.782  16.681 -1.4703 -0.8627  1.3607
 3496TIP3    H231904   1.195   3.823  16.698 -0.5283 -2.1741 -2.5420
 3497TIP3   OH231905   3.806   0.593  15.957  0.3502  0.0743 -0.0899
 3497TIP3    H131906   3.862   0.634  16.023  2.7081 -0.7471 -1.4567
 3497TIP3    H231907   3.796   0.502  15.988  2.0420 -0.5080 -1.1207
 3498TIP3   OH231908   4.208   4.789   5.337  0.1490  0.1389  0.0344
 3498TIP3    H131909   4.215   4.835   5.420 -2.3098 -1.5061  1.2605
 3498TIP3    H231910   4.115   4.786   5.318  0.6063  0.0414 -2.5733
 3499TIP3   OH231911   4.502   1.548  14.765 -0.2077  0.1667 -0.0442
 3499TIP3    H131912   4.561   1.575  14.835  0.3371 -0.5974 -0.1980
 3499TIP3    H231913   4.460   1.630  14.737 -0.7075  0.4339  1.3954
 3500TIP3   OH231914   0.981   1.732  13.003 -0.7863 -0.8792 -0.3671
 3500TIP3    H131915   1.059   1.789  13.000 -1.2667 -0.2732 -1.9333
 3500TIP3    H231916   0.982   1.697  13.092  0.8842 -0.3245 -0.1195
 3501TIP3   OH231917   3.539   6.134   3.172 -0.6097 -0.2393  0.1009
 3501TIP3    H131918   3.463   6.084   3.203 -0.4001 -0.5168  0.1687
 3501TIP3    H231919   3.569   6.182   3.250 -0.0449 -0.9850  0.3495
 3502TIP3   OH231920   2.948   5.680   3.635 -0.5353  0.2385  0.0319
 3502TIP3    H131921   2.879   5.717   3.580  0.7807  1.7478 -0.6863
 3502TIP3    H231922   3.017   5.747   3.635  0.2444 -0.4814  2.0847
 3503TIP3   OH231923   6.567   1.743   1.592 -0.3140 -0.5165  0.1054
 3503TIP3    H131924   6.564   1.784   1.678  2.1973  0.5539 -0.2318
 3503TIP3    H231925   6.625   1.668   1.603 -0.7308 -0.9394 -0.4724
 3504TIP3   OH231926   4.662   4.322   3.576 -0.2905 -0.6197  0.2025
 3504TIP3    H131927   4.679   4.230   3.597 -0.2314 -0.5594  0.4310
 3504TIP3    H231928   4.745   4.356   3.543 -0.5660 -0.8933 -0.8046
 3505TIP3   OH231929   0.662   4.332   2.020  0.8234  0.3185 -0.5968
 3505TIP3    H131930   0.755   4.352   2.029  0.6094  1.2076 -0.3036
 3505TIP3    H231931   0.635   4.304   2.107  0.3575  2.0859 -0.1390
 3506TIP3   OH231932   2.199   0.725   3.565 -0.6985  0.3729 -0.6543
 3506TIP3    H131933   2.151   0.663   3.620 -1.1423  0.5496 -0.8351
 3506TIP3    H231934   2.217   0.800   3.622  1.8473 -0.8167  0.2504
 3507TIP3   OH231935   5.438   1.490   0.852 -0.0052 -0.2044 -0.1287
 3507TIP3    H131936   5.404   1.478   0.763  0.4440 -0.6854 -0.2397
 3507TIP3    H231937   5.400   1.417   0.902 -0.1476 -0.0128  0.0442
 3508TIP3   OH231938   1.604   2.784  17.029 -0.0954 -0.4717 -0.3810
 3508TIP3    H131939   1.622   2.710  17.087  1.1615  0.2233  0.1656
 3508TIP3    H231940   1.671   2.849  17.052 -0.6717  0.5193 -1.3987
 3509TIP3   OH231941   5.025   2.008  12.181  0.5394  0.4778 -0.2639
 3509TIP3    H131942   5.051   2.043  12.096 -0.9563  1.6284 -0.2901
 3509TIP3    H231943   5.107   1.981  12.222  1.2698 -0.5867 -2.2512
 3510TIP3   OH231944   2.376   0.266   5.665  0.2280  0.7226 -0.8172
 3510TIP3    H131945   2.398   0.359   5.657  0.4279  0.6437 -1.1860
 3510TIP3    H231946   2.452   0.227   5.708 -0.9537  1.1973  1.9965
 3511TIP3   OH231947   1.321   2.854   2.368 -0.0654 -0.0083  0.2461
 3511TIP3    H131948   1.407   2.837   2.408 -0.7394  1.1088  2.3319
 3511TIP3    H231949   1.329   2.941   2.329 -0.2747  0.1664  0.5839
 3512TIP3   OH231950   6.724   2.921  16.641 -0.1401 -0.0418 -0.0045
 3512TIP3    H131951   6.783   2.934  16.567 -0.0067 -0.4025  0.0383
 3512TIP3    H231952   6.690   3.009  16.660  0.8446  0.2648  0.3616
 3513TIP3   OH231953   4.865   1.109   1.018  0.4346 -0.1601  0.6331
 3513TIP3    H131954   4.858   1.199   0.986  0.9613  0.0361  1.0606
 3513TIP3    H231955   4.811   1.107   1.097  0.9054 -0.0476  0.9670
 3514TIP3   OH231956   1.006   5.374  13.941 -0.8024 -0.1498  0.2076
 3514TIP3    H131957   1.036   5.352  14.029  1.9093  2.5052  0.0793
 3514TIP3    H231958   0.924   5.422  13.956 -0.5546 -0.0154  1.2280
 3515TIP3   OH231959   6.035   2.966   0.044  0.2950 -0.0457  0.0598
 3515TIP3    H131960   6.024   2.876   0.012 -2.4319  0.1011  0.3450
 3515TIP3    H231961   6.019   3.021  -0.033  0.7024  0.2367  0.1693
 3516TIP3   OH231962   6.748   0.117  13.323  0.0262 -0.0675 -0.3685
 3516TIP3    H131963   6.842   0.100  13.312  0.2214  1.5127 -1.4614
 3516TIP3    H231964   6.741   0.212  13.321 -1.4430 -0.0868  1.3368
 3517TIP3   OH231965   2.281   5.430  10.628  0.3267 -0.3487  0.2767
 3517TIP3    H131966   2.336   5.500  10.663  1.4890 -1.5939  1.0271
 3517TIP3    H231967   2.192   5.455  10.654  0.8297  0.3538  1.4101
 3518TIP3   OH231968   0.278   6.151   1.261  0.4769 -0.1588 -0.4061
 3518TIP3    H131969   0.318   6.131   1.176  0.5484  3.5653 -1.4254
 3518TIP3    H231970   0.187   6.172   1.240  0.4533  0.6473  0.4485
 3519TIP3   OH231971   2.771   4.863  10.800 -1.1660  0.3746  0.4426
 3519TIP3    H131972   2.786   4.957  10.789  0.4356  0.1360  0.4563
 3519TIP3    H231973   2.814   4.823  10.725 -3.3173 -0.2757 -0.5159
 3520TIP3   OH231974   3.144   2.333  17.172 -0.3904  0.0283  0.3547
 3520TIP3    H131975   3.209   2.327  17.241 -0.1185 -0.6004  0.0496
 3520TIP3    H231976   3.191   2.309  17.092 -0.4456  1.6820 -0.2298
 3521TIP3   OH231977   0.995   6.309   0.177  0.0691  0.2810  0.3155
 3521TIP3    H131978   1.060   6.305   0.247  1.1993 -0.1898 -0.7126
 3521TIP3    H231979   0.970   6.218   0.162 -0.0214  0.3598 -0.0216
 3522TIP3   OH231980   3.771   0.561   6.002 -0.0781  0.3255 -0.2751
 3522TIP3    H131981   3.801   0.471   5.991  1.6325  0.8768 -0.4955
 3522TIP3    H231982   3.822   0.594   6.076 -0.6413  1.1302 -0.2374
 3523TIP3   OH231983   1.313   2.495   0.202 -1.0217 -0.6889 -0.0442
 3523TIP3    H131984   1.360   2.453   0.131 -1.5167 -0.0924 -0.7367
 3523TIP3    H231985   1.226   2.455   0.200 -0.9828 -0.8013  0.3522
 3524TIP3   OH231986   1.999   2.783  11.936  0.4407  0.3839  0.0261
 3524TIP3    H131987   2.058   2.798  11.863  2.1024 -1.1037  0.9840
 3524TIP3    H231988   2.039   2.831  12.010  1.1198 -1.5244  0.9549
 3525TIP3   OH231989   0.827   1.989   2.906  0.2303 -0.2854  0.7445
 3525TIP3    H131990   0.871   2.066   2.943 -1.1022  1.0858 -0.3770
 3525TIP3    H231991   0.734   2.006   2.920 -0.2899 -0.1360 -2.2788
 3526TIP3   OH231992   1.240   4.113   2.844  0.3000  0.1003  0.1944
 3526TIP3    H131993   1.188   4.109   2.924 -0.0717 -0.3005 -0.0633
 3526TIP3    H231994   1.238   4.024   2.809  0.7765  0.1853 -0.0637
 3527TIP3   OH231995   3.391   5.151   0.150  0.0647  0.2030  0.0401
 3527TIP3    H131996   3.336   5.160   0.073  0.3817 -2.1102 -0.5106
 3527TIP3    H231997   3.478   5.177   0.120  0.5548 -2.3180 -0.9469
 3528TIP3   OH231998   5.713   3.296  12.063  0.2666  0.0507 -0.3442
 3528TIP3    H131999   5.807   3.282  12.051  0.6513  1.3303  0.9786
 3528TIP3    H232000   5.676   3.278  11.976  1.9060  0.9671 -1.2912
 3529TIP3   OH232001   0.487   0.683  17.073  0.7592  0.2320  0.1516
 3529TIP3    H132002   0.397   0.651  17.072  1.3703 -1.6353  0.8029
 3529TIP3    H232003   0.483   0.766  17.026 -1.1411 -0.2341 -0.6156
 3530TIP3   OH232004   1.061   6.428  15.248 -0.0692 -0.0286  0.0355
 3530TIP3    H132005   1.083   6.339  15.276 -0.2683 -0.0978 -0.0211
 3530TIP3    H232006   0.981   6.449  15.297  0.0944  0.1964  0.2027
 3531TIP3   OH232007   5.677   4.130   2.995 -0.1804 -0.0501  0.0865
 3531TIP3    H132008   5.716   4.122   2.907  0.7317 -1.1445  0.5612
 3531TIP3    H232009   5.741   4.181   3.044  0.5678 -1.5823  0.7849
 3532TIP3   OH232010   1.390   1.744  14.059 -0.0354  1.1296  0.2351
 3532TIP3    H132011   1.460   1.691  14.021 -0.5922 -0.9051  1.8872
 3532TIP3    H232012   1.337   1.771  13.983 -0.2639 -1.5079 -0.6767
 3533TIP3   OH232013   0.021   5.462  13.422  0.0954 -0.2280 -0.5597
 3533TIP3    H132014  -0.055   5.499  13.466  0.2642 -0.9731  0.3795
 3533TIP3    H232015   0.013   5.368  13.435  0.6203 -0.4008 -1.3815
 3534TIP3   OH232016   0.863   0.153  13.330  0.1894  0.0975 -0.4972
 3534TIP3    H132017   0.897   0.155  13.241  1.4466 -1.5128 -0.1030
 3534TIP3    H232018   0.838   0.062  13.345  2.0488 -0.1945  1.4675
 3535TIP3   OH232019   4.804   2.552  12.474 -0.5978  1.1841 -0.4010
 3535TIP3    H132020   4.879   2.530  12.529 -0.8034  1.9114  0.1795
 3535TIP3    H232021   4.811   2.646  12.459  0.1449  0.8272 -2.6723
 3536TIP3   OH232022   4.157   0.845  13.006  0.3122  0.1758  0.6696
 3536TIP3    H132023   4.180   0.897  12.929 -1.0533  0.7362  0.6099
 3536TIP3    H232024   4.222   0.868  13.072  0.2567  1.2798  0.3468
 3537TIP3   OH232025   2.425   4.275   6.605 -0.2819  0.2894 -0.4855
 3537TIP3    H132026   2.465   4.194   6.573  2.0321  0.4097  1.7429
 3537TIP3    H232027   2.430   4.334   6.530 -0.6767 -1.1663 -1.7224
 3538TIP3   OH232028   4.468   1.545  10.550  0.0180 -0.2099 -0.2690
 3538TIP3    H132029   4.500   1.578  10.466  1.1498 -0.6172 -0.0111
 3538TIP3    H232030   4.382   1.586  10.561 -0.3047 -0.4257 -1.7863
 3539TIP3   OH232031   0.060   4.918   5.252  0.2426 -0.5790 -0.1919
 3539TIP3    H132032   0.118   4.843   5.239 -0.3353 -1.1261  0.3407
 3539TIP3    H232033   0.042   4.919   5.345  1.4420  1.1377  0.0775
 3540TIP3   OH232034   3.181   0.428  14.790 -0.1118 -0.1138 -0.3587
 3540TIP3    H132035   3.185   0.407  14.697 -0.3884 -0.6864 -0.2471
 3540TIP3    H232036   3.093   0.402  14.818  0.4908 -1.5105  0.4020
 3541TIP3   OH232037   0.428   3.147  14.579  0.4192 -0.3050  0.1771
 3541TIP3    H132038   0.467   3.067  14.543  0.9680  0.7006 -1.6316
 3541TIP3    H232039   0.497   3.183  14.635  0.2421 -0.9667  0.8438
 3542TIP3   OH232040   2.478   5.774  13.810  0.2509  0.2916  0.2414
 3542TIP3    H132041   2.547   5.715  13.842  2.8425  2.8413 -0.1934
 3542TIP3    H232042   2.457   5.742  13.723  0.9994 -0.4684  0.3267
 3543TIP3   OH232043   0.481   1.714   2.137  0.3534  0.0448 -0.7256
 3543TIP3    H132044   0.502   1.680   2.224 -0.4318  1.1708 -0.0608
 3543TIP3    H232045   0.549   1.779   2.119 -0.4047  0.9983 -0.2139
 3544TIP3   OH232046   3.556   5.435   2.377 -0.2606 -0.0726 -0.8747
 3544TIP3    H132047   3.603   5.454   2.296  0.5318 -2.4276 -1.0559
 3544TIP3    H232048   3.622   5.394   2.434 -1.4609 -1.1020 -0.1638
 3545TIP3   OH232049   3.147   1.606  10.822  0.7150 -0.3171 -0.7620
 3545TIP3    H132050   3.134   1.606  10.727  0.6318 -1.5843 -0.7701
 3545TIP3    H232051   3.103   1.527  10.852 -0.0775  0.5586  0.4733
 3546TIP3   OH232052   3.325   1.029  11.778 -0.1668 -0.2807  0.3051
 3546TIP3    H132053   3.263   1.058  11.711 -1.1534 -0.2262  1.2094
 3546TIP3    H232054   3.358   0.945  11.746  1.1793  0.8367 -1.3671
 3547TIP3   OH232055   3.402   2.798   0.721 -0.6594 -0.1369 -0.0404
 3547TIP3    H132056   3.402   2.806   0.817 -1.0724 -0.8868  0.0331
 3547TIP3    H232057   3.486   2.756   0.700 -0.6319 -0.1052  0.0067
 3548TIP3   OH232058   1.561   1.504  12.239 -0.6181  0.2839  0.5694
 3548TIP3    H132059   1.541   1.556  12.161  0.8118  1.6151  1.0350
 3548TIP3    H232060   1.635   1.550  12.280 -0.8420 -0.8136  2.2947
 3549TIP3   OH232061   2.326   3.103  15.336  0.4573 -0.3364 -0.9471
 3549TIP3    H132062   2.234   3.098  15.362  0.7542 -0.0423  0.2140
 3549TIP3    H232063   2.325   3.154  15.255 -0.2334  1.6230  0.2264
 3550TIP3   OH232064   6.546   4.423  15.349 -0.3677 -0.1466  0.6700
 3550TIP3    H132065   6.593   4.481  15.409  0.5104  0.9814 -1.0287
 3550TIP3    H232066   6.473   4.388  15.401 -0.1700  1.4767  2.1159
 3551TIP3   OH232067   0.870   4.214  14.493  0.3319 -0.0399 -0.2916
 3551TIP3    H132068   0.799   4.273  14.467  1.5986  1.6931  0.0294
 3551TIP3    H232069   0.894   4.169  14.412  0.2960  0.9625 -0.8782
 3552TIP3   OH232070   4.413   1.759  16.219 -0.1537  0.1061  0.3586
 3552TIP3    H132071   4.488   1.737  16.275  0.8163 -1.3846 -1.4209
 3552TIP3    H232072   4.350   1.688  16.235  0.1700 -0.3839 -0.4602
 3553TIP3   OH232073   0.027   4.329   0.449  0.3101 -0.4841 -0.2845
 3553TIP3    H132074   0.017   4.382   0.528 -0.3888 -2.1923  0.8266
 3553TIP3    H232075   0.033   4.393   0.378 -3.1499  1.0892  0.6534
 3554TIP3   OH232076   5.720   5.509   5.938 -0.4001 -0.1397 -0.1054
 3554TIP3    H132077   5.767   5.562   5.874  0.6117 -1.0357 -0.1289
 3554TIP3    H232078   5.721   5.562   6.018  1.6104 -0.5826  0.1929
 3555TIP3   OH232079   0.041   5.152   3.114  0.1216 -0.5222  0.1814
 3555TIP3    H132080   0.102   5.207   3.066 -0.1431 -1.5187 -1.3444
 3555TIP3    H232081   0.016   5.084   3.053 -0.8267 -1.4094  1.4971
 3556TIP3   OH232082   3.295   1.974   0.145  0.4428 -0.0723 -0.3732
 3556TIP3    H132083   3.230   2.043   0.161 -0.9036 -0.9522 -1.7676
 3556TIP3    H232084   3.255   1.895   0.181  0.6002 -0.6833 -1.5007
 3557TIP3   OH232085   2.947   4.302   0.279 -0.4225  0.2475  0.2688
 3557TIP3    H132086   3.035   4.265   0.276 -1.1609 -1.6716  0.8282
 3557TIP3    H232087   2.902   4.262   0.204 -1.6581 -1.1747  1.7113
 3558TIP3   OH232088   2.279   0.115  11.517 -0.1288 -0.0044  0.4279
 3558TIP3    H132089   2.293   0.022  11.532 -0.3421 -0.1540 -0.2947
 3558TIP3    H232090   2.365   0.148  11.490 -0.0251  0.0381  0.7976
 3559TIP3   OH232091   3.486   0.923  15.697  0.2177  0.2549  0.5449
 3559TIP3    H132092   3.548   0.875  15.643 -1.5154 -0.2222 -1.1593
 3559TIP3    H232093   3.522   0.920  15.785  2.3347 -0.3857 -0.2907
 3560TIP3   OH232094   4.625   4.264   2.678 -0.1552  0.9435  0.4214
 3560TIP3    H132095   4.676   4.271   2.759 -0.2583  1.0006  0.4822
 3560TIP3    H232096   4.559   4.198   2.698  0.2255  0.4764  0.1652
 3561TIP3   OH232097   4.640   1.315  14.701 -0.4630  0.0281 -0.4181
 3561TIP3    H132098   4.575   1.382  14.723  0.6404  0.1870  2.7876
 3561TIP3    H232099   4.721   1.346  14.740  0.8378 -1.6626 -1.6487
 3562TIP3   OH232100   2.465   0.590   3.712 -0.2924  0.0506 -0.8715
 3562TIP3    H132101   2.383   0.541   3.718 -0.6021  0.5109 -1.2468
 3562TIP3    H232102   2.459   0.635   3.628  1.2107 -1.4319 -1.8243
 3563TIP3   OH232103   4.294   0.782  11.233 -0.5955  0.4359  0.3964
 3563TIP3    H132104   4.341   0.825  11.162 -0.7499  0.7596  0.4867
 3563TIP3    H232105   4.274   0.694  11.200  1.4565 -0.2772  0.9346
 3564TIP3   OH232106   1.762   4.220   1.661  0.1049 -0.0308 -0.5331
 3564TIP3    H132107   1.693   4.171   1.615  2.2740 -3.7766 -0.1975
 3564TIP3    H232108   1.717   4.261   1.735 -2.1521 -0.0677 -1.7909
 3565TIP3   OH232109   2.634   5.536  14.506 -0.3027  0.2746 -0.1151
 3565TIP3    H132110   2.587   5.537  14.423 -0.6011  0.3303  0.0528
 3565TIP3    H232111   2.705   5.473  14.494  0.8576  1.6944 -1.0810
 3566TIP3   OH232112   5.725   0.301   1.819  0.5122 -0.0527 -0.3458
 3566TIP3    H132113   5.755   0.324   1.907  1.3768 -0.9652 -0.3864
 3566TIP3    H232114   5.669   0.374   1.793  0.1411  0.1705  1.0065
 3567TIP3   OH232115   1.819   6.331   4.889 -0.0489 -0.0235 -0.1039
 3567TIP3    H132116   1.871   6.404   4.922 -1.2783  0.2529  1.3420
 3567TIP3    H232117   1.824   6.338   4.794  1.4135  0.7863  0.0055
 3568TIP3   OH232118   3.028   6.695  17.260  0.0679  0.2001  0.1507
 3568TIP3    H132119   2.947   6.735  17.291  0.0607  1.9007 -1.8266
 3568TIP3    H232120   3.094   6.763  17.271  0.6128 -0.1323 -0.9513
 3569TIP3   OH232121   4.554   1.705  12.907 -0.2630  0.8661 -0.2720
 3569TIP3    H132122   4.586   1.748  12.828  1.9540  0.3242  0.2703
 3569TIP3    H232123   4.523   1.776  12.963  1.0385  1.5495 -0.3924
 3570TIP3   OH232124   4.181   3.789   3.398 -0.2915 -0.2319  0.1551
 3570TIP3    H132125   4.100   3.837   3.412 -0.1231 -0.3212  1.5558
 3570TIP3    H232126   4.178   3.717   3.461 -0.2716 -1.7625 -1.5014
 3571TIP3   OH232127   4.089   1.357   6.082  0.2450 -0.0036 -0.0659
 3571TIP3    H132128   4.055   1.436   6.041  0.0095 -0.0305  0.0791
 3571TIP3    H232129   4.170   1.339   6.035  0.3093  0.3351 -0.0894
 3572TIP3   OH232130   5.241   0.119  11.879  0.7362  0.1990 -0.1126
 3572TIP3    H132131   5.256   0.047  11.940  4.5101  0.2476 -0.6973
 3572TIP3    H232132   5.203   0.189  11.932 -1.1591 -1.5218  0.8866
 3573TIP3   OH232133   5.707   0.742   4.133  0.2860 -0.8995  0.0844
 3573TIP3    H132134   5.719   0.702   4.219 -2.1923  1.1399  1.5498
 3573TIP3    H232135   5.654   0.680   4.084 -0.9866 -0.7601  1.2357
 3574TIP3   OH232136   2.176   4.394   0.762  0.6920 -0.2764  0.1514
 3574TIP3    H132137   2.192   4.351   0.678 -1.2731 -0.7400 -0.0495
 3574TIP3    H232138   2.172   4.487   0.742  0.3097 -0.3808 -0.2771
 3575TIP3   OH232139   2.706   6.023  16.438  0.1231  0.2733 -0.5695
 3575TIP3    H132140   2.754   5.977  16.369  0.0525  0.5179 -0.7835
 3575TIP3    H232141   2.643   5.959  16.471 -2.0412  1.0367 -2.8733
 3576TIP3   OH232142   6.730   3.031   1.424 -0.1758 -0.3611 -0.2114
 3576TIP3    H132143   6.760   3.042   1.514  0.2189  1.6042 -0.5420
 3576TIP3    H232144   6.726   2.937   1.412  1.9742 -0.6915  1.1289
 3577TIP3   OH232145   4.798   5.756   0.804 -0.1687  0.1457  0.3938
 3577TIP3    H132146   4.760   5.669   0.815  0.7537 -0.4119 -0.6413
 3577TIP3    H232147   4.779   5.780   0.714  2.3619 -0.4093 -0.3720
 3578TIP3   OH232148   4.505   0.782   0.007  0.1312  0.0601  0.0850
 3578TIP3    H132149   4.423   0.792  -0.041  1.6140 -0.3905 -2.7449
 3578TIP3    H232150   4.570   0.831  -0.044  2.1384 -1.6848  0.8038
 3579TIP3   OH232151   5.530   3.472  15.901  0.0469 -0.1854 -0.1416
 3579TIP3    H132152   5.477   3.394  15.886 -1.8160  1.0497 -0.2709
 3579TIP3    H232153   5.593   3.473  15.829 -2.0472  0.1440 -2.0816
 3580TIP3   OH232154   0.939   1.785  12.719  0.9871  0.0038 -0.0063
 3580TIP3    H132155   0.997   1.749  12.652  1.0364  0.5885 -0.2881
 3580TIP3    H232156   0.973   1.752  12.802  1.8584  0.5199 -0.1534
 3581TIP3   OH232157   0.939   0.279   3.963 -0.3719 -0.0730  0.6691
 3581TIP3    H132158   0.888   0.333   4.022 -1.4355  0.3901 -0.6196
 3581TIP3    H232159   1.012   0.246   4.016 -1.2107  0.4256  2.1624
 3582TIP3   OH232160   2.887   1.774   3.706  0.2585  0.0598 -0.3802
 3582TIP3    H132161   2.899   1.847   3.645 -0.1532 -1.4471 -2.3937
 3582TIP3    H232162   2.837   1.710   3.655 -1.6737 -0.6066  2.1523
 3583TIP3   OH232163   3.499   1.939   5.348  0.4175  0.1806  0.1107
 3583TIP3    H132164   3.481   1.942   5.442  0.6600 -1.2307  0.2288
 3583TIP3    H232165   3.413   1.934   5.307  0.3318 -0.4872  0.3466
 3584TIP3   OH232166   4.622   4.281   3.282  0.6954 -0.5296  0.0799
 3584TIP3    H132167   4.674   4.202   3.272 -0.4913 -1.1488 -1.9395
 3584TIP3    H232168   4.540   4.252   3.321 -0.0284 -0.4937 -1.3198
 3585TIP3   OH232169   1.367   3.439  11.989 -0.2294 -0.2397  0.0916
 3585TIP3    H132170   1.369   3.356  11.941 -0.6818  0.6043 -1.4338
 3585TIP3    H232171   1.382   3.506  11.922 -0.5656  0.9602  1.1865
 3586TIP3   OH232172   2.212   4.338   1.189  0.5565 -0.1371  0.2921
 3586TIP3    H132173   2.139   4.278   1.205  1.3871 -0.9308  1.2079
 3586TIP3    H232174   2.212   4.396   1.266  1.2902 -0.5612  0.6162
 3587TIP3   OH232175   1.487   1.042   3.503 -0.0230  0.1901  0.0878
 3587TIP3    H132176   1.576   1.074   3.489  0.0870  0.9521  2.2771
 3587TIP3    H232177   1.446   1.048   3.416  1.0060  3.1410 -0.2893
 3588TIP3   OH232178   0.868   1.120   4.111  0.1647 -0.2520  0.5540
 3588TIP3    H132179   0.844   1.212   4.098 -0.6259  0.3087  4.6424
 3588TIP3    H232180   0.800   1.071   4.064  2.6558  0.8878 -5.0375
 3589TIP3   OH232181   3.899   5.626  16.907 -0.0910  0.1123  0.4093
 3589TIP3    H132182   3.819   5.595  16.948  0.5102  0.5041  1.9394
 3589TIP3    H232183   3.896   5.721  16.915  1.3426  0.0753  2.2042
 3590TIP3   OH232184   2.973   4.202   1.633  0.6955 -0.4643 -0.2448
 3590TIP3    H132185   3.043   4.232   1.575  1.0576 -2.5389 -0.9599
 3590TIP3    H232186   2.987   4.108   1.640 -0.1068 -0.4640  2.2226
 3591TIP3   OH232187   2.512   2.311  17.022 -0.2817 -0.4035 -0.0691
 3591TIP3    H132188   2.523   2.237  17.082 -0.2425 -1.4739 -1.3477
 3591TIP3    H232189   2.557   2.283  16.942  0.4043  1.3365 -0.3247
 3592TIP3   OH232190   3.205   0.739  12.334  0.3538  0.1211  0.1665
 3592TIP3    H132191   3.288   0.692  12.329  0.4936  0.4793 -2.0284
 3592TIP3    H232192   3.229   0.831  12.335  0.0044  0.2104  0.5648
 3593TIP3   OH232193   3.139   4.354   6.043  0.1755 -0.1835 -0.1310
 3593TIP3    H132194   3.168   4.348   6.134 -1.8963  3.6512  1.0121
 3593TIP3    H232195   3.048   4.323   6.045  0.0979 -0.0258 -0.8963
 3594TIP3   OH232196   0.160   2.833   3.277  0.3818 -0.2836 -0.1299
 3594TIP3    H132197   0.115   2.856   3.195  0.7477 -0.2999 -0.3376
 3594TIP3    H232198   0.183   2.741   3.266 -1.2475 -0.8368  0.7750
 3595TIP3   OH232199   0.158   3.187  14.577 -0.0099 -0.1092  0.3255
 3595TIP3    H132200   0.252   3.175  14.577  0.0481 -0.2195 -2.2003
 3595TIP3    H232201   0.132   3.179  14.669  1.9976 -3.4802  0.7759
 3596TIP3   OH232202   4.198   1.133   5.438 -0.0740  0.5024  0.4115
 3596TIP3    H132203   4.197   1.046   5.479  1.9155 -0.0622 -0.5622
 3596TIP3    H232204   4.194   1.194   5.512  2.6181 -0.4691  1.5209
 3597TIP3   OH232205   4.341   5.006  14.636  0.1921 -0.0453  0.1991
 3597TIP3    H132206   4.364   5.099  14.630 -0.7211  0.1312 -1.1658
 3597TIP3    H232207   4.416   4.960  14.598  0.7238  0.1014  1.0407
 3598TIP3   OH232208   1.689   3.279  12.739 -0.1877 -0.0903  0.6172
 3598TIP3    H132209   1.684   3.329  12.658  0.5526  0.2623  0.7732
 3598TIP3    H232210   1.636   3.328  12.801  1.3708  1.1140  1.0586
 3599TIP3   OH232211   5.988   0.549   4.836 -0.2266 -0.6188  0.0833
 3599TIP3    H132212   5.944   0.623   4.878  0.4410  0.4712 -1.0706
 3599TIP3    H232213   6.071   0.541   4.884  0.2025  0.1418 -0.4963
 3600TIP3   OH232214   2.430   0.708   0.848  0.2529  0.4972 -0.0595
 3600TIP3    H132215   2.423   0.779   0.912 -1.6346  0.2890  0.0074
 3600TIP3    H232216   2.349   0.713   0.796  1.2901  0.0493 -1.8158
 3601TIP3   OH232217   1.642   1.494   5.083 -0.3406  0.0595  0.5443
 3601TIP3    H132218   1.636   1.544   5.164 -3.2631  1.5310 -0.4638
 3601TIP3    H232219   1.559   1.508   5.039  1.1054 -0.6812 -2.7563
 3602TIP3   OH232220   3.824   3.064   4.967 -0.4452  0.9552 -0.1039
 3602TIP3    H132221   3.779   3.091   5.048  0.4652  1.5115  0.2350
 3602TIP3    H232222   3.836   2.970   4.976  0.1008  1.0824  0.6651
 3603TIP3   OH232223   3.238   4.480   3.485  0.2111  0.1582 -0.3001
 3603TIP3    H132224   3.298   4.528   3.427  0.0208  0.7803  0.0012
 3603TIP3    H232225   3.245   4.526   3.568 -0.0076 -0.3290 -0.0137
 3604TIP3   OH232226   3.642   6.583   4.130 -0.6166 -0.6152  0.0469
 3604TIP3    H132227   3.593   6.652   4.176 -2.7517 -2.3162  0.5138
 3604TIP3    H232228   3.713   6.561   4.189 -1.6587 -0.8067  1.2803
 3605TIP3   OH232229   5.724   3.362  15.643  0.8712  0.4577  0.5280
 3605TIP3    H132230   5.743   3.455  15.630  1.7365  0.4669  1.6671
 3605TIP3    H232231   5.811   3.321  15.652  0.6224 -0.8498 -2.1817
 3606TIP3   OH232232   5.515   2.386   1.159 -0.1638  0.1242  0.1956
 3606TIP3    H132233   5.586   2.351   1.212  0.0639 -0.3942 -0.4368
 3606TIP3    H232234   5.468   2.309   1.127 -0.7156  0.4489  0.2035
 3607TIP3   OH232235   3.557   4.016  13.870  0.1379 -0.1732  0.1865
 3607TIP3    H132236   3.574   3.948  13.804 -0.4375  0.1205 -0.2813
 3607TIP3    H232237   3.599   4.094  13.835 -0.0642 -0.0465  0.2235
 3608TIP3   OH232238   6.573   4.142   1.312 -0.0826 -0.0319  0.7292
 3608TIP3    H132239   6.566   4.058   1.359 -1.3085 -0.3607 -0.0172
 3608TIP3    H232240   6.493   4.148   1.260 -0.1528  1.7529  0.9772
 3609TIP3   OH232241   3.949   3.703  13.714  0.2033 -0.2224 -0.0972
 3609TIP3    H132242   3.992   3.686  13.630  1.8045 -0.2476  0.6943
 3609TIP3    H232243   4.012   3.754  13.764 -0.4609 -0.7310  1.3223
 3610TIP3   OH232244   1.328   0.181  14.240  0.1649  0.5575  0.5830
 3610TIP3    H132245   1.382   0.210  14.167 -0.0352  2.2054  1.0439
 3610TIP3    H232246   1.391   0.160  14.309  0.2744  2.0572  0.9736
 3611TIP3   OH232247   0.023   2.811  10.933  0.7746  0.1496  0.0137
 3611TIP3    H132248   0.081   2.750  10.978  0.7047 -0.6545 -0.9363
 3611TIP3    H232249   0.023   2.890  10.987  3.0178  0.2995 -0.1379
 3612TIP3   OH232250   5.814   4.895  13.479  0.4474  0.9088 -1.3123
 3612TIP3    H132251   5.780   4.862  13.562  0.6327  1.2159 -1.1111
 3612TIP3    H232252   5.798   4.990  13.482  0.7984  0.9758 -1.4607
 3613TIP3   OH232253   2.702   5.604   2.778 -0.3518 -0.1505 -0.5580
 3613TIP3    H132254   2.613   5.568   2.778 -1.0686  1.3223  1.9846
 3613TIP3    H232255   2.692   5.695   2.751  0.4829 -0.1383 -0.8706
 3614TIP3   OH232256   4.804   3.861   3.440  0.4051  1.0655 -0.0391
 3614TIP3    H132257   4.827   3.797   3.373 -1.1490  1.6617 -1.2038
 3614TIP3    H232258   4.828   3.945   3.402 -2.9931  1.6806 -1.1286
 3615TIP3   OH232259   2.044   1.500  12.324 -0.4138  0.3469  0.1896
 3615TIP3    H132260   2.102   1.477  12.252 -0.3953  0.3954  0.1892
 3615TIP3    H232261   2.101   1.541  12.389 -0.2495 -0.6596  0.6888
 3616TIP3   OH232262   1.813   4.580   4.819  0.0001  0.2488 -0.4389
 3616TIP3    H132263   1.721   4.567   4.796  0.2090 -0.8188 -0.7281
 3616TIP3    H232264   1.849   4.631   4.746 -0.3613  0.6964 -0.3106
 3617TIP3   OH232265   5.292   1.929   4.834  0.3559  0.0935  0.0371
 3617TIP3    H132266   5.341   1.859   4.790  0.4208  0.6219 -0.7461
 3617TIP3    H232267   5.349   1.958   4.905  0.9663  0.3515 -0.5460
 3618TIP3   OH232268   4.627   6.246  16.341  0.4505  0.2694 -0.5856
 3618TIP3    H132269   4.697   6.295  16.382  0.3338 -0.1006  0.0656
 3618TIP3    H232270   4.574   6.312  16.296  1.1452  0.5605 -0.9982
 3619TIP3   OH232271   5.747   4.031   3.621 -0.5144  0.3237  0.0989
 3619TIP3    H132272   5.744   3.970   3.547 -1.0716  0.6420 -0.1427
 3619TIP3    H232273   5.832   4.074   3.613  0.3726 -1.1879  0.9001
 3620TIP3   OH232274   3.826   1.110  15.522 -0.3205  0.3910  0.7869
 3620TIP3    H132275   3.908   1.060  15.520 -0.5334 -0.0893  2.7114
 3620TIP3    H232276   3.834   1.169  15.447  0.8580 -1.0535 -0.3130
 3621TIP3   OH232277   2.327   0.303   5.403  0.0565 -0.4633  0.2365
 3621TIP3    H132278   2.265   0.374   5.385 -0.0492 -0.7990 -0.7682
 3621TIP3    H232279   2.304   0.273   5.490 -0.9625 -0.3380  0.0185
 3622TIP3   OH232280   1.163   5.863  16.026  0.6790 -0.7103 -0.4490
 3622TIP3    H132281   1.258   5.857  16.038  0.6515 -0.8837 -0.3191
 3622TIP3    H232282   1.136   5.775  16.002  0.6684 -0.4685 -1.3431
 3623TIP3   OH232283   5.627   5.905  15.875  0.3019  0.1890  0.3611
 3623TIP3    H132284   5.547   5.932  15.831 -1.2377 -4.0731  0.0543
 3623TIP3    H232285   5.693   5.902  15.805  0.1294  1.5085  0.1299
 3624TIP3   OH232286   3.655   5.780   1.251  0.0270 -0.0969  0.8666
 3624TIP3    H132287   3.664   5.860   1.199 -1.0658 -0.7076 -0.3332
 3624TIP3    H232288   3.744   5.759   1.280  1.2665 -1.2320 -3.1304
 3625TIP3   OH232289   4.297   1.485   6.345 -0.1739  0.1986  0.5461
 3625TIP3    H132290   4.333   1.500   6.433 -0.7930 -0.2248  0.8816
 3625TIP3    H232291   4.205   1.464   6.361 -0.0526 -0.8964 -0.1218
 3626TIP3   OH232292   3.705   2.107  16.352 -0.3593  0.6666 -0.4049
 3626TIP3    H132293   3.626   2.160  16.360  0.7538  2.2131  1.5622
 3626TIP3    H232294   3.719   2.072  16.440  0.7769 -0.1289 -0.8785
 3627TIP3   OH232295   2.953   1.129  14.186 -0.6455 -0.0425 -0.2946
 3627TIP3    H132296   3.024   1.064  14.190  0.3475  0.9844 -0.5575
 3627TIP3    H232297   2.873   1.077  14.187  0.1106 -1.2537 -0.1477
 3628TIP3   OH232298   0.468   6.094   0.565 -0.2453  0.4796  0.4849
 3628TIP3    H132299   0.410   6.037   0.515  1.2785 -0.2796 -0.4580
 3628TIP3    H232300   0.433   6.091   0.655 -2.0927  0.6506 -0.1814
 3629TIP3   OH232301   0.585   4.307   5.262  0.7121 -0.1679  0.4050
 3629TIP3    H132302   0.663   4.354   5.233  1.3613 -0.2188  2.0171
 3629TIP3    H232303   0.512   4.361   5.231  1.4350  1.8893  2.1080
 3630TIP3   OH232304   2.781   3.268   3.238 -0.1332 -1.0072 -0.3405
 3630TIP3    H132305   2.751   3.180   3.216 -2.2613 -0.2154 -0.8018
 3630TIP3    H232306   2.729   3.326   3.183  1.6275  0.5467 -0.4641
 3631TIP3   OH232307   3.827   6.261   5.677 -0.3993 -0.5217 -0.0299
 3631TIP3    H132308   3.793   6.325   5.615  1.6798  0.0950 -0.6389
 3631TIP3    H232309   3.918   6.287   5.691  0.2394 -2.7615  0.4852
 3632TIP3   OH232310   6.047   4.375   0.252  0.2310 -0.2526 -0.2274
 3632TIP3    H132311   6.074   4.431   0.179  0.2877  0.1181  0.0769
 3632TIP3    H232312   5.969   4.418   0.288 -1.5396 -1.9333 -1.8381
 3633TIP3   OH232313   0.202   4.795  17.031  0.8244 -0.3828 -0.3306
 3633TIP3    H132314   0.292   4.769  17.049  0.9625 -1.5394 -2.4465
 3633TIP3    H232315   0.149   4.740  17.089  1.4163 -0.1488  0.4564
 3634TIP3   OH232316   2.738   4.345   5.658 -0.0181 -0.0457 -0.5147
 3634TIP3    H132317   2.821   4.370   5.699 -0.5789 -2.0611  2.0388
 3634TIP3    H232318   2.764   4.299   5.578  1.3637 -0.7260  0.2899
 3635TIP3   OH232319   3.824   6.388   4.534 -0.2744 -0.0506 -0.4259
 3635TIP3    H132320   3.787   6.433   4.610  2.6989 -1.9681  2.3856
 3635TIP3    H232321   3.752   6.333   4.503 -1.4702  0.4658  1.2417
 3636TIP3   OH232322   1.641   5.518   4.368  0.6741  0.4033 -0.1698
 3636TIP3    H132323   1.735   5.512   4.352  0.8975 -1.6291  1.4897
 3636TIP3    H232324   1.601   5.507   4.282  1.9407 -0.1275 -0.7138
 3637TIP3   OH232325   2.931   3.442  16.844 -0.0783  0.2778 -0.0526
 3637TIP3    H132326   2.917   3.348  16.853 -1.0197  0.3438 -0.6971
 3637TIP3    H232327   2.995   3.450  16.772  1.7742  0.0687  1.4804
 3638TIP3   OH232328   2.616   4.900  15.188  0.3394  0.0712  0.0767
 3638TIP3    H132329   2.634   4.838  15.117 -3.2196 -1.0347 -0.0855
 3638TIP3    H232330   2.618   4.986  15.146  0.9383 -0.3315 -0.7364
 3639TIP3   OH232331   2.154   5.520   0.126 -0.6002 -0.0991 -0.5752
 3639TIP3    H132332   2.115   5.474   0.052 -0.6007 -0.8386 -0.1269
 3639TIP3    H232333   2.182   5.604   0.090 -2.0407  0.2129 -1.0584
 3640TIP3   OH232334   5.517   5.263  12.089 -0.5983  0.4901 -0.0765
 3640TIP3    H132335   5.513   5.350  12.128  0.5285 -0.1298  1.5249
 3640TIP3    H232336   5.584   5.270  12.021 -2.7179  1.6315 -2.2059
 3641TIP3   OH232337   6.191   1.596  17.227 -0.3361 -0.2057 -0.0301
 3641TIP3    H132338   6.220   1.607  17.137 -0.4465 -2.1328 -0.3444
 3641TIP3    H232339   6.179   1.685  17.260  1.4670  0.5828 -1.3223
 3642TIP3   OH232340   1.256   1.775  16.317 -0.2042  0.3861 -0.0039
 3642TIP3    H132341   1.276   1.688  16.282  1.5096  0.1980  1.2733
 3642TIP3    H232342   1.294   1.835  16.253 -1.0201  0.2056 -0.6768
 3643TIP3   OH232343   2.742   5.695   2.181  0.3345  0.2520  0.4832
 3643TIP3    H132344   2.797   5.773   2.182  0.2913  0.2899  0.0589
 3643TIP3    H232345   2.686   5.706   2.104  0.5487 -0.3506  0.2387
 3644TIP3   OH232346   1.262   1.016  14.284 -0.3108  0.3382 -0.0133
 3644TIP3    H132347   1.258   0.926  14.316  0.4432  0.8092  1.5416
 3644TIP3    H232348   1.356   1.036  14.279 -0.4633  0.9356 -0.6364
 3645TIP3   OH232349   0.268   2.989   1.078  0.4119  0.5954 -0.1554
 3645TIP3    H132350   0.174   3.008   1.080  0.0436 -0.8257 -1.6105
 3645TIP3    H232351   0.306   3.051   1.140 -1.7527 -0.3228  2.2658
 3646TIP3   OH232352   4.588   3.374   0.365  0.1855  0.2307  0.0044
 3646TIP3    H132353   4.590   3.304   0.430  1.4575 -0.3794 -0.6488
 3646TIP3    H232354   4.584   3.329   0.281 -1.7731  1.0154 -0.3709
 3647TIP3   OH232355   3.529   4.683   5.155 -0.0811 -0.2799  0.3360
 3647TIP3    H132356   3.551   4.631   5.232 -0.5621 -0.3018  0.4638
 3647TIP3    H232357   3.470   4.627   5.104  0.2922 -0.2924 -0.0822
 3648TIP3   OH232358   1.757   5.127  12.385 -0.2214  0.2651 -0.4763
 3648TIP3    H132359   1.677   5.175  12.408  1.4123  1.5405  3.4630
 3648TIP3    H232360   1.827   5.192  12.392  1.3825 -1.1497 -2.2744
 3649TIP3   OH232361   6.688   2.435  12.266 -0.7661 -0.0014 -0.1165
 3649TIP3    H132362   6.658   2.415  12.177  0.0644 -0.0247 -0.3938
 3649TIP3    H232363   6.631   2.383  12.323 -1.1868 -0.1218 -0.6421
 3650TIP3   OH232364   5.002   0.815  14.882  0.5335 -0.2010 -0.2846
 3650TIP3    H132365   4.992   0.911  14.879  0.4394 -0.2371 -2.5671
 3650TIP3    H232366   4.987   0.793  14.974  0.6010  1.9769  0.3158
 3651TIP3   OH232367   2.108   3.233  12.896 -1.3339 -0.1261  0.3086
 3651TIP3    H132368   2.121   3.327  12.909 -0.6157 -0.3326  1.2351
 3651TIP3    H232369   2.156   3.213  12.815 -0.4057  0.0896  0.7968
 3652TIP3   OH232370   0.070   1.262   5.178  0.2601 -0.3936  0.1313
 3652TIP3    H132371   0.056   1.343   5.227  1.1385 -0.0971 -0.0982
 3652TIP3    H232372   0.056   1.287   5.086 -0.2363 -0.6891  0.1181
 3653TIP3   OH232373   5.913   2.693  16.357  0.1216 -0.2053 -0.4732
 3653TIP3    H132374   5.982   2.640  16.316 -1.8293 -0.7217 -3.3567
 3653TIP3    H232375   5.884   2.753  16.289 -0.9612  1.3957  1.2914
 3654TIP3   OH232376   1.629   3.852   4.360 -0.0620 -0.7273  0.5590
 3654TIP3    H132377   1.608   3.778   4.416 -0.0729 -0.7758  0.4910
 3654TIP3    H232378   1.696   3.901   4.408 -0.6914 -0.2986  1.0037
 3655TIP3   OH232379   6.084   3.174  16.717  0.5139 -0.0702  0.0448
 3655TIP3    H132380   6.120   3.094  16.681 -1.2574 -1.0443  0.3188
 3655TIP3    H232381   6.066   3.229  16.641 -1.3752 -1.3250 -0.5019
 3656TIP3   OH232382   6.165   0.581   1.295 -0.3156 -0.1202 -0.1813
 3656TIP3    H132383   6.097   0.645   1.315 -1.1386 -0.6668 -1.1570
 3656TIP3    H232384   6.241   0.634   1.272 -0.6048  0.4991  0.2422
 3657TIP3   OH232385   0.313   0.416   3.584 -0.2530  0.3282 -0.5210
 3657TIP3    H132386   0.372   0.376   3.648 -1.3041  0.2284  0.4237
 3657TIP3    H232387   0.362   0.414   3.502  0.4012 -1.3348 -0.1431
 3658TIP3   OH232388   0.742   1.326  16.069 -0.7349 -0.1880 -0.0605
 3658TIP3    H132389   0.655   1.367  16.072 -0.4403  0.4824 -0.5755
 3658TIP3    H232390   0.732   1.253  16.008 -1.0051 -0.2992  0.1105
 3659TIP3   OH232391   1.964   5.040  16.329  0.1538 -0.5203  0.1128
 3659TIP3    H132392   1.923   5.014  16.246  0.9963 -1.3681 -0.0431
 3659TIP3    H232393   1.930   4.978  16.393  1.4569 -1.4796 -0.0885
 3660TIP3   OH232394   3.833   3.718   0.925 -0.6476  0.4902  0.5509
 3660TIP3    H132395   3.909   3.740   0.978 -0.9216  0.5966  0.9069
 3660TIP3    H232396   3.811   3.799   0.880  0.8318 -0.1001 -1.3594
 3661TIP3   OH232397   1.740   6.414   0.972 -0.2156  0.0246 -0.5555
 3661TIP3    H132398   1.741   6.414   0.876 -3.3922 -0.3097 -0.7002
 3661TIP3    H232399   1.659   6.460   0.994  0.8844  0.8828  2.0361
 3662TIP3   OH232400   0.578   6.112   4.143 -0.3343 -0.4541  0.0720
 3662TIP3    H132401   0.641   6.141   4.077 -2.0806  0.7321 -1.1731
 3662TIP3    H232402   0.508   6.071   4.092 -1.0280 -0.8477  1.3120
 3663TIP3   OH232403   5.925   0.376   2.340  0.1753 -0.6275  0.4960
 3663TIP3    H132404   5.844   0.337   2.307  0.2287 -1.6367  1.5207
 3663TIP3    H232405   5.912   0.381   2.435  0.6811  0.7038  0.5205
 3664TIP3   OH232406   4.426   2.401   1.585  0.0227 -1.0503  0.3152
 3664TIP3    H132407   4.386   2.452   1.515 -1.7124 -1.7312  0.7596
 3664TIP3    H232408   4.413   2.455   1.664  1.9038 -0.3158  0.1723
 3665TIP3   OH232409   5.160   2.422   5.087 -0.1375  0.2665  0.1141
 3665TIP3    H132410   5.144   2.489   5.021 -3.2124 -0.3811  0.0565
 3665TIP3    H232411   5.088   2.359   5.076  2.6348 -3.2140  0.0399
 3666TIP3   OH232412   1.494   2.804   5.740 -0.3855  0.0095  0.0612
 3666TIP3    H132413   1.426   2.802   5.673 -1.2910 -0.3260  0.9541
 3666TIP3    H232414   1.575   2.782   5.694 -1.0894 -0.8652 -0.8016
 3667TIP3   OH232415   4.039   5.128  11.347 -0.8599  0.2577 -0.4056
 3667TIP3    H132416   3.965   5.185  11.367 -0.8362 -0.1301  0.8997
 3667TIP3    H232417   4.048   5.132  11.252 -0.5240  2.8351 -0.3375
 3668TIP3   OH232418   6.334   2.541   2.263 -0.2465 -0.5038  0.3832
 3668TIP3    H132419   6.336   2.447   2.248  0.7080 -0.4967  0.4487
 3668TIP3    H232420   6.319   2.579   2.176  0.0629 -0.6875  0.2496
 3669TIP3   OH232421   0.393   6.456   0.746  0.7388 -0.0057 -0.7575
 3669TIP3    H132422   0.464   6.464   0.809 -0.9759 -0.8006  1.4259
 3669TIP3    H232423   0.430   6.406   0.673  2.1673 -1.2903  0.7695
 3670TIP3   OH232424   3.860   3.222   4.715 -0.3509  0.1630 -0.6809
 3670TIP3    H132425   3.847   3.162   4.788 -0.7753  1.5633  0.4342
 3670TIP3    H232426   3.954   3.239   4.714 -0.6395  2.7588  1.8105
 3671TIP3   OH232427   4.080   2.140   0.392 -0.2713 -0.0292 -0.3420
 3671TIP3    H132428   4.032   2.126   0.310  2.0038  0.5094 -1.8747
 3671TIP3    H232429   4.172   2.124   0.368  0.7837  2.7698  1.4092
 3672TIP3   OH232430   3.455   0.115  15.887  0.0849 -0.0907 -0.0898
 3672TIP3    H132431   3.435   0.207  15.869 -1.2380 -0.2954  0.1971
 3672TIP3    H232432   3.374   0.080  15.924  0.3391 -1.5550 -0.8526
 3673TIP3   OH232433   0.994   5.268   2.599  0.5286  0.7660 -0.3796
 3673TIP3    H132434   0.955   5.355   2.608 -2.1194 -0.3685  0.1330
 3673TIP3    H232435   0.966   5.220   2.677 -0.4214 -1.3320 -1.9106
 3674TIP3   OH232436   0.275   3.966  13.843  0.3622 -0.0770  0.5594
 3674TIP3    H132437   0.244   3.878  13.820 -0.0849 -0.0202  0.9245
 3674TIP3    H232438   0.287   4.010  13.759  0.2651 -0.3780  0.3868
 3675TIP3   OH232439   2.070   2.067   0.158  0.2805 -0.3495 -0.2195
 3675TIP3    H132440   2.112   2.014   0.089 -1.0560 -1.3817 -0.2796
 3675TIP3    H232441   2.090   2.158   0.133  0.2491 -0.7122 -1.6956
 3676TIP3   OH232442   3.074   3.771   5.042 -0.8648  0.5108  0.3651
 3676TIP3    H132443   3.085   3.691   4.991  3.4982  0.7795  0.5210
 3676TIP3    H232444   3.055   3.741   5.131  1.6392 -0.5021  0.6243
 3677TIP3   OH232445   1.332   0.880  12.197 -0.1631 -0.0557 -0.0611
 3677TIP3    H132446   1.351   0.829  12.275 -0.3282  0.6508  0.4538
 3677TIP3    H232447   1.265   0.942  12.225 -1.0430 -0.5241 -1.0603
 3678TIP3   OH232448   0.451   6.744   1.769  0.2234 -0.1872  0.0188
 3678TIP3    H132449   0.373   6.788   1.800  1.6133  2.0772  0.4967
 3678TIP3    H232450   0.445   6.748   1.673  0.7468  2.0080  0.0197
 3679TIP3   OH232451   3.349   4.504   5.009 -0.4199  0.1312  0.0038
 3679TIP3    H132452   3.393   4.422   5.034 -2.3899 -0.9070  0.2765
 3679TIP3    H232453   3.274   4.475   4.957 -0.6679  1.8484 -0.6524
 3680TIP3   OH232454   5.909   1.996   4.167 -0.7215  0.5462  0.1570
 3680TIP3    H132455   5.823   1.965   4.139 -0.5200 -0.8848  1.0196
 3680TIP3    H232456   5.891   2.074   4.218 -1.7015 -0.6575  1.7386
 3681TIP3   OH232457   4.964   6.126  11.446 -1.0106 -0.3359 -0.7227
 3681TIP3    H132458   5.049   6.099  11.412  0.3213 -1.6804  3.1535
 3681TIP3    H232459   4.922   6.044  11.473 -1.2840  0.6000  1.9759
 3682TIP3   OH232460   3.919   0.708  16.201  0.0805  0.2987 -0.0117
 3682TIP3    H132461   3.997   0.659  16.227  0.0961 -0.0194 -0.6454
 3682TIP3    H232462   3.952   0.791  16.167  0.0534  0.7779  1.0760
 3683TIP3   OH232463   1.748   0.041  14.418  0.1301 -0.2838  0.1646
 3683TIP3    H132464   1.790  -0.007  14.489  1.4304 -2.6526 -2.0353
 3683TIP3    H232465   1.765  -0.012  14.340 -1.8828  1.7661 -1.8220
 3684TIP3   OH232466   6.208   2.566   6.447 -0.2500  0.1540  0.4443
 3684TIP3    H132467   6.132   2.612   6.411 -0.0683  0.2751  0.2106
 3684TIP3    H232468   6.244   2.519   6.371 -0.1306  0.0435  0.5705
 3685TIP3   OH232469   3.243   1.139  13.810  0.0579  0.2486 -1.1074
 3685TIP3    H132470   3.294   1.211  13.773  0.7715 -0.6415 -1.9370
 3685TIP3    H232471   3.236   1.076  13.738  0.6338 -1.0988 -0.0351
 3686TIP3   OH232472   4.872   3.660   4.012 -0.6324  0.0301 -0.3361
 3686TIP3    H132473   4.832   3.734   3.966  1.0410  1.4101  0.3565
 3686TIP3    H232474   4.801   3.596   4.020 -1.4800  0.4656 -3.1900
 3687TIP3   OH232475   5.403   2.358  17.120  0.8249 -0.7744 -0.3443
 3687TIP3    H132476   5.332   2.422  17.112  1.2669 -0.3255 -0.7610
 3687TIP3    H232477   5.440   2.373  17.207  0.3804 -1.0450 -0.1057
 3688TIP3   OH232478   4.506   4.082   1.511 -0.1145  0.4485  0.1042
 3688TIP3    H132479   4.494   4.082   1.416  3.5934  1.2083 -0.5403
 3688TIP3    H232480   4.486   4.172   1.537 -2.0729  0.0004  0.2667
 3689TIP3   OH232481   1.522   4.658  17.026  0.1768  0.7620 -0.4974
 3689TIP3    H132482   1.567   4.579  16.996  0.3299 -0.0140  1.6224
 3689TIP3    H232483   1.432   4.630  17.042 -0.2532  1.4992 -1.5213
 3690TIP3   OH232484   5.913   0.697   0.913  0.3314  0.3390 -0.1483
 3690TIP3    H132485   5.989   0.640   0.898 -0.7903 -1.2913  0.0524
 3690TIP3    H232486   5.867   0.698   0.829 -0.3735 -0.1825  0.2188
 3691TIP3   OH232487   2.519   1.369  13.060 -0.1655 -0.0389 -0.1033
 3691TIP3    H132488   2.550   1.445  13.012  1.6604 -0.7974 -0.2096
 3691TIP3    H232489   2.490   1.403  13.144 -0.3185  0.8791 -0.5196
 3692TIP3   OH232490   5.251   6.264  12.841  0.5575  0.3397 -0.4453
 3692TIP3    H132491   5.299   6.207  12.781  3.5968  0.1188  1.9662
 3692TIP3    H232492   5.300   6.260  12.923 -3.0171  1.0911  1.9588
 3693TIP3   OH232493   6.037   4.511  12.428 -0.2122  0.4133 -0.0782
 3693TIP3    H132494   5.968   4.529  12.492  0.7814  0.4493  1.0286
 3693TIP3    H232495   6.058   4.418  12.440 -0.5632  0.2235 -0.9131
 3694TIP3   OH232496   5.493   5.595   6.287 -0.3678  0.0002  0.0131
 3694TIP3    H132497   5.455   5.537   6.221  1.2158  0.3730 -1.2670
 3694TIP3    H232498   5.426   5.663   6.299 -0.6479 -0.0211 -1.2795
 3695TIP3   OH232499   0.074   2.834  12.571  0.2964  0.5134  0.5944
 3695TIP3    H132500   0.020   2.765  12.532  0.6884  0.7292 -0.3621
 3695TIP3    H232501   0.134   2.860  12.500  1.1495  0.7960  1.4055
 3696TIP3   OH232502   0.646   3.921  14.511 -0.4839 -0.2418 -0.5495
 3696TIP3    H132503   0.602   3.837  14.520 -0.3618 -0.1933  0.6631
 3696TIP3    H232504   0.738   3.903  14.533 -0.6776  0.4104  0.9159
 3697TIP3   OH232505   2.054   4.160  16.698  0.5148  0.0844 -0.1739
 3697TIP3    H132506   2.070   4.237  16.753  0.2555  0.8996 -1.2087
 3697TIP3    H232507   1.986   4.111  16.744  1.5781 -0.2112  1.1471
 3698TIP3   OH232508   4.854   5.251  12.654 -0.0865 -0.3538 -0.3549
 3698TIP3    H132509   4.775   5.299  12.682 -0.6146 -0.9430 -0.7899
 3698TIP3    H232510   4.820   5.182  12.596  0.8260 -0.0638 -1.2685
 3699TIP3   OH232511   6.080   4.329   3.894 -0.3710  0.0930  0.0977
 3699TIP3    H132512   6.112   4.291   3.976  1.4986 -0.3662 -0.7901
 3699TIP3    H232513   5.986   4.312   3.895 -0.6580  1.3684  2.7710
 3700TIP3   OH232514   2.236   6.626  13.338 -0.4091  0.1354  0.0265
 3700TIP3    H132515   2.298   6.693  13.308 -1.8607  0.2763 -3.1169
 3700TIP3    H232516   2.272   6.544  13.306 -2.8989  0.4602 -4.4338
 3701TIP3   OH232517   5.665   3.134  13.530  0.0497  0.2625  0.2535
 3701TIP3    H132518   5.651   3.218  13.575  2.2122  1.1426 -0.6174
 3701TIP3    H232519   5.683   3.158  13.439  0.0910 -1.2067 -0.1532
 3702TIP3   OH232520   2.470   2.265  10.530  0.4097 -0.6271  0.7053
 3702TIP3    H132521   2.406   2.275  10.601  0.4592  1.0221  0.5509
 3702TIP3    H232522   2.441   2.188  10.482 -0.8671 -0.5062  1.2536
 3703TIP3   OH232523   5.618   4.573  12.550 -0.5094  0.2228  0.1840
 3703TIP3    H132524   5.709   4.581  12.576 -0.5968  1.7647  0.1103
 3703TIP3    H232525   5.620   4.562  12.455 -0.4214  1.0693  0.0836
 3704TIP3   OH232526   4.151   0.835   0.424 -0.4626  0.2474  0.2492
 3704TIP3    H132527   4.103   0.846   0.506  1.6371 -0.0981  1.5976
 3704TIP3    H232528   4.179   0.923   0.400  0.1172  0.1760  0.6654
 3705TIP3   OH232529   3.532   2.604   3.952  0.2495  0.7853 -0.6336
 3705TIP3    H132530   3.558   2.694   3.930  0.6961  0.8244  0.0537
 3705TIP3    H232531   3.504   2.609   4.043  0.8870  0.0997 -0.3949
 3706TIP3   OH232532   4.559   2.475   3.502  0.3175 -0.0037 -0.6280
 3706TIP3    H132533   4.651   2.453   3.514  0.5034  1.4691  1.0333
 3706TIP3    H232534   4.558   2.531   3.424  1.1500  1.5495  0.4219
 3707TIP3   OH232535   2.191   2.912  12.114 -0.3556  0.1273 -0.9113
 3707TIP3    H132536   2.221   2.941  12.028 -0.2062  0.7934 -0.6414
 3707TIP3    H232537   2.258   2.944  12.175 -0.9769  0.5612 -0.4380
 3708TIP3   OH232538   4.226   0.389   6.159  0.8635  0.5015  0.5404
 3708TIP3    H132539   4.171   0.397   6.237  1.6329  0.6041  1.0832
 3708TIP3    H232540   4.312   0.367   6.193  1.4215  1.4504 -0.2367
 3709TIP3   OH232541   2.581   0.956   2.940 -1.1558 -0.1198  0.1695
 3709TIP3    H132542   2.521   0.909   2.882  0.6185 -1.1220 -0.9619
 3709TIP3    H232543   2.589   1.043   2.902  0.4024 -0.9291 -1.5004
 3710TIP3   OH232544   3.513   6.546  12.483  0.0400  0.6575 -0.1227
 3710TIP3    H132545   3.562   6.493  12.546  0.7236  0.2560 -0.9762
 3710TIP3    H232546   3.455   6.484  12.440  0.1394  0.7840 -0.4369
 3711TIP3   OH232547   4.521   5.230  15.594 -0.5944 -0.5811 -0.1433
 3711TIP3    H132548   4.503   5.302  15.654  0.3434  1.1673 -1.8208
 3711TIP3    H232549   4.556   5.160  15.649  1.3314  1.3446  1.2504
 3712TIP3   OH232550   0.876   2.420  16.084 -0.0856  0.2252  0.3638
 3712TIP3    H132551   0.937   2.472  16.137  0.4451 -0.3690  0.3494
 3712TIP3    H232552   0.879   2.461  15.997 -0.1989  0.5877  0.5269
 3713TIP3   OH232553   3.814   2.003   2.402  1.0486 -0.1286  0.1675
 3713TIP3    H132554   3.840   1.944   2.331 -0.1414 -1.2459  0.6198
 3713TIP3    H232555   3.745   1.955   2.449  1.9204  0.4876  2.1844
 3714TIP3   OH232556   6.397   2.116  16.192  0.1660 -0.1671 -0.1147
 3714TIP3    H132557   6.418   2.131  16.284  0.0517  0.7851 -0.2302
 3714TIP3    H232558   6.477   2.138  16.145  0.5925 -1.7464 -0.1798
 3715TIP3   OH232559   3.805   0.720  11.891  0.1380 -0.2702 -0.2766
 3715TIP3    H132560   3.718   0.683  11.907 -0.1839  0.7979  0.5177
 3715TIP3    H232561   3.789   0.800  11.840  0.5852  0.3432  0.5260
 3716TIP3   OH232562   1.700   5.921  12.116 -0.5285  0.0523  0.0320
 3716TIP3    H132563   1.763   5.979  12.158 -1.2468  0.4024  0.6429
 3716TIP3    H232564   1.660   5.974  12.048 -0.9915  0.1944  0.4116
 3717TIP3   OH232565   5.262   3.503  13.915 -0.5220 -0.3239 -0.7767
 3717TIP3    H132566   5.304   3.524  13.832 -0.6140  0.1375 -0.7101
 3717TIP3    H232567   5.173   3.536  13.906 -0.4412  0.0093 -0.3814
 3718TIP3   OH232568   0.417   4.217  11.990 -0.2098 -0.1664 -0.2396
 3718TIP3    H132569   0.484   4.227  11.922 -0.1370 -0.5909 -0.2286
 3718TIP3    H232570   0.435   4.133  12.030 -0.8996 -0.3985 -0.3978
 3719TIP3   OH232571   0.232   4.652   4.629  0.5075  0.5798  0.4584
 3719TIP3    H132572   0.230   4.656   4.533 -0.7055 -0.3121  0.4305
 3719TIP3    H232573   0.242   4.559   4.649  1.3503  0.8169  1.2049
 3720TIP3   OH232574   4.415   0.926  11.008  0.2301 -0.4329  0.6362
 3720TIP3    H132575   4.386   0.992  10.945 -0.1546 -0.7491  0.4790
 3720TIP3    H232576   4.503   0.901  10.979  0.4251  0.0883  0.7625
 3721TIP3   OH232577   1.336   5.212   1.310  0.0187 -1.0685  0.0341
 3721TIP3    H132578   1.427   5.239   1.313  0.1790 -1.0829 -2.7489
 3721TIP3    H232579   1.338   5.119   1.291 -0.6002 -1.2268  0.6642
 3722TIP3   OH232580   1.856   2.335   0.592  0.6699 -0.6816  0.3377
 3722TIP3    H132581   1.871   2.283   0.671  0.6308 -1.7282 -0.3197
 3722TIP3    H232582   1.880   2.276   0.520  1.9865  0.6829 -0.3931
 3723TIP3   OH232583   5.707   2.199   5.935 -0.4812 -0.1665  0.2486
 3723TIP3    H132584   5.657   2.206   5.853  0.1345  1.2582 -0.0319
 3723TIP3    H232585   5.716   2.105   5.949 -3.2465 -0.4997  0.3441
 3724TIP3   OH232586   3.560   3.629   4.752  0.2090  0.2238 -0.4170
 3724TIP3    H132587   3.485   3.570   4.753 -0.2799  0.8278 -0.5792
 3724TIP3    H232588   3.628   3.583   4.801 -0.4935 -0.0395  0.3361
 3725TIP3   OH232589   0.349   1.330   2.258  0.4506  0.2583 -0.2442
 3725TIP3    H132590   0.343   1.240   2.227  1.0842  0.2942 -0.5004
 3725TIP3    H232591   0.367   1.381   2.178  2.9218  0.2637  0.2162
 3726TIP3   OH232592   4.296   4.257   0.692  0.4613 -0.0582  0.5532
 3726TIP3    H132593   4.363   4.237   0.625 -0.0152  0.0466  0.0368
 3726TIP3    H232594   4.344   4.253   0.775  1.1176  0.0377  0.1914
 3727TIP3   OH232595   4.989   1.000   0.135 -0.1470  0.3134  0.6216
 3727TIP3    H132596   4.976   0.977   0.227  0.4835  4.4452  1.9373
 3727TIP3    H232597   4.937   0.935   0.087  0.1253 -2.4992  3.7535
 3728TIP3   OH232598   1.595   6.286  15.169  0.2945  0.1999  0.1883
 3728TIP3    H132599   1.633   6.341  15.238  1.0858 -0.9049  0.6481
 3728TIP3    H232600   1.600   6.341  15.090 -1.7002  1.9316  1.1807
 3729TIP3   OH232601   0.840   3.518  14.418 -0.2824  0.4005  0.0622
 3729TIP3    H132602   0.790   3.537  14.498  0.9909  2.4845  0.4461
 3729TIP3    H232603   0.927   3.494  14.449 -0.4604 -1.2865 -0.6560
 3730TIP3   OH232604   2.536   0.477  16.338 -0.3234 -0.4001  0.2351
 3730TIP3    H132605   2.453   0.516  16.365 -0.9882 -1.5059 -0.1388
 3730TIP3    H232606   2.596   0.497  16.410 -0.9885  0.1383  0.6561
 3731TIP3   OH232607   0.312   2.312  12.734 -0.2259  0.3763 -0.4586
 3731TIP3    H132608   0.238   2.373  12.725 -0.4058  0.3633  0.7333
 3731TIP3    H232609   0.316   2.294  12.828 -0.4185 -1.7529 -0.8209
 3732TIP3   OH232610   0.354   4.984  12.792 -0.0940  0.5840  0.1500
 3732TIP3    H132611   0.337   4.944  12.707  0.6236  0.3090  0.1227
 3732TIP3    H232612   0.308   4.928  12.854  1.1117 -0.4719  0.1366
 3733TIP3   OH232613   0.883   4.883   5.680 -0.2950 -0.0185  0.2918
 3733TIP3    H132614   0.861   4.829   5.756 -1.3792 -0.2833 -0.1891
 3733TIP3    H232615   0.810   4.870   5.619  0.3533  0.5043 -0.6297
 3734TIP3   OH232616   4.671   2.623   5.166  0.4856  0.3439  0.3535
 3734TIP3    H132617   4.732   2.658   5.231  0.7682  0.2768  0.1271
 3734TIP3    H232618   4.719   2.628   5.083 -0.3857  1.7575 -0.0873
 3735TIP3   OH232619   6.178   4.142  14.604 -0.2242 -0.0960 -0.3856
 3735TIP3    H132620   6.191   4.062  14.656  0.7059  0.4742  0.2800
 3735TIP3    H232621   6.121   4.114  14.532 -0.7817 -1.1220  0.4168
 3736TIP3   OH232622   4.455   1.096  15.291 -0.3380  0.2956 -0.2212
 3736TIP3    H132623   4.536   1.132  15.254 -0.6446  0.7140 -0.4985
 3736TIP3    H232624   4.432   1.155  15.362 -0.6340  0.4371 -0.4279
 3737TIP3   OH232625   6.046   3.403   5.762 -0.0718  0.4234  0.4395
 3737TIP3    H132626   6.017   3.330   5.708 -0.3361  1.4389 -0.8352
 3737TIP3    H232627   6.087   3.464   5.701  1.5503  0.6627  1.6978
 3738TIP3   OH232628   1.138   5.664   4.714 -0.0449  0.2587  0.4564
 3738TIP3    H132629   1.181   5.623   4.788  0.2550  1.0696  0.7469
 3738TIP3    H232630   1.045   5.659   4.734 -0.1663 -1.8683 -0.3632
 3739TIP3   OH232631   2.320   4.905  16.241 -0.3933  0.6302 -0.2223
 3739TIP3    H132632   2.233   4.866  16.232 -1.4037  2.6496  0.2811
 3739TIP3    H232633   2.330   4.961  16.164  0.0299  1.1826  0.2215
 3740TIP3   OH232634   2.257   2.516  12.722 -0.1482 -0.0112  0.0507
 3740TIP3    H132635   2.203   2.555  12.654 -0.9561 -0.5273  0.3749
 3740TIP3    H232636   2.253   2.578  12.795 -2.4274 -1.1620  1.0220
 3741TIP3   OH232637   4.522   0.324  15.534 -0.1195 -0.7574  0.1346
 3741TIP3    H132638   4.441   0.363  15.500  0.5255 -0.0059 -0.5806
 3741TIP3    H232639   4.586   0.336  15.464  1.3063  0.9961  1.6110
 3742TIP3   OH232640   2.386   4.762  12.509 -0.2980 -0.4055  0.2109
 3742TIP3    H132641   2.400   4.787  12.600  0.5969  0.9861 -0.2829
 3742TIP3    H232642   2.444   4.686  12.496 -0.9676 -1.0648  0.9727
 3743TIP3   OH232643   5.762   5.861   0.499  0.7620 -0.1920 -0.1980
 3743TIP3    H132644   5.829   5.803   0.461 -0.9497 -2.5029  0.1350
 3743TIP3    H232645   5.683   5.807   0.503 -0.8463  2.0905  0.5080
 3744TIP3   OH232646   3.124   3.319   5.116 -0.2221  0.4537  0.0154
 3744TIP3    H132647   3.184   3.245   5.118  2.0280  2.1241 -0.8611
 3744TIP3    H232648   3.139   3.364   5.200 -1.7169 -0.1375  0.6332
 3745TIP3   OH232649   2.122   0.360   0.306 -0.2021  0.3828 -0.3645
 3745TIP3    H132650   2.095   0.329   0.220 -2.0519  1.1153 -0.0978
 3745TIP3    H232651   2.062   0.315   0.367  0.9036  0.0686  0.5292
 3746TIP3   OH232652   0.507   1.094  12.607 -0.5305  0.1729 -0.0721
 3746TIP3    H132653   0.591   1.053  12.585 -0.2858  0.6615 -0.0736
 3746TIP3    H232654   0.452   1.079  12.530 -0.5859 -0.5039  0.0899
 3747TIP3   OH232655   6.071   0.141  16.244  0.2657 -0.2510  0.2760
 3747TIP3    H132656   6.120   0.072  16.289 -1.3315 -1.4095  0.3312
 3747TIP3    H232657   6.131   0.217  16.243  1.0773 -0.7903  2.5994
 3748TIP3   OH232658   4.551   6.751  11.400 -0.1764 -0.5361 -0.0242
 3748TIP3    H132659   4.576   6.840  11.376  0.1222 -0.2425  1.2591
 3748TIP3    H232660   4.616   6.695  11.358 -0.0815 -0.1180 -0.4387
 3749TIP3   OH232661   4.520   3.059  11.815 -0.2671 -0.4060  0.0063
 3749TIP3    H132662   4.492   3.108  11.892  0.3775 -0.9672  0.6229
 3749TIP3    H232663   4.458   3.083  11.746 -0.8684  0.0850  0.7078
 3750TIP3   OH232664   3.847   5.928   5.835  0.0008 -0.0677 -0.7826
 3750TIP3    H132665   3.938   5.906   5.814  0.3364  2.2355 -2.1249
 3750TIP3    H232666   3.849   6.023   5.849 -2.1708  0.0017 -0.6610
 3751TIP3   OH232667   5.100   4.541  13.041 -0.3920  0.2865  0.0990
 3751TIP3    H132668   5.053   4.486  12.979  1.3781 -3.5786  1.8283
 3751TIP3    H232669   5.047   4.538  13.121 -0.1847  0.9751  0.2673
 3752TIP3   OH232670   0.657   6.231  15.625  0.2704 -0.4643 -0.3996
 3752TIP3    H132671   0.672   6.145  15.664 -0.8632 -0.5852 -0.1929
 3752TIP3    H232672   0.649   6.213  15.531 -0.2562 -0.6473 -0.3295
 3753TIP3   OH232673   5.848   5.525   4.802  0.1883  0.0551  0.7166
 3753TIP3    H132674   5.856   5.461   4.731 -0.0943  0.7957  0.0041
 3753TIP3    H232675   5.829   5.608   4.758 -0.2153  0.4866  1.6778
 3754TIP3   OH232676   5.845   2.875   1.283  0.8997 -0.4024  0.0011
 3754TIP3    H132677   5.928   2.885   1.329  0.6368  0.5120  0.2970
 3754TIP3    H232678   5.785   2.840   1.350  0.7147  0.2020  0.1610
 3755TIP3   OH232679   2.620   6.085  11.194  0.5601 -0.1865 -0.7413
 3755TIP3    H132680   2.623   6.070  11.099  0.1913 -0.9565 -0.6406
 3755TIP3    H232681   2.534   6.125  11.209  1.0945  1.0376 -0.8708
 3756TIP3   OH232682   3.790   1.834   2.174  0.2393  0.8814 -0.2030
 3756TIP3    H132683   3.698   1.806   2.170 -0.1739  2.0868  0.3497
 3756TIP3    H232684   3.824   1.818   2.086  0.2574 -1.9623  0.2408
 3757TIP3   OH232685   4.950   3.694   0.225 -0.1285  0.2229  0.3878
 3757TIP3    H132686   4.953   3.730   0.314  0.7611 -0.8103  0.8146
 3757TIP3    H232687   4.883   3.744   0.180  0.3400  1.6687  1.2479
 3758TIP3   OH232688   3.462   6.271   9.845 -0.2411 -0.2128 -0.5517
 3758TIP3    H132689   3.376   6.247   9.879  0.2106  0.2549  1.0019
 3758TIP3    H232690   3.519   6.270   9.922  1.2097 -0.7844 -1.5938
 3759TIP3   OH232691   5.961   6.398   1.377 -0.4761 -0.0096  0.3379
 3759TIP3    H132692   5.956   6.327   1.441 -1.6761  1.1848  1.6094
 3759TIP3    H232693   5.871   6.410   1.347 -0.2670  0.8926  0.0436
 3760TIP3   OH232694   0.116   2.070  12.050 -0.3071  0.7257  0.1335
 3760TIP3    H132695   0.098   1.997  12.110  1.4056 -0.4994 -0.7474
 3760TIP3    H232696   0.202   2.050  12.014  0.9077  3.9456  0.9026
 3761TIP3   OH232697   2.420   4.903  15.454 -0.2517  0.3852  0.1962
 3761TIP3    H132698   2.438   4.995  15.477  1.5070  0.5064 -1.3810
 3761TIP3    H232699   2.348   4.907  15.392 -1.8030  0.4421  1.9118
 3762TIP3   OH232700   1.881   6.452  16.877  0.1951  0.2296  0.3430
 3762TIP3    H132701   1.954   6.478  16.821 -0.0388  0.0505 -0.0515
 3762TIP3    H232702   1.830   6.532  16.888 -0.3035  0.0549 -0.5368
 3763TIP3   OH232703   2.098   5.968  12.446 -0.1099  0.5435 -0.7101
 3763TIP3    H132704   2.092   5.935  12.356  1.1265 -0.7986 -0.3486
 3763TIP3    H232705   2.189   5.953  12.470 -0.5624  0.3251  0.9649
 3764TIP3   OH232706   3.766   6.537   1.608  0.6673 -0.3288  0.1613
 3764TIP3    H132707   3.748   6.456   1.655  2.4518 -0.2999  0.9830
 3764TIP3    H232708   3.745   6.607   1.670 -2.2638 -0.0227 -1.0283
 3765TIP3   OH232709   1.770   0.325  11.163 -0.1641  0.1627  0.1124
 3765TIP3    H132710   1.766   0.230  11.175 -1.9870  0.1501 -0.3325
 3765TIP3    H232711   1.679   0.351  11.152  0.1943  2.1312  1.3683
 3766TIP3   OH232712   2.104   1.307  16.124 -0.0956  0.0381  0.0407
 3766TIP3    H132713   2.070   1.261  16.201  0.9497  2.0783  1.8311
 3766TIP3    H232714   2.161   1.243  16.081  1.1005 -0.4956  2.2610
 3767TIP3   OH232715   3.448   0.214  10.965 -0.4621  0.4302 -0.1689
 3767TIP3    H132716   3.384   0.241  10.899 -1.6024 -0.2774  0.5961
 3767TIP3    H232717   3.447   0.118  10.962  0.7009  0.4116 -0.2587
 3768TIP3   OH232718   6.616   5.402  11.564 -0.1898 -0.1339  0.4111
 3768TIP3    H132719   6.638   5.374  11.653 -1.2812 -0.0840  0.7179
 3768TIP3    H232720   6.691   5.376  11.511  1.7334  2.3283  1.7711
 3769TIP3   OH232721   1.771   1.233  12.494 -0.2292  0.4210  0.5252
 3769TIP3    H132722   1.820   1.293  12.550  1.7766  0.4895 -1.2071
 3769TIP3    H232723   1.821   1.151  12.496 -0.9213 -0.0263 -0.0350
 3770TIP3   OH232724   3.741   3.599   5.284 -0.4655  0.0175 -0.1047
 3770TIP3    H132725   3.674   3.586   5.217 -1.0612  1.7775  0.1107
 3770TIP3    H232726   3.794   3.672   5.252  1.5622 -1.4919 -0.3943
 3771TIP3   OH232727   1.483   1.057  11.073  0.2172 -0.0784 -0.4849
 3771TIP3    H132728   1.519   1.089  11.156 -0.9436  1.2594 -0.4649
 3771TIP3    H232729   1.558   1.019  11.028  1.2779  0.9592  0.3443
 3772TIP3   OH232730   4.115   3.653  13.460  0.8502 -0.1425 -0.2488
 3772TIP3    H132731   4.083   3.648  13.370  2.2817  0.0289 -0.7798
 3772TIP3    H232732   4.195   3.705  13.455 -1.2283  3.7028  1.7417
 3773TIP3   OH232733   2.373   2.686   4.360 -0.1330 -0.5006  0.0845
 3773TIP3    H132734   2.353   2.756   4.423  1.1871  1.0081 -1.0905
 3773TIP3    H232735   2.299   2.687   4.299 -0.5462 -0.7556  0.5696
 3774TIP3   OH232736   2.136   5.971  17.387 -0.5846 -0.2870  0.2626
 3774TIP3    H132737   2.133   5.875  17.390  1.4381 -0.3917  0.3288
 3774TIP3    H232738   2.184   5.995  17.466  1.8309  0.5392 -1.3507
 3775TIP3   OH232739   4.875   3.107  16.271 -0.8006  0.1504 -1.2265
 3775TIP3    H132740   4.965   3.095  16.240  0.0241  1.1271  0.6346
 3775TIP3    H232741   4.843   3.018  16.285  1.8375 -0.4163  3.1759
 3776TIP3   OH232742   3.890   4.933  14.797  0.6199  0.2253  0.2320
 3776TIP3    H132743   3.924   4.998  14.858 -0.4903 -0.1617  1.3026
 3776TIP3    H232744   3.814   4.895  14.841  0.6608 -1.1239 -0.7702
 3777TIP3   OH232745   4.592   5.620  14.848  0.1611  0.1717 -0.2317
 3777TIP3    H132746   4.646   5.638  14.770 -3.2649 -0.6998 -3.0374
 3777TIP3    H232747   4.568   5.707  14.880 -0.4851  0.5889 -1.7793
 3778TIP3   OH232748   1.394   0.490   5.394 -0.2703 -0.3366  0.4452
 3778TIP3    H132749   1.365   0.478   5.484 -1.2698  0.2898  0.2212
 3778TIP3    H232750   1.441   0.409   5.373 -2.1482 -1.5841  0.7253
 3779TIP3   OH232751   1.842   4.002   4.472  0.2697  0.1932  0.5646
 3779TIP3    H132752   1.926   3.963   4.448  0.1283  0.0658  0.2760
 3779TIP3    H232753   1.866   4.081   4.521  0.6217  1.8822 -2.1515
 3780TIP3   OH232754   2.703   5.577  16.487  0.4263  0.0986 -0.0554
 3780TIP3    H132755   2.769   5.591  16.555 -0.4856 -0.7299  1.0358
 3780TIP3    H232756   2.632   5.530  16.532 -0.5289  0.2123 -1.4015
 3781TIP3   OH232757   2.767   1.853   6.781  0.3854 -0.1993  0.0337
 3781TIP3    H132758   2.796   1.944   6.781  0.8216 -0.3063  1.8350
 3781TIP3    H232759   2.819   1.811   6.712  2.7678  0.1798  1.4700
 3782TIP3   OH232760   1.206   0.201  16.368  0.3553  0.5118 -0.0187
 3782TIP3    H132761   1.208   0.276  16.309 -1.5611  0.9323  0.3735
 3782TIP3    H232762   1.115   0.173  16.368  0.8798 -1.3417  0.4706
 3783TIP3   OH232763   3.836   4.491  15.134 -0.8091  0.4639  0.0486
 3783TIP3    H132764   3.778   4.475  15.060 -1.4566  0.5013  0.5402
 3783TIP3    H232765   3.795   4.564  15.181 -2.0342 -1.4278  2.0908
 3784TIP3   OH232766   3.680   3.893   3.614  0.0558  0.4301  0.5126
 3784TIP3    H132767   3.653   3.982   3.637 -1.1480 -0.2667  1.9766
 3784TIP3    H232768   3.642   3.877   3.528 -1.5145  0.6024  1.1566
 3785TIP3   OH232769   6.183   1.084  11.465  0.0353 -0.0279  0.1330
 3785TIP3    H132770   6.205   1.052  11.552  3.5139 -1.6808 -1.1520
 3785TIP3    H232771   6.093   1.052  11.450  0.3264 -2.0713  2.0934
 3786TIP3   OH232772   3.852   3.139   0.509  1.0434 -0.2854  0.4509
 3786TIP3    H132773   3.945   3.121   0.495  1.0371 -0.6191  0.8140
 3786TIP3    H232774   3.819   3.060   0.554  0.3324 -0.6739 -0.7188
 3787TIP3   OH232775   4.389   2.494  13.191 -0.9046  1.0309 -0.6116
 3787TIP3    H132776   4.377   2.503  13.286  0.8419  0.4342 -0.3030
 3787TIP3    H232777   4.415   2.582  13.162  0.8057  0.7226 -0.1297
 3788TIP3   OH232778   4.085   4.205  12.102 -0.0547 -0.3128  0.2933
 3788TIP3    H132779   4.055   4.114  12.110 -0.0943 -0.2598  0.7817
 3788TIP3    H232780   4.049   4.248  12.180 -1.4969  0.5263 -0.7928
 3789TIP3   OH232781   5.147   1.525   5.505 -0.3641 -0.2915 -0.3814
 3789TIP3    H132782   5.220   1.473   5.539 -0.3361  0.3922  0.6379
 3789TIP3    H232783   5.088   1.460   5.467 -0.9731 -1.2740  2.0525
 3790TIP3   OH232784   2.214   3.222   5.314  0.4059  0.5414 -0.5073
 3790TIP3    H132785   2.174   3.163   5.249 -1.7988 -0.9821  2.0592
 3790TIP3    H232786   2.306   3.195   5.316 -0.7244 -4.2697  1.6788
 3791TIP3   OH232787   1.645   5.788   3.289 -0.4464  0.8254  0.0743
 3791TIP3    H132788   1.685   5.714   3.334 -0.0725  0.8261 -0.2474
 3791TIP3    H232789   1.643   5.762   3.197 -0.8417  0.9840  0.0337
 3792TIP3   OH232790   0.790   0.349   0.848 -0.1818 -0.4121 -0.3474
 3792TIP3    H132791   0.877   0.321   0.878  0.0005  0.9692  0.5016
 3792TIP3    H232792   0.731   0.281   0.880  0.4712 -0.8798 -0.1034
 3793TIP3   OH232793   5.713   1.064  15.443 -0.3366  0.3675 -0.3091
 3793TIP3    H132794   5.731   1.141  15.389  1.8768 -0.2769 -0.6259
 3793TIP3    H232795   5.683   0.998  15.380 -0.6080  0.4714 -0.2906
 3794TIP3   OH232796   0.080   1.379  10.463  0.1638  0.2955  0.2758
 3794TIP3    H132797   0.113   1.419  10.544 -1.4017  0.0661  1.0898
 3794TIP3    H232798   0.018   1.443  10.429  1.2336  0.6350 -1.0836
 3795TIP3   OH232799   3.688   3.919  14.970  0.4645 -0.1540  0.3568
 3795TIP3    H132800   3.702   3.837  14.922 -0.5862 -0.5713  0.7460
 3795TIP3    H232801   3.707   3.988  14.906 -0.2102 -0.7000 -0.4498
 3796TIP3   OH232802   3.050   4.437  17.372  0.4574 -0.0822  0.3195
 3796TIP3    H132803   2.960   4.469  17.368 -0.2136 -1.7688  0.9056
 3796TIP3    H232804   3.053   4.366  17.307  1.1878 -0.4117  0.7009
 3797TIP3   OH232805   5.387   2.288   5.478 -0.0067  0.1604 -0.2934
 3797TIP3    H132806   5.395   2.304   5.384 -0.1817  2.2920  0.0021
 3797TIP3    H232807   5.363   2.373   5.514  0.0388 -0.6302  1.6856
 3798TIP3   OH232808   1.778   0.651  14.303  0.5063  0.6581  0.2263
 3798TIP3    H132809   1.733   0.616  14.380  0.3561 -0.3672 -0.3151
 3798TIP3    H232810   1.867   0.668  14.333  0.4197  0.3704  0.6539
 3799TIP3   OH232811   6.124   5.209  12.660 -0.3235  0.0466 -0.1706
 3799TIP3    H132812   6.065   5.139  12.688  0.6633 -0.3341  1.0336
 3799TIP3    H232813   6.081   5.247  12.583 -1.3745 -1.2062 -0.2396
 3800TIP3   OH232814   6.419   2.377  14.716 -0.0895 -0.6863  0.6437
 3800TIP3    H132815   6.434   2.465  14.680  0.9660 -0.4434  1.6426
 3800TIP3    H232816   6.332   2.353  14.684 -0.7008  1.0196  0.9307
 3801TIP3   OH232817   0.230   0.424   4.299 -0.1152  0.1587 -0.1818
 3801TIP3    H132818   0.266   0.414   4.211 -0.5046 -0.9454 -0.2303
 3801TIP3    H232819   0.135   0.430   4.285 -0.0645  2.3453 -0.0031
 3802TIP3   OH232820   5.589   5.089  12.437 -0.5796 -0.2725  0.0196
 3802TIP3    H132821   5.669   5.044  12.411  0.7722  1.4974  0.9493
 3802TIP3    H232822   5.585   5.167  12.382 -1.3246 -0.0012  0.4324
 3803TIP3   OH232823   3.304   5.770  16.501  0.4230 -0.1420  0.3032
 3803TIP3    H132824   3.374   5.736  16.445 -0.6114 -1.6439 -0.1317
 3803TIP3    H232825   3.345   5.783  16.586  1.5620  0.3556 -0.2959
 3804TIP3   OH232826   6.610   3.187  15.332 -0.4683  0.0897 -0.2615
 3804TIP3    H132827   6.566   3.120  15.280 -0.4926  1.0123 -1.4695
 3804TIP3    H232828   6.541   3.226  15.385 -0.6620 -0.1095 -0.3679
 3805TIP3   OH232829   3.843   0.796  17.148 -0.5332 -0.1256 -0.2213
 3805TIP3    H132830   3.811   0.860  17.212 -0.3114  0.5872 -0.8063
 3805TIP3    H232831   3.793   0.815  17.068 -1.2750 -1.4319 -0.0963
 3806TIP3   OH232832   6.589   0.648   2.627  0.4825  0.9960  0.5543
 3806TIP3    H132833   6.554   0.721   2.678  0.7532  0.1911  1.9364
 3806TIP3    H232834   6.590   0.574   2.688 -1.4170 -0.6604 -1.2756
 3807TIP3   OH232835   1.940   5.524  11.865 -0.0689 -0.2227 -0.2367
 3807TIP3    H132836   1.963   5.439  11.826  0.0624  0.5916 -2.0453
 3807TIP3    H232837   2.021   5.574  11.863 -0.7437  0.8837 -1.8160
 3808TIP3   OH232838   5.885   2.919  15.417  0.4482 -0.1918 -0.1634
 3808TIP3    H132839   5.917   2.994  15.467  1.3115 -0.9609  0.4640
 3808TIP3    H232840   5.799   2.946  15.386  0.1489  0.5229  1.2381
 3809TIP3   OH232841   2.521   2.961  14.522 -0.0334 -0.3242  0.0962
 3809TIP3    H132842   2.596   2.907  14.546  0.0193 -0.7565 -0.9741
 3809TIP3    H232843   2.446   2.901  14.528  0.0830 -0.6942 -1.5462
 3810TIP3   OH232844   0.800   6.050  16.238  0.5124  0.2342  0.6815
 3810TIP3    H132845   0.860   5.986  16.200 -0.2210  0.8943 -1.7538
 3810TIP3    H232846   0.767   6.101  16.164 -0.9775  1.7030  2.2239
 3811TIP3   OH232847   4.329   3.379  11.712  0.2402  0.3384  0.1317
 3811TIP3    H132848   4.423   3.376  11.698  0.4728  0.8253  1.4814
 3811TIP3    H232849   4.314   3.458  11.763 -0.9966  0.6687 -0.7003
 3812TIP3   OH232850   4.571   5.290   5.353 -0.4807 -0.1826  0.0252
 3812TIP3    H132851   4.487   5.330   5.374 -0.4562 -0.4327  0.6009
 3812TIP3    H232852   4.568   5.204   5.395  0.6025  0.3316  1.1912
 3813TIP3   OH232853   5.564   0.200   3.779  0.4875  0.1857 -0.1114
 3813TIP3    H132854   5.612   0.191   3.861  1.3881 -0.6665 -0.7121
 3813TIP3    H232855   5.498   0.131   3.782  0.0616  0.5940  0.1820
 3814TIP3   OH232856   1.777   2.288  12.334  0.2397 -0.5539  0.1911
 3814TIP3    H132857   1.737   2.299  12.420  0.3927 -0.7243  0.2867
 3814TIP3    H232858   1.742   2.205  12.302 -1.7878  0.6842 -1.0019
 3815TIP3   OH232859   1.551   4.213   5.047  0.1850  0.6746 -0.4476
 3815TIP3    H132860   1.630   4.163   5.025  0.2345  0.9977 -1.0239
 3815TIP3    H232861   1.509   4.163   5.117 -0.4824 -0.9153 -1.9273
 3816TIP3   OH232862   1.451   5.288  16.020 -0.6825 -0.8866 -0.5121
 3816TIP3    H132863   1.399   5.304  16.099  0.0822  3.2070 -0.6137
 3816TIP3    H232864   1.536   5.258  16.053  0.5172  3.2064  0.6503
 3817TIP3   OH232865   5.661   1.213   3.030  0.0936 -0.1141  0.2988
 3817TIP3    H132866   5.749   1.223   2.996  0.7996 -0.2124  1.9844
 3817TIP3    H232867   5.630   1.130   2.994  0.6727 -0.0541 -0.3395
 3818TIP3   OH232868   4.584   5.525  14.089 -0.8482 -0.3458 -0.8422
 3818TIP3    H132869   4.644   5.464  14.133  0.3762  1.6311  0.3713
 3818TIP3    H232870   4.557   5.478  14.010  1.8273 -1.6268 -1.1341
 3819TIP3   OH232871   5.847   6.003  16.952  0.3002  0.0612 -0.1308
 3819TIP3    H132872   5.758   6.033  16.971  0.9180  0.9292  1.6854
 3819TIP3    H232873   5.853   5.916  16.992  0.6310  0.5562  0.9467
 3820TIP3   OH232874   6.677   2.815   4.333 -0.1651  0.0970 -0.6047
 3820TIP3    H132875   6.669   2.892   4.277 -0.0968 -0.2847 -1.1417
 3820TIP3    H232876   6.620   2.834   4.407  0.5575  1.0637 -0.2715
 3821TIP3   OH232877   5.886   5.391  14.340 -0.4651 -0.0039 -0.2913
 3821TIP3    H132878   5.866   5.316  14.395  0.2258  0.2160  0.2670
 3821TIP3    H232879   5.981   5.390  14.330 -0.3207  1.3671  0.5848
 3822TIP3   OH232880   2.697   5.426   0.564  0.0116 -0.4511  0.3508
 3822TIP3    H132881   2.715   5.472   0.646 -2.0919  1.3107 -0.0770
 3822TIP3    H232882   2.643   5.351   0.590 -0.4400 -0.0405  0.5987
 3823TIP3   OH232883   1.988   2.634   5.328 -0.2520 -0.3802  0.1160
 3823TIP3    H132884   1.933   2.654   5.253 -0.1093 -2.4002 -0.5822
 3823TIP3    H232885   1.970   2.705   5.390 -1.8901  0.2475 -0.9966
 3824TIP3   OH232886   3.691   0.826   5.952 -0.7079  0.0191 -0.5492
 3824TIP3    H132887   3.683   0.867   6.038 -2.5891 -0.7697 -0.2956
 3824TIP3    H232888   3.724   0.738   5.970  0.5262  0.4141 -0.8158
 3825TIP3   OH232889   6.430   5.348   5.256  0.1785 -0.2333  0.2480
 3825TIP3    H132890   6.492   5.282   5.225  0.4727 -0.1275  0.6023
 3825TIP3    H232891   6.363   5.298   5.302  0.4183 -0.2822  0.5446
 3826TIP3   OH232892   6.283   5.511   3.266  0.4691 -0.0719  0.0876
 3826TIP3    H132893   6.295   5.566   3.189 -0.3319 -0.8438 -0.6036
 3826TIP3    H232894   6.192   5.483   3.262  0.6220 -0.7335  0.9085
 3827TIP3   OH232895   2.024   6.205  12.585 -0.6538  0.1355 -0.0190
 3827TIP3    H132896   2.092   6.245  12.638  0.6057 -3.0439  0.9539
 3827TIP3    H232897   2.053   6.115  12.570 -3.4157 -0.6184 -1.7868
 3828TIP3   OH232898   0.529   4.592   1.598 -0.8216  0.5585  0.0565
 3828TIP3    H132899   0.545   4.582   1.691 -1.7274  0.7771  0.2455
 3828TIP3    H232900   0.488   4.679   1.589 -1.8277  0.0601 -0.3871
 3829TIP3   OH232901   4.656   5.989  13.635 -0.3979 -0.4394 -0.1029
 3829TIP3    H132902   4.694   5.934  13.566 -1.0388 -1.5364  0.3836
 3829TIP3    H232903   4.657   5.933  13.713 -0.4702  0.4814  0.5777
 3830TIP3   OH232904   3.662   5.544  17.037  0.0947 -0.4826  0.1220
 3830TIP3    H132905   3.647   5.480  17.106 -0.0550  0.7951  1.3332
 3830TIP3    H232906   3.574   5.563  17.002 -0.0833  0.3340  0.9778
 3831TIP3   OH232907   2.117   0.887  16.470 -0.2820  0.5122 -0.1073
 3831TIP3    H132908   2.192   0.861  16.416  0.9279 -0.2139  1.8149
 3831TIP3    H232909   2.043   0.839  16.433  1.0074 -2.0637  0.4455
 3832TIP3   OH232910   3.778   3.226  14.561 -0.1557 -0.3091 -0.1802
 3832TIP3    H132911   3.700   3.250  14.511 -0.6727 -2.1364 -0.3225
 3832TIP3    H232912   3.791   3.133  14.541  0.6199 -0.6612  1.7654
 3833TIP3   OH232913   0.537   6.562  11.312 -0.2552  0.3317  0.0275
 3833TIP3    H132914   0.488   6.485  11.341  1.5463 -0.7789  0.3223
 3833TIP3    H232915   0.596   6.582  11.385 -0.6693  2.0254 -0.0474
 3834TIP3   OH232916   3.535   3.644   6.056 -0.2893  0.9578  0.4371
 3834TIP3    H132917   3.561   3.554   6.079  3.5455  1.7957  0.1281
 3834TIP3    H232918   3.532   3.690   6.139 -0.8402  0.8726  0.4678
 3835TIP3   OH232919   2.355   2.845  16.111 -0.1145 -0.6443 -0.3708
 3835TIP3    H132920   2.381   2.904  16.182  2.2894 -0.1987 -1.5374
 3835TIP3    H232921   2.263   2.867  16.095 -0.0623  0.8428  1.0599
 3836TIP3   OH232922   3.273   4.907  14.106 -0.2797  0.0114 -0.5148
 3836TIP3    H132923   3.354   4.880  14.063  0.1227 -2.4004  1.5517
 3836TIP3    H232924   3.204   4.878  14.047  0.3169 -0.9663 -0.7601
 3837TIP3   OH232925   3.667   6.757  14.565  0.0034 -0.9137 -0.1693
 3837TIP3    H132926   3.724   6.681  14.555 -0.5975 -1.3466 -0.3693
 3837TIP3    H232927   3.668   6.799  14.479  1.3335  0.0366  0.2829
 3838TIP3   OH232928   0.740   6.097   0.152 -0.1418 -0.0349 -0.3717
 3838TIP3    H132929   0.739   6.115   0.246 -1.2456 -0.6238 -0.2515
 3838TIP3    H232930   0.798   6.021   0.142  0.1465  0.1612 -0.1990
 3839TIP3   OH232931   1.255   0.702   5.121 -0.6007  0.6229  0.2372
 3839TIP3    H132932   1.276   0.624   5.070 -0.1094  0.2221  1.0251
 3839TIP3    H232933   1.337   0.751   5.124 -0.0699 -0.2829  2.1950
 3840TIP3   OH232934   3.475   5.260   4.875  0.8216  0.2116  0.5137
 3840TIP3    H132935   3.470   5.300   4.961 -0.0167 -2.1397  1.6480
 3840TIP3    H232936   3.385   5.262   4.842  1.5074  3.4274 -1.5580
 3841TIP3   OH232937   4.396   4.982   4.478  0.1928 -0.0272  0.4845
 3841TIP3    H132938   4.338   5.030   4.418  0.0702 -2.2948 -1.3895
 3841TIP3    H232939   4.360   4.999   4.565 -2.5376 -0.2795 -0.4846
 3842TIP3   OH232940   4.292   2.866  11.747  0.2716  0.4172  0.3005
 3842TIP3    H132941   4.228   2.929  11.780 -1.0107 -0.4425 -0.4089
 3842TIP3    H232942   4.310   2.895  11.658  0.5887  0.4598  0.3793
 3843TIP3   OH232943   5.014   2.161  16.941 -0.0343 -0.7104  0.3430
 3843TIP3    H132944   5.082   2.217  16.903  0.6480 -1.7153  0.0579
 3843TIP3    H232945   4.977   2.214  17.011  0.8841 -0.0525  0.3523
 3844TIP3   OH232946   4.104   5.845  15.533 -0.1803  0.5453 -0.2738
 3844TIP3    H132947   4.189   5.886  15.545  0.6867 -1.7093  2.0336
 3844TIP3    H232948   4.058   5.859  15.616 -1.1643 -0.2306 -0.6597
 3845TIP3   OH232949   3.174   4.885   4.800  0.0900  0.0297  0.0935
 3845TIP3    H132950   3.198   4.863   4.710  0.2029  0.4109  0.0287
 3845TIP3    H232951   3.256   4.910   4.842  0.1508 -0.8086  0.5064
 3846TIP3   OH232952   5.919   3.094   4.940 -0.6065  0.9193 -0.3183
 3846TIP3    H132953   5.969   3.047   5.007 -0.6902  2.3535  0.8147
 3846TIP3    H232954   5.913   3.033   4.867  0.6389 -0.2142  0.4743
 3847TIP3   OH232955   4.625   0.978  12.670 -0.4041  0.1240 -0.7776
 3847TIP3    H132956   4.616   1.049  12.733 -1.1070  0.1310 -0.8786
 3847TIP3    H232957   4.711   0.940  12.688  0.6791  1.9763 -1.7441
 3848TIP3   OH232958   4.538   2.057  14.269 -0.4314  0.1245  0.0431
 3848TIP3    H132959   4.554   2.055  14.363 -0.8227 -0.2064  0.1028
 3848TIP3    H232960   4.597   1.990  14.233  1.8287  2.1303 -0.2877
 3849TIP3   OH232961   6.636   2.701   0.716 -0.3056  0.3450  0.1563
 3849TIP3    H132962   6.610   2.789   0.745 -1.3402  0.1135 -0.0309
 3849TIP3    H232963   6.595   2.691   0.631 -1.4589 -0.8759  0.8104
 3850TIP3   OH232964   0.481   1.841  15.631  0.2477  0.2339  0.3238
 3850TIP3    H132965   0.565   1.865  15.591  0.8671 -0.3738  1.2153
 3850TIP3    H232966   0.469   1.907  15.700  1.0924 -0.9432  1.6340
 3851TIP3   OH232967   4.317   2.949   0.856  0.3589  0.2999 -0.3493
 3851TIP3    H132968   4.253   2.941   0.927  0.7341  1.2999  0.1266
 3851TIP3    H232969   4.279   2.900   0.784  0.3910 -1.5397  0.8195
 3852TIP3   OH232970   4.730   2.661  15.553  0.0340  0.0104 -0.0050
 3852TIP3    H132971   4.711   2.607  15.476  0.7448  1.4471 -1.2325
 3852TIP3    H232972   4.793   2.727  15.522  1.4190 -0.1943  2.1480
 3853TIP3   OH232973   6.641   5.972   1.506 -0.4622  0.0275  0.1105
 3853TIP3    H132974   6.735   5.989   1.510 -0.4647  0.2663 -0.7221
 3853TIP3    H232975   6.629   5.892   1.557 -0.3824  2.1154  3.8180
 3854TIP3   OH232976   5.569   0.766  11.845 -0.0611  0.4070 -0.1061
 3854TIP3    H132977   5.656   0.780  11.807  0.8423 -0.0348  1.6581
 3854TIP3    H232978   5.587   0.738  11.935 -2.0370 -0.1349  0.1662
 3855TIP3   OH232979   5.236   1.820  12.887 -0.1850  0.3516  0.4764
 3855TIP3    H132980   5.258   1.898  12.937  2.0576 -0.7730  1.3781
 3855TIP3    H232981   5.254   1.747  12.946 -1.5252 -0.8930 -0.5746
 3856TIP3   OH232982   4.332   4.980   3.877  0.0501 -0.6573  0.3774
 3856TIP3    H132983   4.288   4.895   3.872 -0.5028 -0.5972  2.8335
 3856TIP3    H232984   4.417   4.961   3.915 -0.4460 -0.0557  1.8741
 3857TIP3   OH232985   6.125   6.112  16.025  0.1209  0.2900  0.2571
 3857TIP3    H132986   6.154   6.194  15.984  1.3263 -0.2503 -0.0144
 3857TIP3    H232987   6.043   6.091  15.979 -0.3443  1.4553  0.5050
 3858TIP3   OH232988   3.070   0.025   1.021  0.0559  0.3469  0.5660
 3858TIP3    H132989   3.035   0.077   0.949  2.1734  2.6591  1.0573
 3858TIP3    H232990   3.105   0.089   1.083 -1.0345 -1.5725  3.3857
 3859TIP3   OH232991   6.390   4.418  13.897 -0.3109 -0.1278 -0.9722
 3859TIP3    H132992   6.376   4.454  13.984 -0.1289  0.8225 -1.3257
 3859TIP3    H232993   6.479   4.382  13.899  0.4095  1.5233 -1.2849
 3860TIP3   OH232994   1.342   3.318  12.821  0.1216 -0.3658 -0.8206
 3860TIP3    H132995   1.302   3.292  12.904 -0.0572 -0.2538 -0.8712
 3860TIP3    H232996   1.415   3.374  12.845 -0.3937  0.2928 -0.7633
 3861TIP3   OH232997   2.613   2.674   0.814 -0.3735 -0.0738 -0.1057
 3861TIP3    H132998   2.584   2.765   0.822 -1.3654 -0.3553 -0.3490
 3861TIP3    H232999   2.592   2.634   0.899  0.6864  0.0710  0.2509
 3862TIP3   OH233000   6.004   4.279  13.759 -0.1530  0.0878  0.0578
 3862TIP3    H133001   5.929   4.220  13.768 -0.8957  1.1097  0.8624
 3862TIP3    H233002   6.074   4.236  13.808 -0.7957  0.0378  0.9706
 3863TIP3   OH233003   0.181   3.825   3.385 -0.0323 -0.3468 -0.2749
 3863TIP3    H133004   0.249   3.891   3.383  0.0857 -0.4884 -1.7097
 3863TIP3    H233005   0.228   3.742   3.397 -0.1401 -0.2500  0.9641
 3864TIP3   OH233006   2.752   2.319   0.590 -0.4102  0.2856  0.0865
 3864TIP3    H133007   2.702   2.391   0.551 -2.3998 -0.1945  1.5576
 3864TIP3    H233008   2.743   2.332   0.684  1.7954 -0.2191  0.4271
 3865TIP3   OH233009   5.324   6.646  17.144 -0.7750 -0.4943  0.6084
 3865TIP3    H133010   5.365   6.592  17.077  0.1033 -0.1527  0.8507
 3865TIP3    H233011   5.372   6.626  17.224 -1.5128 -0.5596  1.0464
 3866TIP3   OH233012   5.687   1.942   0.083 -0.2759  0.3394  0.2795
 3866TIP3    H133013   5.612   1.884   0.085  0.3834 -0.5231  1.4667
 3866TIP3    H233014   5.710   1.955   0.175  0.7186  0.9932 -0.0340
 3867TIP3   OH233015   4.677   1.757  12.633 -0.7158 -0.1316 -0.1828
 3867TIP3    H133016   4.755   1.716  12.669 -1.0515 -0.8347 -0.2234
 3867TIP3    H233017   4.630   1.685  12.591 -1.9636  0.0327  0.8513
 3868TIP3   OH233018   0.860   1.468   1.647  0.7626 -0.8875  0.3044
 3868TIP3    H133019   0.886   1.500   1.733 -0.0242  1.1117 -0.1633
 3868TIP3    H233020   0.864   1.544   1.590  0.1263 -1.9121 -1.1851
 3869TIP3   OH233021   0.047   0.133  11.073 -0.2491 -0.3360  0.5993
 3869TIP3    H133022  -0.030   0.118  11.018  0.8172  1.0231 -1.3674
 3869TIP3    H233023   0.016   0.191  11.142 -1.0654 -0.0423  0.0084
 3870TIP3   OH233024   2.473   2.789   3.499  0.4334 -0.3152  0.1115
 3870TIP3    H133025   2.462   2.868   3.551  0.7337  0.2100 -0.6115
 3870TIP3    H233026   2.426   2.721   3.548 -2.1746  0.8687 -0.6029
 3871TIP3   OH233027   6.646   1.802   0.654 -0.0611  0.4161  0.6472
 3871TIP3    H133028   6.635   1.726   0.712  2.9115 -0.6000  0.0420
 3871TIP3    H233029   6.579   1.864   0.683 -0.7890 -1.3168  3.0135
 3872TIP3   OH233030   6.721   2.635  11.253 -0.6304 -0.7474 -0.1966
 3872TIP3    H133031   6.627   2.653  11.254 -0.5734 -0.4369  0.6925
 3872TIP3    H233032   6.746   2.645  11.162 -1.0939  1.2109 -0.1609
 3873TIP3   OH233033   2.766   2.172  15.965 -0.4453  0.2614  0.2995
 3873TIP3    H133034   2.821   2.251  15.969 -1.7876  1.2002  0.6869
 3873TIP3    H233035   2.689   2.198  15.915 -0.2453 -1.2593 -0.9036
 3874TIP3   OH233036   4.238   6.509   2.807  0.6951 -0.3579 -0.0312
 3874TIP3    H133037   4.211   6.440   2.868 -0.8370  0.0805 -0.1720
 3874TIP3    H233038   4.268   6.462   2.729  1.6661 -0.8930  0.6352
 3875TIP3   OH233039   3.158   2.532  14.942  0.7895 -0.7271  0.3556
 3875TIP3    H133040   3.219   2.472  14.899  1.9301  0.8487 -0.3302
 3875TIP3    H233041   3.215   2.599  14.982 -0.4610  0.5996 -0.0095
 3876TIP3   OH233042   6.471   3.914   2.178  0.0884  0.4105  0.0003
 3876TIP3    H133043   6.470   3.975   2.104 -1.5671  2.5048  1.6198
 3876TIP3    H233044   6.464   3.828   2.138  0.0874  1.4059 -2.3063
 3877TIP3   OH233045   3.859   2.630  17.297  0.6905  0.2747 -0.0055
 3877TIP3    H133046   3.900   2.679  17.368 -1.0009 -1.1196  2.0654
 3877TIP3    H233047   3.773   2.671  17.286  0.6490  0.0093 -0.7489
 3878TIP3   OH233048   6.005   0.004  13.907 -0.0547 -0.0270 -0.4931
 3878TIP3    H133049   6.067  -0.056  13.866  1.3959  1.9659 -1.3842
 3878TIP3    H233050   5.995   0.075  13.843 -0.9392  1.1794  0.9170
 3879TIP3   OH233051   6.458   3.697  13.580  0.6188 -0.8733  0.0996
 3879TIP3    H133052   6.413   3.614  13.596 -0.5425 -0.3451 -0.3066
 3879TIP3    H233053   6.387   3.761  13.572  1.5363  0.3724  1.5597
 3880TIP3   OH233054   5.364   5.225  10.706 -0.1666 -0.5294  0.3711
 3880TIP3    H133055   5.339   5.286  10.637 -1.3121  1.2532  2.2625
 3880TIP3    H233056   5.455   5.204  10.687 -0.8301 -1.3779 -2.5256
 3881TIP3   OH233057   5.539   1.688   6.457  0.3544 -0.4838  0.3984
 3881TIP3    H133058   5.544   1.647   6.371  1.3448  2.2191 -0.9317
 3881TIP3    H233059   5.449   1.671   6.486 -0.8883  0.6973 -2.3840
 3882TIP3   OH233060   4.692   4.043   4.372  0.0659  0.1274  0.6910
 3882TIP3    H133061   4.606   4.080   4.356 -0.8332 -0.3756  3.6614
 3882TIP3    H233062   4.681   3.949   4.361  0.7801  0.2034 -0.8558
 3883TIP3   OH233063   1.029   1.494  10.873  0.2769 -0.1789 -0.3061
 3883TIP3    H133064   0.991   1.425  10.927  0.7398 -0.8488 -0.8227
 3883TIP3    H233065   1.119   1.464  10.856  0.3849  0.4032 -0.7913
 3884TIP3   OH233066   4.952   4.869   2.599 -0.0541 -0.5264 -0.3797
 3884TIP3    H133067   4.859   4.887   2.610  0.1914  0.8811 -0.3272
 3884TIP3    H233068   4.956   4.796   2.538 -1.2152 -1.7358  0.9133
 3885TIP3   OH233069   0.892   3.813   3.561 -0.4440 -0.5239  0.1521
 3885TIP3    H133070   0.977   3.840   3.526 -0.3771  0.0852  0.7682
 3885TIP3    H233071   0.828   3.853   3.503 -0.3360  0.5728  0.7735
 3886TIP3   OH233072   2.122   1.929   2.633 -0.2601 -0.1094 -0.5081
 3886TIP3    H133073   2.095   1.866   2.566  1.3293 -0.6195 -0.7113
 3886TIP3    H233074   2.157   2.003   2.583 -2.7278  1.3039 -0.2910
 3887TIP3   OH233075   2.035   2.907  14.052  0.3411 -0.1123  0.1526
 3887TIP3    H133076   2.010   2.850  13.980 -0.8667  1.3961 -0.6746
 3887TIP3    H233077   2.124   2.936  14.030  0.3425 -0.4035 -0.2309
 3888TIP3   OH233078   6.024   3.736  14.435 -0.4902 -0.6807 -0.0669
 3888TIP3    H133079   6.016   3.687  14.353 -1.5945  0.4433 -0.6504
 3888TIP3    H233080   6.106   3.784  14.426  0.3539 -1.9932  0.3045
 3889TIP3   OH233081   3.133   0.732   2.658 -0.1343  0.4727  0.0863
 3889TIP3    H133082   3.184   0.651   2.653 -0.6324  0.1549  0.0215
 3889TIP3    H233083   3.065   0.721   2.592  0.6264  1.5525 -0.9102
 3890TIP3   OH233084   6.704   4.848   3.894 -0.0681 -0.3049  0.4140
 3890TIP3    H133085   6.619   4.812   3.922 -0.4944  0.5971  0.2953
 3890TIP3    H233086   6.697   4.856   3.799  0.6735 -1.5200  0.2243
 3891TIP3   OH233087   5.026   1.571   0.422  0.5536  0.3560  0.0232
 3891TIP3    H133088   5.073   1.649   0.450 -0.3921  1.5201 -1.4515
 3891TIP3    H233089   5.035   1.510   0.495  1.8112  1.6172  0.9788
 3892TIP3   OH233090   4.663   0.012   1.847 -0.1483  0.0226  0.2643
 3892TIP3    H133091   4.686   0.078   1.913  0.3159  0.4768 -0.3445
 3892TIP3    H233092   4.569  -0.004   1.860 -0.2283  0.6887  0.5161
 3893TIP3   OH233093   1.853   2.631  15.858 -0.1631 -0.2352 -0.0109
 3893TIP3    H133094   1.848   2.549  15.907 -2.5441 -0.3050 -0.2514
 3893TIP3    H233095   1.820   2.608  15.771  0.3419  0.7294 -0.4702
 3894TIP3   OH233096   4.092   1.498  12.483 -0.0835  0.5160 -0.1965
 3894TIP3    H133097   4.086   1.403  12.483  2.5465  0.2456  0.9748
 3894TIP3    H233098   4.002   1.529  12.473 -1.3374 -2.0917  1.9939
 3895TIP3   OH233099   5.525   2.887  17.378  0.4925 -0.1224  0.0907
 3895TIP3    H133100   5.612   2.849  17.377  0.2947 -0.6625 -2.2562
 3895TIP3    H233101   5.478   2.842  17.308 -0.6810  2.3407 -0.8227
 3896TIP3   OH233102   2.536   5.861   5.256  0.1638 -0.1386 -0.3111
 3896TIP3    H133103   2.478   5.937   5.252  0.8567  0.3712 -1.2641
 3896TIP3    H233104   2.540   5.838   5.349 -0.2583  0.8358 -0.0413
 3897TIP3   OH233105   2.181   0.802  16.731 -0.1573  0.6123 -0.1477
 3897TIP3    H133106   2.148   0.794  16.642  0.0949  1.2191 -0.3001
 3897TIP3    H233107   2.272   0.829  16.721  0.0853 -0.0083  0.2878
 3898TIP3   OH233108   3.950   3.411   3.872 -0.5066 -0.1498  0.6250
 3898TIP3    H133109   4.021   3.475   3.876 -2.1608  1.7913  0.9173
 3898TIP3    H233110   3.921   3.403   3.963 -1.0678 -0.4041  0.4249
 3899TIP3   OH233111   2.408   0.507   1.033 -0.2102  0.5127  0.0266
 3899TIP3    H133112   2.437   0.578   0.976 -1.5081 -0.0743 -1.4229
 3899TIP3    H233113   2.406   0.430   0.976  1.5770 -0.8501  1.6432
 3900TIP3   OH233114   1.557   4.077  14.575  0.2745 -0.2278 -0.1685
 3900TIP3    H133115   1.481   4.020  14.576  0.5727 -0.6417 -0.4448
 3900TIP3    H233116   1.591   4.074  14.665  0.9549 -1.4171 -0.4436
 3901TIP3   OH233117   0.753   5.272  13.575  0.0259  0.1902 -0.2951
 3901TIP3    H133118   0.752   5.366  13.557 -0.5970  0.3396  0.4538
 3901TIP3    H233119   0.845   5.247  13.567  0.2865  0.9915  0.1003
 3902TIP3   OH233120   3.815   3.492  10.938  0.0025  0.0469  0.2012
 3902TIP3    H133121   3.850   3.446  10.862 -0.6142  1.7629 -1.1929
 3902TIP3    H233122   3.891   3.534  10.978 -0.0222  1.4283 -1.1399
 3903TIP3   OH233123   5.306   6.344  17.291  0.0589 -0.0716  0.2399
 3903TIP3    H133124   5.347   6.269  17.333  0.8139 -0.0126 -0.3762
 3903TIP3    H233125   5.285   6.313  17.202 -0.0431  0.3082  0.1318
 3904TIP3   OH233126   4.990   1.759   2.688 -0.6346  0.4551  0.0785
 3904TIP3    H133127   4.986   1.732   2.596 -1.2088 -0.3317  0.3291
 3904TIP3    H233128   4.944   1.690   2.736 -0.6232  1.0182  0.9253
 3905TIP3   OH233129   6.354   4.595   1.744  0.1561  0.2146  0.0468
 3905TIP3    H133130   6.329   4.686   1.732 -2.2369 -0.7288 -3.6280
 3905TIP3    H233131   6.277   4.554   1.784  0.8217 -0.4332  0.7157
 3906TIP3   OH233132   4.715   3.019  16.692  0.6497 -0.2432 -0.3512
 3906TIP3    H133133   4.742   3.091  16.634  2.1180 -0.6564 -0.2359
 3906TIP3    H233134   4.621   3.012  16.680  0.4755  1.6980 -0.3610
 3907TIP3   OH233135   0.292   1.341   4.852 -0.1421  0.1123 -0.2772
 3907TIP3    H133136   0.237   1.404   4.806 -1.6450  0.9692  2.4969
 3907TIP3    H233137   0.264   1.256   4.819 -0.2471  0.7050 -1.8181
 3908TIP3   OH233138   0.160   0.793  13.050 -0.4754 -0.8860 -0.2254
 3908TIP3    H133139   0.171   0.837  12.965 -4.8340  1.1850 -0.0336
 3908TIP3    H233140   0.088   0.732  13.035 -0.9579 -0.8857  1.8255
 3909TIP3   OH233141   3.967   2.285   1.561 -0.1246 -0.3198  0.5039
 3909TIP3    H133142   3.921   2.202   1.576 -0.8562 -0.2818 -1.3239
 3909TIP3    H233143   4.055   2.259   1.532 -0.1659 -0.4385  0.4850
 3910TIP3   OH233144   4.656   5.247   0.737  0.0860 -0.4851  0.2227
 3910TIP3    H133145   4.735   5.194   0.735  0.3431 -0.1614  1.1542
 3910TIP3    H233146   4.686   5.336   0.755 -0.3818 -0.0909 -0.8171
 3911TIP3   OH233147   1.608   2.972  12.233  0.1591  0.1845 -0.5466
 3911TIP3    H133148   1.583   2.896  12.180  2.4925  0.0867 -1.6106
 3911TIP3    H233149   1.662   2.935  12.303  0.1959  0.7399 -0.2798
 3912TIP3   OH233150   6.248   1.978  14.328 -0.0953 -0.1487 -0.6532
 3912TIP3    H133151   6.325   1.934  14.365  1.0377  0.8951 -1.6997
 3912TIP3    H233152   6.175   1.945  14.380  1.1728 -0.3627  1.0932
 3913TIP3   OH233153   5.843   4.976  17.082 -0.1206  0.0840  0.3782
 3913TIP3    H133154   5.814   4.896  17.038  0.7983  0.9950 -2.0794
 3913TIP3    H233155   5.939   4.967  17.086 -0.1478  0.2284  1.8947
 3914TIP3   OH233156   5.332   6.092  13.073 -0.0732 -0.1586 -0.3603
 3914TIP3    H133157   5.251   6.139  13.098  0.7187  2.5016 -2.3425
 3914TIP3    H233158   5.392   6.110  13.145 -0.4761 -0.0303 -0.0488
 3915TIP3   OH233159   0.852   4.435   5.199  0.2467  0.6078 -0.0857
 3915TIP3    H133160   0.919   4.382   5.243  2.1731  1.0925 -2.1849
 3915TIP3    H233161   0.852   4.518   5.247 -0.5257 -0.1652  1.3064
 3916TIP3   OH233162   3.181   5.185  11.815 -0.2345  0.0971  0.0910
 3916TIP3    H133163   3.128   5.247  11.866 -1.5588 -1.1213  0.2697
 3916TIP3    H233164   3.265   5.181  11.861 -1.1432 -0.4087  1.7977
 3917TIP3   OH233165   1.365   5.697  17.219 -0.4332  0.1384  0.4348
 3917TIP3    H133166   1.353   5.727  17.310  0.9895  1.3428  0.2603
 3917TIP3    H233167   1.301   5.746  17.169 -0.9638 -0.2478  0.7222
 3918TIP3   OH233168   2.018   1.538   0.984 -0.4006  0.6556  0.2337
 3918TIP3    H133169   1.997   1.460   1.035 -2.5156  0.7047 -0.4738
 3918TIP3    H233170   2.074   1.590   1.041  0.5500 -1.0821  0.9449
 3919TIP3   OH233171   1.360   2.367  12.258  0.0904 -0.2820  0.1452
 3919TIP3    H133172   1.383   2.275  12.246 -0.2396 -0.2689 -0.6795
 3919TIP3    H233173   1.445   2.410  12.272  0.2256 -0.7353  0.7734
 3920TIP3   OH233174   1.225   3.140   4.766  0.1854  0.5360 -0.0697
 3920TIP3    H133175   1.218   3.190   4.685 -0.1338  1.1890  0.3493
 3920TIP3    H233176   1.317   3.147   4.791  0.1477  0.9141 -0.0213
 3921TIP3   OH233177   2.564   1.414   1.544  0.2340 -0.0841 -0.5501
 3921TIP3    H133178   2.500   1.346   1.522 -1.6636  0.9909  1.2407
 3921TIP3    H233179   2.543   1.438   1.635  2.2252  1.4156 -0.4129
 3922TIP3   OH233180   3.128   6.117   1.729 -0.3344 -0.3334  0.9676
 3922TIP3    H133181   3.142   6.110   1.635  0.9041 -0.2716  1.1305
 3922TIP3    H233182   3.065   6.189   1.738  1.8813  1.8183  0.3000
 3923TIP3   OH233183   1.140   4.594  16.955 -0.0656  0.2254  0.4689
 3923TIP3    H133184   1.059   4.586  17.005 -0.3588 -1.9272 -0.2633
 3923TIP3    H233185   1.136   4.681  16.916 -0.4327  1.4705  3.0605
 3924TIP3   OH233186   1.375   3.556   0.492 -0.7279  0.0754  0.3968
 3924TIP3    H133187   1.453   3.612   0.484 -2.7082  3.0604  0.3290
 3924TIP3    H233188   1.339   3.578   0.578 -1.1094 -1.8958  0.7923
 3925TIP3   OH233189   3.671   3.646  10.381  0.2841 -0.4451  0.1202
 3925TIP3    H133190   3.713   3.727  10.409 -2.2570  0.1811  2.6318
 3925TIP3    H233191   3.626   3.668  10.300  1.2391  0.0797 -0.2717
 3926TIP3   OH233192   0.783   6.072  15.834 -0.0628 -0.2771  0.1534
 3926TIP3    H133193   0.877   6.087  15.839  0.0269 -0.8870  0.3248
 3926TIP3    H233194   0.745   6.135  15.896 -0.0765  2.5805 -2.5522
 3927TIP3   OH233195   4.716   3.885   3.958 -0.5066 -0.8004 -0.2945
 3927TIP3    H133196   4.641   3.941   3.978  1.4352  1.1951  1.8213
 3927TIP3    H233197   4.786   3.945   3.935  1.7071 -2.2730  2.1364
 3928TIP3   OH233198   4.442   2.699   4.856 -0.4719  0.8070 -0.1281
 3928TIP3    H133199   4.536   2.698   4.875 -0.3380  3.5149 -0.3162
 3928TIP3    H233200   4.405   2.639   4.921  1.4215 -0.9697 -0.5729
 3929TIP3   OH233201   0.397   4.876  11.442 -0.1365 -0.5383  0.1290
 3929TIP3    H133202   0.485   4.876  11.479 -0.2668  1.1327  0.5065
 3929TIP3    H233203   0.408   4.908  11.353 -0.3034 -0.8804 -0.0176
 3930TIP3   OH233204   4.220   6.465  13.600 -0.3343  0.3644  0.4178
 3930TIP3    H133205   4.213   6.406  13.525 -0.2631  0.9805 -0.0789
 3930TIP3    H233206   4.159   6.428  13.665 -0.9817  0.2580 -0.2317
 3931TIP3   OH233207   3.844   5.550   5.663  0.2071 -0.0971 -0.5287
 3931TIP3    H133208   3.797   5.586   5.739  1.6146  0.5724  0.0859
 3931TIP3    H233209   3.850   5.624   5.602  1.4765  0.2311 -0.0630
 3932TIP3   OH233210   4.305   2.403   0.703  0.3311  0.2314  0.3295
 3932TIP3    H133211   4.376   2.339   0.702 -0.2546 -0.4077 -0.6020
 3932TIP3    H233212   4.229   2.355   0.736 -0.5419 -0.0424 -1.9543
 3933TIP3   OH233213   1.255   3.115   1.390 -0.4999 -0.2446  0.4659
 3933TIP3    H133214   1.277   3.181   1.323 -0.3251 -0.2144  0.5526
 3933TIP3    H233215   1.330   3.115   1.449  0.3130 -1.7707 -0.4921
 3934TIP3   OH233216   3.694   6.466  14.360  0.3842  0.5360  0.0771
 3934TIP3    H133217   3.670   6.410  14.286 -0.5575  1.7884 -0.6015
 3934TIP3    H233218   3.681   6.410  14.437 -2.4945  0.3672 -0.4234
 3935TIP3   OH233219   4.937   1.431  12.180 -0.2751  0.0985 -0.4030
 3935TIP3    H133220   5.032   1.433  12.168 -0.3918 -0.9441 -1.8108
 3935TIP3    H233221   4.901   1.446  12.092 -1.3302 -2.9643 -0.6057
 3936TIP3   OH233222   1.706   1.414   4.355  0.6305 -0.2030  0.1222
 3936TIP3    H133223   1.740   1.496   4.390 -0.2761  0.4384 -0.4592
 3936TIP3    H233224   1.783   1.369   4.320  1.3719 -0.3488  1.8678
 3937TIP3   OH233225   2.198   0.789   1.293 -0.5913 -0.1339  0.0921
 3937TIP3    H133226   2.144   0.832   1.227  0.7420 -1.2124 -1.7962
 3937TIP3    H233227   2.186   0.696   1.277 -0.2660 -0.4252  1.4267
 3938TIP3   OH233228   3.673   3.273   2.411  0.3375 -0.2800  0.5839
 3938TIP3    H133229   3.685   3.283   2.317  1.7096  0.1393  0.7852
 3938TIP3    H233230   3.617   3.347   2.436  1.1742  0.4557  0.3175
 3939TIP3   OH233231   4.683   1.018   1.405 -0.1716  0.1982  0.0387
 3939TIP3    H133232   4.665   1.034   1.498 -1.1604  0.8837 -0.2583
 3939TIP3    H233233   4.597   1.015   1.364  0.2509 -0.3619 -0.8209
 3940TIP3   OH233234   0.218   4.876  16.237  0.0590 -0.2570 -0.1408
 3940TIP3    H133235   0.268   4.893  16.317 -0.5891 -1.4156  0.5286
 3940TIP3    H233236   0.277   4.824  16.183  0.4519  0.4216 -0.3810
 3941TIP3   OH233237   2.694   1.395   5.739  0.2808 -0.6224  0.4180
 3941TIP3    H133238   2.748   1.395   5.659  1.1850 -3.0264  0.9535
 3941TIP3    H233239   2.614   1.440   5.713  1.4309  0.6326 -1.2002
 3942TIP3   OH233240   1.130   3.010   3.383 -0.2871  0.2049  0.1430
 3942TIP3    H133241   1.213   2.963   3.383 -0.4349 -0.0628 -0.3495
 3942TIP3    H233242   1.134   3.066   3.306 -0.2701  0.7222  0.5157
 3943TIP3   OH233243   6.195   2.203  11.861  0.1353 -0.0712  0.4662
 3943TIP3    H133244   6.228   2.279  11.909 -0.4104  0.5769 -0.1637
 3943TIP3    H233245   6.119   2.236  11.814 -0.1206 -1.0208  0.2015
 3944TIP3   OH233246   0.103   2.478   1.910 -0.0907  0.5751  0.1268
 3944TIP3    H133247   0.174   2.436   1.958 -1.3403 -0.2900  1.2689
 3944TIP3    H233248   0.133   2.568   1.897  1.9240 -0.1795 -0.9190
 3945TIP3   OH233249   4.129   2.611   3.346  0.2646  0.5169 -0.0378
 3945TIP3    H133250   4.137   2.542   3.412  0.3999 -0.5704 -1.1421
 3945TIP3    H233251   4.172   2.687   3.385  0.7596 -0.2386  0.9384
 3946TIP3   OH233252   1.098   1.823  16.028 -0.3802 -0.5431 -0.3129
 3946TIP3    H133253   1.038   1.843  16.100  1.0418  4.3909 -0.1625
 3946TIP3    H233254   1.041   1.810  15.953 -1.7919  0.6827  0.4840
 3947TIP3   OH233255   6.652   1.680  12.558  0.0132 -0.3997 -0.0751
 3947TIP3    H133256   6.713   1.702  12.488 -1.1017 -0.7524 -1.1979
 3947TIP3    H233257   6.583   1.629  12.515 -1.6276  0.8508  0.9138
 3948TIP3   OH233258   4.540   1.240  14.161  0.0177 -0.3822 -0.1765
 3948TIP3    H133259   4.527   1.244  14.067 -1.5784  0.4587  0.0366
 3948TIP3    H233260   4.560   1.149  14.180  0.9004 -0.4499 -1.3784
 3949TIP3   OH233261   0.104   2.386   4.080 -0.4040 -0.2328  0.0320
 3949TIP3    H133262   0.161   2.440   4.024  1.4081 -2.2945 -0.2248
 3949TIP3    H233263   0.150   2.382   4.164 -0.6905 -1.0733  0.1562
 3950TIP3   OH233264   0.648   2.461  14.354  0.1054 -0.7312 -0.0797
 3950TIP3    H133265   0.654   2.458  14.258  0.5725 -1.5281 -0.0311
 3950TIP3    H233266   0.673   2.551  14.376 -1.5892 -0.0338 -0.7966
 3951TIP3   OH233267   1.414   4.690   2.452  0.0580 -0.0349 -0.6271
 3951TIP3    H133268   1.395   4.632   2.378 -1.4543 -0.1126 -0.2192
 3951TIP3    H233269   1.355   4.660   2.521  0.4861  0.8990  0.1640
 3952TIP3   OH233270   0.545   3.409  15.860 -0.1323 -0.6410  0.0147
 3952TIP3    H133271   0.507   3.347  15.798 -0.5995  0.2803 -0.6432
 3952TIP3    H233272   0.633   3.374  15.877 -0.8470 -2.1956  0.7087
 3953TIP3   OH233273   5.951   4.493  11.882 -0.1577  0.8407 -0.2430
 3953TIP3    H133274   5.952   4.569  11.940  0.3741  2.1259 -1.8545
 3953TIP3    H233275   6.044   4.471  11.870 -0.3387 -1.1671  1.5229
 3954TIP3   OH233276   4.664   0.958  11.773 -0.2539  0.0660  0.1005
 3954TIP3    H133277   4.603   0.914  11.832 -0.1107  0.7132  0.7591
 3954TIP3    H233278   4.618   0.965  11.690 -1.2647  0.9246  0.6996
 3955TIP3   OH233279   6.732   5.908   2.582 -0.5636  0.5127 -0.4690
 3955TIP3    H133280   6.738   5.997   2.547 -1.8447 -0.1597 -2.5730
 3955TIP3    H233281   6.756   5.852   2.508 -0.2939 -0.9334  0.6717
 3956TIP3   OH233282   5.156   2.820  16.928 -0.2439  0.4090 -0.6618
 3956TIP3    H133283   5.187   2.790  16.843  2.3968  0.0096  0.3515
 3956TIP3    H233284   5.106   2.746  16.963  1.0441 -0.5470 -0.7491
 3957TIP3   OH233285   0.375   0.289   0.927  0.1035 -0.5505  0.4409
 3957TIP3    H133286   0.304   0.319   0.870  1.4327 -2.8264 -2.6725
 3957TIP3    H233287   0.421   0.369   0.952 -1.1483  0.6321 -0.8500
 3958TIP3   OH233288   4.970   2.363  16.656  0.2455  0.0471  0.3562
 3958TIP3    H133289   5.047   2.360  16.712 -0.5192  1.5268  1.5429
 3958TIP3    H233290   5.001   2.404  16.575  1.0527 -0.8876  0.1751
 3959TIP3   OH233291   2.207   2.540  16.704  0.4129  0.2568 -0.3665
 3959TIP3    H133292   2.220   2.615  16.763  0.4408 -1.2668  1.6815
 3959TIP3    H233293   2.112   2.530  16.698  0.3679 -1.0152  1.4742
 3960TIP3   OH233294   3.410   0.499   5.331 -0.3461 -0.0334 -0.4201
 3960TIP3    H133295   3.428   0.503   5.426 -0.8522 -0.0647 -0.3230
 3960TIP3    H233296   3.493   0.525   5.291  0.7635 -2.6916 -0.0284
 3961TIP3   OH233297   5.181   2.400  16.238  0.2144  0.3664 -0.0297
 3961TIP3    H133298   5.249   2.379  16.301 -2.1376  0.1822  2.6864
 3961TIP3    H233299   5.150   2.315  16.207 -0.6711  0.2573  1.0471
 3962TIP3   OH233300   6.656   4.984  15.523 -0.3579  0.0581  0.3207
 3962TIP3    H133301   6.735   4.931  15.524  0.2280  0.9213  0.1649
 3962TIP3    H233302   6.681   5.065  15.478 -1.7093 -0.2555 -1.1051
 3963TIP3   OH233303   3.962   6.647   3.028  0.0093  0.0456 -0.6327
 3963TIP3    H133304   4.053   6.626   3.010  0.6498  1.0040  1.1729
 3963TIP3    H233305   3.912   6.571   2.996  1.6169 -1.4009  0.1519
 3964TIP3   OH233306   3.194   3.721   0.554 -0.2025 -0.2879 -0.4167
 3964TIP3    H133307   3.268   3.660   0.553 -0.4704 -0.7049 -3.3990
 3964TIP3    H233308   3.162   3.721   0.464 -4.8436 -1.3183  0.9763
 3965TIP3   OH233309   5.390   6.259  12.097 -0.2073  0.3439 -0.3168
 3965TIP3    H133310   5.352   6.316  12.031  0.6222 -1.6072 -2.5966
 3965TIP3    H233311   5.483   6.257  12.077 -0.4081 -3.1208 -1.5282
 3966TIP3   OH233312   5.357   2.912   3.517  0.2787  0.1361 -0.1283
 3966TIP3    H133313   5.317   2.925   3.431 -2.0476 -1.3245  0.6491
 3966TIP3    H233314   5.355   2.818   3.531  0.5420  0.3472  1.5601
 3967TIP3   OH233315   3.999   1.496  11.146 -0.0180  0.1031 -0.6291
 3967TIP3    H133316   4.013   1.546  11.065 -0.8202  0.9987 -0.2357
 3967TIP3    H233317   4.082   1.504  11.193  0.6178 -0.8301 -1.5660
 3968TIP3   OH233318   6.763   0.937  11.072 -0.0392 -0.2272 -0.3681
 3968TIP3    H133319   6.824   0.949  11.145  0.5148 -2.5148 -0.3995
 3968TIP3    H233320   6.813   0.963  10.994 -0.1852  0.8925 -0.1142
 3969TIP3   OH233321   4.407   0.367  15.243  0.2468 -0.3934  0.3363
 3969TIP3    H133322   4.425   0.458  15.265 -1.1973  0.1158 -0.4354
 3969TIP3    H233323   4.345   0.372  15.170  3.3789 -1.9544 -2.7150
 3970TIP3   OH233324   5.312   2.961  15.586 -0.2632 -0.1050  0.4354
 3970TIP3    H133325   5.248   2.916  15.642 -2.2229  0.9984 -0.8343
 3970TIP3    H233326   5.262   3.028  15.540  1.7954  0.7130 -0.7606
 3971TIP3   OH233327   1.078   2.890  11.701  0.1028 -0.1237 -0.5906
 3971TIP3    H133328   1.050   2.967  11.751  1.5253 -1.7454  3.0381
 3971TIP3    H233329   1.169   2.910  11.677  0.4309 -0.5916  0.2410
 3972TIP3   OH233330   2.421   2.170  11.117 -0.0650  0.3784  0.1482
 3972TIP3    H133331   2.425   2.163  11.213  1.2575  1.0059  0.1560
 3972TIP3    H233332   2.364   2.098  11.091  1.1654 -1.0792  1.2632
 3973TIP3   OH233333   4.654   2.114  10.590 -1.0018 -0.4724  0.0765
 3973TIP3    H133334   4.583   2.070  10.542 -0.7177  0.6614 -1.4481
 3973TIP3    H233335   4.712   2.043  10.617 -0.9176 -1.1437 -1.7289
 3974TIP3   OH233336   6.566   6.118  12.243 -0.3564 -0.0618 -0.2641
 3974TIP3    H133337   6.519   6.061  12.304 -0.9196 -1.1794 -1.6621
 3974TIP3    H233338   6.523   6.102  12.159  1.0922  0.5975 -1.1608
 3975TIP3   OH233339   0.046   6.289  11.888 -0.8533  0.0273  0.1760
 3975TIP3    H133340   0.042   6.213  11.830 -0.7182 -0.4497  0.7707
 3975TIP3    H233341   0.095   6.355  11.840  0.2830 -0.7727  0.1942
 3976TIP3   OH233342   0.820   0.313   3.720  0.3209 -0.0992  0.0711
 3976TIP3    H133343   0.875   0.297   3.796  0.8821 -1.4645 -0.5922
 3976TIP3    H233344   0.879   0.305   3.645 -0.6833 -1.2514 -0.6371
 3977TIP3   OH233345   0.223   4.196   3.610 -0.0355 -0.3532  0.0858
 3977TIP3    H133346   0.270   4.245   3.677  1.8813 -0.8304 -0.8259
 3977TIP3    H233347   0.291   4.145   3.566 -1.3645 -0.7668 -1.5960
 3978TIP3   OH233348   3.108   2.122  13.404  0.3231  0.3433 -0.3973
 3978TIP3    H133349   3.178   2.150  13.464 -1.1983  2.4928  0.5050
 3978TIP3    H233350   3.041   2.084  13.461  0.6073 -1.5386 -1.2398
 3979TIP3   OH233351   0.124   2.328  12.007 -0.3741  0.3308 -0.4020
 3979TIP3    H133352   0.152   2.255  12.062  1.3161  2.5345  1.8810
 3979TIP3    H233353   0.028   2.327  12.013 -0.3000 -0.4740  1.3576
 3980TIP3   OH233354   3.609   5.841  11.959 -0.3245 -0.5299  0.1590
 3980TIP3    H133355   3.611   5.746  11.973 -0.7420 -1.0878 -3.0067
 3980TIP3    H233356   3.576   5.852  11.870  1.3379  2.5302 -0.1994
 3981TIP3   OH233357   4.226   2.671   4.629 -0.3856 -0.6649 -0.0869
 3981TIP3    H133358   4.218   2.648   4.722  0.8262  0.2704  0.2668
 3981TIP3    H233359   4.138   2.656   4.594 -1.4143  0.8153  1.6414
 3982TIP3   OH233360   3.421   6.483   1.819 -0.2443  0.1338 -0.1733
 3982TIP3    H133361   3.429   6.570   1.857 -0.1752  0.1892 -0.3148
 3982TIP3    H233362   3.350   6.442   1.869 -2.7418  1.4846 -2.3526
 3983TIP3   OH233363   4.148   0.058  11.179  0.0883  0.1253  0.5879
 3983TIP3    H133364   4.151   0.053  11.275  1.2177 -1.2052  0.5071
 3983TIP3    H233365   4.070   0.111  11.161 -0.0223  0.5897  2.2375
 3984TIP3   OH233366   6.128   1.575  12.151 -0.2719 -0.8222  0.1429
 3984TIP3    H133367   6.147   1.648  12.209 -0.8033 -0.1323 -0.5367
 3984TIP3    H233368   6.148   1.608  12.063 -2.9927 -0.5788 -0.4659
 3985TIP3   OH233369   1.461   3.505   1.043 -0.3242  0.0428  0.1957
 3985TIP3    H133370   1.388   3.447   1.019 -0.2234  0.0186 -0.0466
 3985TIP3    H233371   1.439   3.533   1.132 -2.2927  2.5796 -0.9507
 3986TIP3   OH233372   0.177   2.042   2.807 -0.5023  0.7304  0.1304
 3986TIP3    H133373   0.174   2.038   2.903  1.4269 -0.9553  0.1955
 3986TIP3    H233374   0.220   2.125   2.787 -0.5872  0.9206  0.7353
 3987TIP3   OH233375   0.740   2.375  10.933  0.3244 -0.2914  0.0920
 3987TIP3    H133376   0.715   2.385  10.841  0.1827 -0.8150  0.0710
 3987TIP3    H233377   0.781   2.459  10.956 -0.4551  0.1756 -0.1845
 3988TIP3   OH233378   2.740   1.918  12.353  0.2967  0.6435 -0.2200
 3988TIP3    H133379   2.682   1.972  12.299  0.5460  0.1078 -1.0319
 3988TIP3    H233380   2.709   1.933  12.442 -0.4077  1.1934 -0.5418
 3989TIP3   OH233381   3.572   6.081   5.829  0.1497  0.5067  0.2754
 3989TIP3    H133382   3.626   6.076   5.750 -0.1850  1.5795 -0.0421
 3989TIP3    H233383   3.487   6.046   5.803  0.1476  0.5237  0.2588
 3990TIP3   OH233384   1.501   3.172   4.757  0.3056  0.4462  0.3214
 3990TIP3    H133385   1.482   3.257   4.798 -0.5773 -0.7677  2.6276
 3990TIP3    H233386   1.586   3.147   4.794  0.0937 -0.1044  0.4423
 3991TIP3   OH233387   3.838   0.803  12.874 -0.4445  0.6538 -0.1022
 3991TIP3    H133388   3.749   0.837  12.878 -0.5024  0.5311 -0.3146
 3991TIP3    H233389   3.872   0.836  12.790 -0.0998  1.1642  0.2306
 3992TIP3   OH233390   4.436   6.346  17.303 -0.0449 -0.2790  0.1052
 3992TIP3    H133391   4.413   6.426  17.350 -1.1142 -0.7089  0.3459
 3992TIP3    H233392   4.435   6.278  17.370 -1.8564 -0.9422 -0.5465
 3993TIP3   OH233393   0.520   0.601  16.712 -0.3236 -0.1175  0.4187
 3993TIP3    H133394   0.582   0.584  16.782  1.1118 -1.5439 -1.0889
 3993TIP3    H233395   0.539   0.690  16.683  0.6911 -0.3535  0.3179
 3994TIP3   OH233396   6.710   2.737   5.089 -0.1020  0.4559  0.2153
 3994TIP3    H133397   6.691   2.682   5.013  1.7454  2.2629 -1.6853
 3994TIP3    H233398   6.740   2.676   5.156 -3.1710 -1.3616  0.1173
 3995TIP3   OH233399   4.523   3.807  10.782 -0.1889 -0.0716  0.1126
 3995TIP3    H133400   4.536   3.806  10.687  2.0474 -0.1796  0.3476
 3995TIP3    H233401   4.429   3.803  10.794 -0.5565  0.6024 -2.1117
 3996TIP3   OH233402   4.180   3.271   3.551 -0.3312  0.5656  0.5085
 3996TIP3    H133403   4.218   3.229   3.474 -2.4830 -2.0052  0.6820
 3996TIP3    H233404   4.242   3.340   3.574  2.0701 -0.7356 -1.5372
 3997TIP3   OH233405   4.029   0.233  16.993 -0.3576 -0.0009  0.1219
 3997TIP3    H133406   4.052   0.161  16.935 -0.7307 -1.2638  1.4879
 3997TIP3    H233407   4.099   0.234  17.059 -1.2667 -0.2589  1.1111
 3998TIP3   OH233408   6.018   6.691  16.931 -0.0109 -0.1661  0.7663
 3998TIP3    H133409   6.024   6.721  17.022 -0.6988  0.1575  0.7034
 3998TIP3    H233410   6.077   6.749  16.883  1.1621 -0.9814  1.1514
 3999TIP3   OH233411   5.638   2.549   0.738  0.2705 -0.6663 -0.2924
 3999TIP3    H133412   5.726   2.556   0.776 -0.4584  1.7352  1.1897
 3999TIP3    H233413   5.634   2.622   0.676 -0.5870 -0.9111 -0.5320
 4000TIP3   OH233414   5.348   0.777   0.073  0.4581 -0.4951 -0.0425
 4000TIP3    H133415   5.354   0.850   0.135  2.7713  0.6610 -1.4846
 4000TIP3    H233416   5.275   0.724   0.105  1.4705  0.0460  3.6049
 4001TIP3   OH233417   0.144   3.585   4.605 -0.2240  0.1211  0.7250
 4001TIP3    H133418   0.173   3.582   4.513  1.3778  0.7316  1.1757
 4001TIP3    H233419   0.118   3.676   4.618 -0.4178  0.0411  0.8827
 4002TIP3   OH233420   3.705   6.322   4.973  0.3422  0.2721 -0.2942
 4002TIP3    H133421   3.758   6.313   4.894 -1.0625  0.6547 -1.3160
 4002TIP3    H233422   3.710   6.415   4.995  0.2597  0.2715 -0.2732
 4003TIP3   OH233423   5.680   5.029   0.630  0.3216 -0.0715  0.8750
 4003TIP3    H133424   5.687   5.096   0.562  2.6424 -0.2331  0.8925
 4003TIP3    H233425   5.735   5.061   0.702 -1.6001 -0.1863  2.4986
 4004TIP3   OH233426   6.047   2.184  16.252 -0.2410 -0.3320  0.3850
 4004TIP3    H133427   6.120   2.229  16.294 -0.6078 -0.6098  1.3444
 4004TIP3    H233428   6.089   2.118  16.196  0.2603 -1.8510  2.4337
 4005TIP3   OH233429   4.666   5.585   2.337  0.0283 -0.0509 -0.2941
 4005TIP3    H133430   4.676   5.556   2.427 -1.1852 -0.2059 -0.1980
 4005TIP3    H233431   4.739   5.544   2.290  0.0507 -0.8259  0.4104
 4006TIP3   OH233432   6.308   3.454  13.141 -0.2428  0.2430 -0.4825
 4006TIP3    H133433   6.314   3.360  13.126 -0.2441  0.0757  0.4558
 4006TIP3    H233434   6.249   3.486  13.073 -1.0058 -0.5949 -0.2451
 4007TIP3   OH233435   3.325   2.702  12.008  0.3961  0.1048  0.0820
 4007TIP3    H133436   3.238   2.724  12.042  1.0705 -0.4560  2.3666
 4007TIP3    H233437   3.314   2.700  11.913 -1.7973  1.1821  0.2477
 4008TIP3   OH233438   1.626   2.762  15.022 -0.0748 -0.0586 -0.2286
 4008TIP3    H133439   1.563   2.815  15.071 -0.2457  0.9293 -1.4881
 4008TIP3    H233440   1.667   2.706  15.089 -2.9968 -1.5102  0.4956
 4009TIP3   OH233441   3.967   5.908  14.200  0.4917  0.0155  0.1290
 4009TIP3    H133442   3.919   5.834  14.163  0.4057  0.4885 -0.7342
 4009TIP3    H233443   4.055   5.874  14.215 -0.0797 -0.8772  1.7695
 4010TIP3   OH233444   3.433   2.854   2.386  0.4970  0.7628 -0.4709
 4010TIP3    H133445   3.390   2.833   2.469  0.4256 -0.2288 -0.7447
 4010TIP3    H233446   3.373   2.913   2.342 -0.5467 -0.4903 -0.7827
 4011TIP3   OH233447   4.125   0.028  12.526 -0.3557 -0.5962 -0.7676
 4011TIP3    H133448   4.172  -0.053  12.505  1.1088  0.1055 -0.3710
 4011TIP3    H233449   4.167   0.094  12.471  1.3827  0.6658  1.8467
 4012TIP3   OH233450   1.824   6.108  10.753 -0.5205 -0.7061  0.6397
 4012TIP3    H133451   1.761   6.143  10.690  0.1093  1.0538  0.9322
 4012TIP3    H233452   1.808   6.157  10.834  1.7540  0.4493  0.4841
 4013TIP3   OH233453   6.073   3.190   0.463  0.8493  0.0570 -0.0812
 4013TIP3    H133454   6.054   3.152   0.378  0.4708 -2.1122  0.9113
 4013TIP3    H233455   5.992   3.179   0.513  0.3485  3.1717 -0.0012
 4014TIP3   OH233456   3.439   4.224   2.902  0.3908 -0.1312  0.4299
 4014TIP3    H133457   3.504   4.154   2.894  0.2441 -0.6676  3.2078
 4014TIP3    H233458   3.444   4.252   2.993 -3.1914 -0.1107  0.7676
 4015TIP3   OH233459   5.518   0.476   2.112 -0.1673 -0.1500  0.0221
 4015TIP3    H133460   5.508   0.445   2.022  1.4440 -0.8834  0.0643
 4015TIP3    H233461   5.518   0.396   2.165 -0.1504  0.2123  0.5744
 4016TIP3   OH233462   2.927   6.368  11.902  0.3871 -0.0748  0.4881
 4016TIP3    H133463   3.008   6.397  11.860  0.4410 -1.1021 -0.1622
 4016TIP3    H233464   2.862   6.370  11.832  0.4920 -1.8748  0.2842
 4017TIP3   OH233465   3.661   5.009  12.139  0.2320  0.2141 -0.4202
 4017TIP3    H133466   3.644   4.983  12.229 -0.2132  1.3545 -0.1584
 4017TIP3    H233467   3.756   5.018  12.134  0.1853  1.2081  0.2564
 4018TIP3   OH233468   1.336   2.812   1.835  0.0322  0.2594 -0.0954
 4018TIP3    H133469   1.371   2.871   1.768  0.7596  0.2962  0.2962
 4018TIP3    H233470   1.242   2.809   1.818  0.3188 -0.4762 -1.6785
 4019TIP3   OH233471   2.748   5.822   3.413 -0.6070  0.1669  0.0202
 4019TIP3    H133472   2.790   5.816   3.328  0.0020  0.2387  0.3093
 4019TIP3    H233473   2.699   5.740   3.421  0.4183 -0.4553  0.1559
 4020TIP3   OH233474   6.632   1.468  14.966 -0.2323 -1.0676  0.2561
 4020TIP3    H133475   6.655   1.511  14.884 -1.7996  0.2538  0.4408
 4020TIP3    H233476   6.653   1.376  14.952  0.1319 -0.7644 -1.3829
 4021TIP3   OH233477   6.212   4.503  12.882 -0.2488 -0.4065  0.0414
 4021TIP3    H133478   6.136   4.503  12.940  0.4045 -0.3328  0.9101
 4021TIP3    H233479   6.192   4.570  12.816 -1.6750 -1.5406 -0.7501
 4022TIP3   OH233480   5.197   5.455  15.266 -0.4084 -0.1037  0.1521
 4022TIP3    H133481   5.203   5.549  15.248  1.9325 -0.0286  1.0066
 4022TIP3    H233482   5.189   5.415  15.179 -0.8026  0.8352 -0.2638
 4023TIP3   OH233483   5.141   4.733  14.251  0.4194  0.1615  0.0424
 4023TIP3    H133484   5.047   4.712  14.245 -0.0249  1.5149  1.5566
 4023TIP3    H233485   5.151   4.812  14.198  0.3736  0.8625  1.0404
 4024TIP3   OH233486   1.297   5.025  11.639  0.2032 -0.2741  0.3954
 4024TIP3    H133487   1.275   5.109  11.598  0.7858 -0.4197 -0.2274
 4024TIP3    H233488   1.290   4.961  11.569  0.8161 -0.5848  0.6114
 4025TIP3   OH233489   3.783   3.740   5.635  0.2888  0.3013 -0.2298
 4025TIP3    H133490   3.876   3.727   5.654  0.4536  3.6958  2.3205
 4025TIP3    H233491   3.737   3.686   5.698  0.5460 -0.1812 -0.4536
 4026TIP3   OH233492   2.114   0.145  14.082  0.0033  0.1448  0.3282
 4026TIP3    H133493   2.055   0.093  14.028 -1.2215  1.0313  0.7666
 4026TIP3    H233494   2.197   0.146  14.034 -0.2970 -1.2110 -0.2510
 4027TIP3   OH233495   4.441   2.177  12.859  0.1362  0.2385 -0.0736
 4027TIP3    H133496   4.445   2.273  12.868 -1.4492  0.3079  0.2815
 4027TIP3    H233497   4.439   2.145  12.950 -2.6775  0.1166 -0.0886
 4028TIP3   OH233498   6.018   3.877  16.001 -0.1761  0.3261 -0.1462
 4028TIP3    H133499   6.091   3.902  16.057 -0.9404  0.3712  0.8458
 4028TIP3    H233500   5.941   3.911  16.045 -0.9437 -0.9546 -0.4493
 4029TIP3   OH233501   2.149   5.912  13.527 -0.0582  0.3809  0.1523
 4029TIP3    H133502   2.184   5.868  13.604 -0.0108 -0.4673 -0.3468
 4029TIP3    H233503   2.054   5.897  13.531 -0.0342  0.1585 -0.0565
 4030TIP3   OH233504   1.966   6.370   4.660 -0.1270  0.1433 -0.1722
 4030TIP3    H133505   2.047   6.346   4.615  0.0774  0.9178 -0.2272
 4030TIP3    H233506   1.898   6.321   4.614 -0.0633  1.6352 -1.9698
 4031TIP3   OH233507   3.562   3.332  14.385  0.5193 -0.2378 -0.0157
 4031TIP3    H133508   3.469   3.329  14.407  0.6390 -0.2369  0.5005
 4031TIP3    H233509   3.566   3.299  14.295 -0.4108  3.4319 -1.5692
 4032TIP3   OH233510   3.922   3.544  16.720 -0.1994  0.7117  0.3094
 4032TIP3    H133511   3.838   3.591  16.713 -0.6240  0.0919  1.1260
 4032TIP3    H233512   3.986   3.613  16.739 -0.2562  1.3939 -1.7635
 4033TIP3   OH233513   0.605   1.713   0.474  0.0901 -0.1970  0.7791
 4033TIP3    H133514   0.674   1.650   0.455 -0.9387 -0.6334 -1.9128
 4033TIP3    H233515   0.537   1.662   0.519 -0.3220 -0.8302 -0.5155
 4034TIP3   OH233516   5.061   0.254  15.359  0.0368  0.0517  0.3348
 4034TIP3    H133517   5.022   0.273  15.274  0.5870  0.7355  0.2217
 4034TIP3    H233518   5.150   0.289  15.353  0.7816 -1.7049  0.4916
 4035TIP3   OH233519   2.031   5.102  16.623 -0.2474 -0.5003 -0.6256
 4035TIP3    H133520   2.033   5.112  16.527  1.6373  0.0312 -0.5754
 4035TIP3    H233521   2.058   5.012  16.638 -0.9272 -0.7032 -0.5926
 4036TIP3   OH233522   4.354   6.387  11.932 -0.4025 -0.3703  0.7382
 4036TIP3    H133523   4.281   6.357  11.877 -1.5244 -0.6381  2.3001
 4036TIP3    H233524   4.416   6.314  11.931 -1.8650 -1.7111  2.3248
 4037TIP3   OH233525   4.662   6.016  10.699  0.1089 -0.5764 -0.0386
 4037TIP3    H133526   4.651   6.007  10.605 -2.6830 -0.3807  0.1826
 4037TIP3    H233527   4.749   6.054  10.710 -0.1290  0.9188 -2.6473
 4038TIP3   OH233528   0.370   3.795  17.294 -0.1993 -0.0247  0.3157
 4038TIP3    H133529   0.397   3.777  17.204 -0.6965 -0.6315  0.2851
 4038TIP3    H233530   0.326   3.715  17.323  0.1363  0.0886  1.1718
 4039TIP3   OH233531   0.492   4.325   5.593  0.1463 -0.3987  0.5332
 4039TIP3    H133532   0.524   4.412   5.567 -0.5376  0.1671  1.5172
 4039TIP3    H233533   0.484   4.277   5.510  1.9903 -0.0541  0.0937
 4040TIP3   OH233534   0.822   1.331  10.252 -0.0499 -0.0159  0.2207
 4040TIP3    H133535   0.809   1.420  10.219  1.2775  1.0564  2.3765
 4040TIP3    H233536   0.734   1.298  10.268 -0.5553  1.5850  0.9696
 4041TIP3   OH233537   1.253   4.817   3.565  0.3414  0.0735  0.0895
 4041TIP3    H133538   1.159   4.825   3.546  0.2022  1.5239  1.2046
 4041TIP3    H233539   1.265   4.724   3.583 -1.6585  0.2788  3.3911
 4042TIP3   OH233540   3.497   1.372  12.090 -0.3092 -0.3315  0.0852
 4042TIP3    H133541   3.429   1.327  12.040  0.1556  0.4963 -1.3568
 4042TIP3    H233542   3.546   1.421  12.024 -0.1278  1.4154  1.4554
 4043TIP3   OH233543   0.424   4.937   6.009  0.1253  0.0822  0.3161
 4043TIP3    H133544   0.401   5.012   6.063 -2.0263 -0.2383 -0.0796
 4043TIP3    H233545   0.414   4.861   6.067  0.7614 -0.0448  0.2748
 4044TIP3   OH233546   2.226   3.934  15.981  0.6186 -0.4858  0.1192
 4044TIP3    H133547   2.132   3.956  15.984  0.1763 -2.2184 -0.1017
 4044TIP3    H233548   2.262   3.974  16.060 -0.1849  0.6572 -0.0624
 4045TIP3   OH233549   0.309   3.981  13.100 -0.7076 -0.1798 -0.1377
 4045TIP3    H133550   0.347   4.045  13.161  0.3120 -2.4302  1.7620
 4045TIP3    H233551   0.227   3.955  13.142 -0.3063 -1.2973 -0.0192
 4046TIP3   OH233552   4.637   3.905  12.699  0.0404 -0.1868 -0.0231
 4046TIP3    H133553   4.630   3.953  12.782 -1.4586 -0.5734  0.1054
 4046TIP3    H233554   4.701   3.954  12.648 -0.1630  0.9429  0.7748
 4047TIP3   OH233555   3.831   5.926  10.654 -0.1703  0.1785  0.2014
 4047TIP3    H133556   3.777   5.939  10.576 -1.1373 -0.1854  0.7905
 4047TIP3    H233557   3.903   5.988  10.644  0.7265 -1.0775 -1.8555
 4048TIP3   OH233558   4.640   3.783   5.642 -0.2561  0.1117  0.2465
 4048TIP3    H133559   4.716   3.759   5.588 -0.1167 -0.7479  0.7960
 4048TIP3    H233560   4.678   3.825   5.719 -0.4352  1.0192 -0.1431
 4049TIP3   OH233561   5.196   4.604   2.471 -0.2920  0.5067 -0.0660
 4049TIP3    H133562   5.278   4.629   2.428  1.2137 -2.4918  0.8120
 4049TIP3    H233563   5.221   4.588   2.562 -2.1430  0.6924  0.5219
 4050TIP3   OH233564   1.563   2.304  11.291 -0.0572 -0.5906 -0.3760
 4050TIP3    H133565   1.533   2.294  11.381 -1.8301 -0.6833 -0.9407
 4050TIP3    H233566   1.492   2.352  11.247  0.5107 -1.0557 -1.8518
 4051TIP3   OH233567   3.161   6.497  14.095 -0.3061  0.0492 -0.5577
 4051TIP3    H133568   3.190   6.447  14.019  1.7633 -0.1559  0.2869
 4051TIP3    H233569   3.077   6.459  14.119 -0.8958 -0.0138 -2.5882
 4052TIP3   OH233570   0.360   3.565   3.448 -0.4276 -0.1897 -0.1337
 4052TIP3    H133571   0.417   3.495   3.416 -0.2927 -0.0453 -0.2067
 4052TIP3    H233572   0.312   3.525   3.521  0.3413 -0.0745  0.4372
 4053TIP3   OH233573   0.934   0.942  12.351 -0.0544  0.0725 -0.5583
 4053TIP3    H133574   0.942   0.985  12.436  0.2308  1.0758 -1.0782
 4053TIP3    H233575   0.984   0.861  12.360  1.2587  0.8884 -0.2213
 4054TIP3   OH233576   6.638   4.220   1.953  0.5466  0.3804  1.0416
 4054TIP3    H133577   6.614   4.299   1.904 -0.3850  0.5750  1.7720
 4054TIP3    H233578   6.710   4.182   1.904  0.2363  1.0592  0.0296
 4055TIP3   OH233579   1.965   2.404   2.775  0.1464  1.0787 -0.0896
 4055TIP3    H133580   1.988   2.320   2.814  0.1742  1.1196 -0.0184
 4055TIP3    H233581   1.912   2.380   2.698  0.0904  0.9983 -0.0272
 4056TIP3   OH233582   3.385   5.433   1.549  0.1843 -0.2492  0.1243
 4056TIP3    H133583   3.362   5.517   1.588 -1.2201  0.2031 -1.5404
 4056TIP3    H233584   3.478   5.442   1.527 -0.0743  1.0980 -0.5414
 4057TIP3   OH233585   6.238   0.388   2.539  0.6437  0.4098 -0.2636
 4057TIP3    H133586   6.225   0.359   2.630 -0.6816  0.9349 -0.2656
 4057TIP3    H233587   6.220   0.482   2.541  0.6831  0.4407 -1.0515
 4058TIP3   OH233588   4.619   1.005  16.471  0.0487  0.7751 -0.6088
 4058TIP3    H133589   4.708   0.969  16.473  0.8215  2.6193 -0.0434
 4058TIP3    H233590   4.580   0.976  16.553  0.2231  0.2238 -0.7116
 4059TIP3   OH233591   0.436   4.458   4.346 -0.2541  0.3740 -0.2393
 4059TIP3    H133592   0.430   4.454   4.442  0.1348  0.7450 -0.1963
 4059TIP3    H233593   0.510   4.403   4.324 -0.4775  0.1149 -0.3472
 4060TIP3   OH233594   5.313   4.038   4.201  0.1010 -0.0146  0.2314
 4060TIP3    H133595   5.397   4.078   4.221  0.3252 -0.7454  0.7578
 4060TIP3    H233596   5.318   3.950   4.237 -0.4543 -0.4736 -0.7711
 4061TIP3   OH233597   1.626   5.052  16.204 -0.8303 -0.8052  0.5482
 4061TIP3    H133598   1.674   5.135  16.199 -1.7869 -0.3191 -2.9861
 4061TIP3    H233599   1.694   4.984  16.196 -0.4340 -0.1622 -2.7536
 4062TIP3   OH233600   6.344   1.482   1.451  0.0876 -0.5005  0.3111
 4062TIP3    H133601   6.330   1.559   1.396  2.4867  0.8913  1.5063
 4062TIP3    H233602   6.326   1.511   1.540 -0.6571 -1.8472  0.6422
 4063TIP3   OH233603   1.969   1.288  12.991  0.1008 -0.4901  0.0331
 4063TIP3    H133604   1.945   1.296  13.083 -0.2234  0.8600 -0.1463
 4063TIP3    H233605   2.063   1.271  12.992  0.3393  0.7334  0.6131
 4064TIP3   OH233606   1.137   0.157   2.481 -0.7206 -0.3442 -0.4870
 4064TIP3    H133607   1.047   0.127   2.490 -0.7244 -0.1592  0.2274
 4064TIP3    H233608   1.130   0.241   2.437 -0.7775 -0.9716 -1.7052
 4065TIP3   OH233609   1.591   1.025  14.017 -0.1995 -0.1776 -0.2497
 4065TIP3    H133610   1.565   0.947  14.066  2.9196 -0.7452  0.7663
 4065TIP3    H233611   1.676   1.002  13.980  0.6375  2.5830 -0.2620
 4066TIP3   OH233612   3.220   2.222  16.871 -0.1926  0.4816 -0.0378
 4066TIP3    H133613   3.276   2.225  16.793  0.1785  0.5340  0.2311
 4066TIP3    H233614   3.138   2.262  16.842  0.3571  1.6438 -0.0708
 4067TIP3   OH233615   4.286   6.666   6.125 -0.9317 -0.6129  0.1406
 4067TIP3    H133616   4.317   6.672   6.035  0.4429 -0.2103  0.6067
 4067TIP3    H233617   4.192   6.648   6.117 -1.4483  2.1320 -1.4031
 4068TIP3   OH233618   3.861   3.342  12.483 -0.2095  0.2123 -0.7044
 4068TIP3    H133619   3.877   3.260  12.437 -0.3628 -0.3208  0.1720
 4068TIP3    H233620   3.947   3.367  12.518 -0.2008  0.3319 -0.8082
 4069TIP3   OH233621   2.582   3.781  16.182  0.0160  0.5739  0.6260
 4069TIP3    H133622   2.518   3.778  16.252 -0.4407  0.6325  0.2139
 4069TIP3    H233623   2.622   3.867  16.190 -1.7194  1.5655 -0.6490
 4070TIP3   OH233624   0.812   3.003   0.426  0.5644 -0.1420 -0.0949
 4070TIP3    H133625   0.742   3.022   0.488  0.3698  2.1686 -0.9368
 4070TIP3    H233626   0.889   3.048   0.461  1.4387 -1.9039  0.3484
 4071TIP3   OH233627   0.872   4.501  16.351 -0.2718  0.5102  0.5726
 4071TIP3    H133628   0.887   4.576  16.409  0.3189  0.0651  1.0056
 4071TIP3    H233629   0.884   4.425  16.407  1.6640  0.0225 -0.4058
 4072TIP3   OH233630   4.044   3.074  13.247  0.3672  0.1676  0.5007
 4072TIP3    H133631   4.002   3.118  13.321  1.3977  2.7590 -0.3141
 4072TIP3    H233632   4.132   3.111  13.245  1.5629 -2.5151  0.0714
 4073TIP3   OH233633   2.632   2.180  11.905  0.4758 -0.2265 -0.0306
 4073TIP3    H133634   2.564   2.224  11.854  0.5174 -0.9228 -0.7159
 4073TIP3    H233635   2.703   2.243  11.911  0.1433  0.1621 -0.1373
 4074TIP3   OH233636   0.822   5.621  14.689 -0.1917  0.1673  0.2780
 4074TIP3    H133637   0.748   5.679  14.675  0.8067  1.0583 -1.6053
 4074TIP3    H233638   0.896   5.680  14.704  0.3271 -0.6912  1.2237
 4075TIP3   OH233639   3.620   3.849   3.366  0.6632  0.6623  0.8419
 4075TIP3    H133640   3.603   3.874   3.275  0.5692 -0.0139  0.6667
 4075TIP3    H233641   3.614   3.753   3.365  0.9986  0.6364  1.4919
 4076TIP3   OH233642   3.649   3.360  13.648  0.3228 -0.1154 -0.0173
 4076TIP3    H133643   3.640   3.325  13.559 -0.7457 -0.5765  0.2485
 4076TIP3    H233644   3.676   3.284  13.700 -2.4895 -0.7441  0.6559
 4077TIP3   OH233645   3.548   2.929  13.196  0.1430  0.8551 -0.1280
 4077TIP3    H133646   3.469   2.879  13.214  1.0858 -0.9382 -0.7418
 4077TIP3    H233647   3.537   3.010  13.245 -1.2507 -0.1246  1.2646
 4078TIP3   OH233648   1.394   2.852   2.725  0.5782  0.4039  0.1902
 4078TIP3    H133649   1.399   2.768   2.771  1.1364 -0.2322 -0.9617
 4078TIP3    H233650   1.305   2.884   2.742 -0.6059 -1.7194 -1.4588
 4079TIP3   OH233651   4.218   3.342   2.243 -0.1865  0.1038  0.0436
 4079TIP3    H133652   4.263   3.324   2.160 -0.3787  1.9901 -0.5307
 4079TIP3    H233653   4.290   3.356   2.306 -0.0368 -0.7944  0.0862
 4080TIP3   OH233654   4.639   1.457   1.049  0.3276  0.1337 -0.7246
 4080TIP3    H133655   4.658   1.548   1.071 -0.8344  0.5685 -1.4220
 4080TIP3    H233656   4.588   1.462   0.968  1.9286 -1.2645 -1.8741
 4081TIP3   OH233657   5.128   6.502  14.499  0.2077 -0.2741  0.0742
 4081TIP3    H133658   5.042   6.481  14.535 -0.4586 -1.8099 -2.1441
 4081TIP3    H233659   5.110   6.546  14.416  1.4275 -2.1358 -1.2885
 4082TIP3   OH233660   1.868   2.137   3.382 -0.2501  0.0066 -0.5471
 4082TIP3    H133661   1.848   2.195   3.308  0.2645  1.0200  0.0878
 4082TIP3    H233662   1.790   2.082   3.391 -0.3567 -0.0749 -1.7798
 4083TIP3   OH233663   5.701   6.325   3.693  0.2880  0.7042  0.3350
 4083TIP3    H133664   5.655   6.338   3.610 -0.8870 -0.5537  0.7594
 4083TIP3    H233665   5.782   6.376   3.684 -0.2218  1.2874 -1.2318
 4084TIP3   OH233666   5.192   2.012  11.015  0.2126  0.1680  0.4215
 4084TIP3    H133667   5.281   1.983  10.997  0.3932  1.8031 -1.7751
 4084TIP3    H233668   5.156   2.034  10.929 -1.9263  0.6230  1.3644
 4085TIP3   OH233669   4.881   0.022  11.020 -0.7294  0.0154 -0.8063
 4085TIP3    H133670   4.929   0.094  10.977 -1.3107  1.5479  0.9697
 4085TIP3    H233671   4.797   0.020  10.976 -0.5044  0.0439 -1.2452
 4086TIP3   OH233672   2.435   1.154   1.442 -0.0487 -0.3444  0.2726
 4086TIP3    H133673   2.466   1.134   1.353  1.0857  0.5925  0.4243
 4086TIP3    H233674   2.344   1.182   1.430  0.2626  0.3233 -0.6843
 4087TIP3   OH233675   5.511   1.126   3.290  0.2370  0.3461 -0.0790
 4087TIP3    H133676   5.482   1.124   3.198  1.0890  0.0261 -0.3489
 4087TIP3    H233677   5.585   1.066   3.293 -0.5294 -0.5955  1.0890
 4088TIP3   OH233678   3.512   4.821   5.514 -1.0944  0.5338 -0.0655
 4088TIP3    H133679   3.467   4.904   5.533  1.0608  1.6679  0.4116
 4088TIP3    H233680   3.579   4.814   5.582 -0.7076 -1.2315 -0.5662
 4089TIP3   OH233681   1.064   3.577  15.640  0.8131  0.0921  0.2017
 4089TIP3    H133682   1.143   3.522  15.644  2.0930  1.8837  1.4030
 4089TIP3    H233683   0.992   3.515  15.637  2.2031 -1.6438  0.6249
 4090TIP3   OH233684   2.033   3.329  14.743  0.5583  0.1826  0.2463
 4090TIP3    H133685   1.938   3.335  14.733  0.7911  2.3135 -1.3796
 4090TIP3    H233686   2.046   3.295  14.832 -1.7134  0.6457  0.8118
 4091TIP3   OH233687   3.400   1.855  16.635  0.1026 -0.6096 -0.4232
 4091TIP3    H133688   3.311   1.857  16.672 -0.8128 -0.5949 -2.4869
 4091TIP3    H233689   3.409   1.939  16.589  1.3029 -0.4994 -0.0076
 4092TIP3   OH233690   1.039   2.761  11.374 -0.3166  0.1307  0.3542
 4092TIP3    H133691   1.096   2.692  11.406 -1.5092 -1.8332 -1.4805
 4092TIP3    H233692   1.062   2.770  11.281 -0.0016  2.4491  0.5945
 4093TIP3   OH233693   2.555   5.368  11.275 -0.2505 -0.2057 -0.3203
 4093TIP3    H133694   2.638   5.321  11.281 -0.4781 -0.4364  1.5293
 4093TIP3    H233695   2.491   5.310  11.316 -1.0386  0.6218 -0.3402
 4094TIP3   OH233696   1.314   2.500   0.808 -0.3355 -0.2330  0.2661
 4094TIP3    H133697   1.285   2.581   0.851  0.6405 -0.5597  1.5717
 4094TIP3    H233698   1.397   2.479   0.850 -0.8984 -2.2960  0.4127
 4095TIP3   OH233699   4.279   6.192   0.512 -0.8213  0.3597 -0.5240
 4095TIP3    H133700   4.351   6.144   0.553 -1.4636 -1.2621 -1.1994
 4095TIP3    H233701   4.322   6.260   0.460  0.0458  2.5417  2.6891
 4096TIP3   OH233702   4.336   0.570   2.181 -0.9507 -0.1753  0.0609
 4096TIP3    H133703   4.345   0.567   2.086 -1.5373  0.6477 -0.0289
 4096TIP3    H233704   4.287   0.650   2.198  0.5500  0.5471  1.1854
 4097TIP3   OH233705   1.679   4.154  13.998 -0.3891  0.1362 -0.1008
 4097TIP3    H133706   1.732   4.081  13.968 -0.8491  0.1238 -0.8992
 4097TIP3    H233707   1.725   4.186  14.076 -0.7619 -1.6889  0.9382
 4098TIP3   OH233708   4.824   5.603  17.212  0.1010 -0.1214  0.2752
 4098TIP3    H133709   4.807   5.624  17.304 -0.1364  0.3535  0.1228
 4098TIP3    H233710   4.844   5.509  17.213  0.0661 -0.1287  0.8064
 4099TIP3   OH233711   5.901   1.268   0.009 -0.2553 -0.4254 -0.0746
 4099TIP3    H133712   5.879   1.269  -0.084 -1.2450  1.0889  0.1358
 4099TIP3    H233713   5.979   1.324   0.016 -0.6225  0.0793  0.0787
 4100TIP3   OH233714   1.808   3.835  16.742 -0.0617 -0.2692 -0.4485
 4100TIP3    H133715   1.730   3.856  16.691 -0.1801  1.6201  0.4521
 4100TIP3    H233716   1.774   3.795  16.822 -0.2516  1.8102  0.5648
 4101TIP3   OH233717   3.718   1.060  16.771  0.0887 -0.4339 -0.8319
 4101TIP3    H133718   3.778   1.003  16.819 -0.6461  0.9065  1.8909
 4101TIP3    H233719   3.660   1.000  16.724  0.9968 -1.8371 -0.2339
 4102TIP3   OH233720   5.631   6.047   5.150  0.1367 -0.0504 -0.2904
 4102TIP3    H133721   5.723   6.037   5.175  0.7153  1.7809 -1.5176
 4102TIP3    H233722   5.615   6.141   5.151 -1.8235 -0.3398  0.1348
 4103TIP3   OH233723   2.223   4.972  15.242  0.3084 -0.3424 -0.1921
 4103TIP3    H133724   2.205   5.020  15.162  0.4944 -0.8076 -0.5205
 4103TIP3    H233725   2.152   4.995  15.302  1.8017  2.5326  0.6790
 4104TIP3   OH233726   3.414   4.274   4.477  0.4897 -0.1224 -0.8828
 4104TIP3    H133727   3.355   4.341   4.513  2.0344  0.5634  0.5440
 4104TIP3    H233728   3.494   4.323   4.455  1.0265 -1.2333 -1.4438
 4105TIP3   OH233729   2.174   4.661   0.694 -0.2811  0.4278 -0.6307
 4105TIP3    H133730   2.264   4.679   0.665  0.2957 -1.0180  0.1708
 4105TIP3    H233731   2.120   4.687   0.620  0.9392 -0.4115 -1.8751
 4106TIP3   OH233732   2.804   6.601  15.536 -0.0910 -0.4349  0.5657
 4106TIP3    H133733   2.709   6.610  15.525 -0.0943 -0.8606  0.2426
 4106TIP3    H233734   2.825   6.514  15.503  0.7924  0.6486 -2.0587
 4107TIP3   OH233735   0.338   1.343   4.142  0.0072 -0.0222 -0.2860
 4107TIP3    H133736   0.433   1.344   4.156  0.2336 -2.6918 -1.1604
 4107TIP3    H233737   0.325   1.283   4.069 -2.4360 -0.5397  0.4926
 4108TIP3   OH233738   1.301   2.542   5.065  0.0318 -0.4276 -0.3085
 4108TIP3    H133739   1.393   2.554   5.043  0.3710 -0.8287  0.8265
 4108TIP3    H233740   1.253   2.573   4.988  1.1319 -0.9481 -1.2239
 4109TIP3   OH233741   5.266   2.746  13.754 -0.6891  0.0025  0.3091
 4109TIP3    H133742   5.241   2.721  13.665 -0.0351 -0.1446  0.1597
 4109TIP3    H233743   5.346   2.797  13.743  1.0765 -2.4512  0.9925
 4110TIP3   OH233744   4.557   1.377   4.364 -0.0922  0.6330 -0.4866
 4110TIP3    H133745   4.481   1.404   4.311 -1.1897 -0.9903  0.1652
 4110TIP3    H233746   4.541   1.417   4.450 -0.1162  0.4638 -0.4111
 4111TIP3   OH233747   5.579   1.074  12.104  0.7437  0.3223  0.2271
 4111TIP3    H133748   5.619   1.115  12.181  1.9205  0.6470 -0.5253
 4111TIP3    H233749   5.653   1.034  12.058  0.1308  0.5678 -0.9897
 4112TIP3   OH233750   0.312   5.467   6.157 -0.5376  0.5199 -0.3375
 4112TIP3    H133751   0.313   5.559   6.129 -2.1083  0.6393 -0.0728
 4112TIP3    H233752   0.237   5.429   6.112  1.3258 -1.2485 -2.1661
 4113TIP3   OH233753   1.366   2.885   3.321  0.3630 -0.1062  0.3298
 4113TIP3    H133754   1.329   2.865   3.235  0.1768 -1.0703  0.6259
 4113TIP3    H233755   1.383   2.800   3.361  2.2645  0.2885  0.4943
 4114TIP3   OH233756   0.975   5.704  13.920 -0.1059  0.2305  0.3607
 4114TIP3    H133757   0.926   5.623  13.927 -0.5748  0.4998  0.2354
 4114TIP3    H233758   0.923   5.759  13.861 -0.0698  0.8203  0.8641
 4115TIP3   OH233759   1.395   6.304   1.557 -0.1062  0.6208  0.1294
 4115TIP3    H133760   1.441   6.383   1.586  1.2029  0.6695 -1.9014
 4115TIP3    H233761   1.464   6.240   1.540 -0.9277 -0.0488 -0.8660
 4116TIP3   OH233762   6.761   2.024  14.745  0.3165  0.2803 -0.0632
 4116TIP3    H133763   6.755   2.119  14.744 -0.6196  0.2275 -0.6849
 4116TIP3    H233764   6.788   2.002  14.834 -0.0965  1.0944  0.2692
 4117TIP3   OH233765   6.623   5.406   5.815  0.2286 -0.3445 -0.2978
 4117TIP3    H133766   6.686   5.432   5.883 -1.0287  0.5163  0.5814
 4117TIP3    H233767   6.673   5.349   5.757  1.5118 -0.6055  1.0002
 4118TIP3   OH233768   5.175   3.392  12.980  0.2518  0.0353 -0.2917
 4118TIP3    H133769   5.160   3.356  12.893 -1.5731 -2.0618  0.7791
 4118TIP3    H233770   5.195   3.316  13.035  1.3040  1.2904  1.1502
 4119TIP3   OH233771   2.264   0.895  13.615  0.6156 -0.0865 -0.6836
 4119TIP3    H133772   2.200   0.848  13.669 -1.0820  2.2256 -0.5203
 4119TIP3    H233773   2.324   0.934  13.678 -0.4751  1.3630 -0.4928
 4120TIP3   OH233774   4.744   4.842   6.979  0.6386 -0.0019  0.1251
 4120TIP3    H133775   4.729   4.769   6.919  1.2208 -0.9951  1.1616
 4120TIP3    H233776   4.662   4.891   6.979  0.3834 -0.4132 -0.8945
 4121TIP3   OH233777   6.105   0.003  13.140  0.1303  0.1216  0.4699
 4121TIP3    H133778   6.018   0.021  13.175  0.1443  0.4101  0.3524
 4121TIP3    H233779   6.089  -0.043  13.057  0.0942 -2.0414  1.5995
 4122TIP3   OH233780   3.985   2.629  15.883  0.2840 -0.0801 -0.3734
 4122TIP3    H133781   4.071   2.589  15.870  1.6412  1.8372  1.8237
 4122TIP3    H233782   3.937   2.567  15.938  0.7901 -0.5645 -0.4691
 4123TIP3   OH233783   1.391   0.466   1.296 -0.5729  0.0971  0.2105
 4123TIP3    H133784   1.451   0.537   1.318  1.0065 -1.0801 -0.1824
 4123TIP3    H233785   1.405   0.401   1.364 -1.2075 -0.3213 -0.0505
 4124TIP3   OH233786   3.489   4.780   2.642  0.5385 -0.3247  0.2340
 4124TIP3    H133787   3.415   4.721   2.627  1.2974 -1.5146  0.9888
 4124TIP3    H233788   3.473   4.818   2.728  0.3401  0.1368 -0.0048
 4125TIP3   OH233789   2.559   4.149  16.565 -0.6828  0.3977 -0.6029
 4125TIP3    H133790   2.532   4.216  16.627  1.0329  0.2020  0.4171
 4125TIP3    H233791   2.652   4.164  16.551 -0.4342 -1.2380 -0.9932
 4126TIP3   OH233792   0.945   0.834   1.512  0.2580 -0.0566 -0.2091
 4126TIP3    H133793   0.982   0.873   1.433  0.6505 -0.4914 -0.2421
 4126TIP3    H233794   0.906   0.908   1.559  0.5939  0.3033 -0.4916
 4127TIP3   OH233795   2.431   4.286  10.852  0.2645 -0.1007 -0.1513
 4127TIP3    H133796   2.429   4.377  10.823  0.1371 -0.4570 -1.3016
 4127TIP3    H233797   2.477   4.289  10.936 -1.5448  1.2708  0.8499
 4128TIP3   OH233798   0.626   0.972   1.358  0.1007 -0.0541  0.3976
 4128TIP3    H133799   0.594   0.904   1.299  1.6475 -0.5835  0.1321
 4128TIP3    H233800   0.688   1.023   1.305  1.5136 -0.5394  1.5127
 4129TIP3   OH233801   4.800   0.029  16.009 -0.3050  0.0673 -0.1852
 4129TIP3    H133802   4.884   0.003  16.046 -0.1325 -0.9366 -1.1915
 4129TIP3    H233803   4.822   0.090  15.939 -0.4887  0.5734  0.1981
 4130TIP3   OH233804   3.351   6.027  17.328  0.5757 -0.0460  0.2332
 4130TIP3    H133805   3.350   6.006  17.235  2.4811 -1.6072  0.5227
 4130TIP3    H233806   3.396   6.111  17.334  0.1209  0.2363 -0.2616
 4131TIP3   OH233807   0.087   0.788  16.938  0.1834  0.4895 -0.2643
 4131TIP3    H133808   0.142   0.778  16.861 -1.0242 -0.3600 -1.0574
 4131TIP3    H233809   0.119   0.722  16.999 -0.4390 -0.5914 -1.0537
 4132TIP3   OH233810   2.807   3.043   4.513 -0.1760 -0.6118  0.3696
 4132TIP3    H133811   2.763   2.965   4.481 -1.9327  0.3060  0.4174
 4132TIP3    H233812   2.778   3.113   4.455  0.6058  0.1795  0.9004
 4133TIP3   OH233813   3.887   6.246   4.783 -0.1834  0.1287  0.8449
 4133TIP3    H133814   3.983   6.249   4.783 -0.1269 -0.9276 -0.1754
 4133TIP3    H233815   3.863   6.251   4.691 -1.1654  1.2119  1.1394
 4134TIP3   OH233816   2.304   4.632  11.774  0.0502 -0.2300 -0.0818
 4134TIP3    H133817   2.246   4.635  11.698  0.6041  0.8989 -0.4807
 4134TIP3    H233818   2.246   4.647  11.849 -0.3827 -0.5838 -0.3433
 4135TIP3   OH233819   1.623   2.441  16.081 -0.6886 -0.3847 -0.1899
 4135TIP3    H133820   1.689   2.416  16.016 -1.3165 -0.7813 -0.6826
 4135TIP3    H233821   1.612   2.364  16.136 -0.5024 -0.2062  0.1030
 4136TIP3   OH233822   5.866   0.612  14.211  0.1250 -0.5161 -0.2738
 4136TIP3    H133823   5.932   0.629  14.145  1.3311 -0.7748  0.8156
 4136TIP3    H233824   5.789   0.584  14.162  0.7622 -0.0565 -1.5846
 4137TIP3   OH233825   4.152   5.235  17.407  0.6592  0.5003 -0.3496
 4137TIP3    H133826   4.208   5.292  17.460  2.7012  0.8925 -2.7036
 4137TIP3    H233827   4.138   5.284  17.326  1.3805 -1.7565 -1.9420
 4138TIP3   OH233828   3.134   1.127   1.307  0.0807  0.4283 -0.5086
 4138TIP3    H133829   3.067   1.059   1.297 -0.7643  0.7747  1.9131
 4138TIP3    H233830   3.176   1.107   1.391  0.9701  1.9003 -0.5627
 4139TIP3   OH233831   2.985   4.715   2.508 -0.4856 -0.2755  0.7044
 4139TIP3    H133832   2.906   4.686   2.554 -0.8615 -1.5520 -0.6524
 4139TIP3    H233833   2.953   4.748   2.425  0.4123 -1.0840  0.0169
 4140TIP3   OH233834   4.141   4.165  15.832  0.0106  0.0424 -0.4779
 4140TIP3    H133835   4.126   4.073  15.854 -1.0213 -0.4670 -2.9467
 4140TIP3    H233836   4.200   4.197  15.900  0.6755 -2.5398  0.2616
 4141TIP3   OH233837   3.136   3.229  13.049  0.5043 -0.0816  0.1954
 4141TIP3    H133838   3.164   3.157  12.993  1.6183  2.2885 -2.5426
 4141TIP3    H233839   3.217   3.274  13.074 -0.2440  2.1490 -1.0456
 4142TIP3   OH233840   5.645   3.953   4.345 -0.1676 -0.3049 -0.2723
 4142TIP3    H133841   5.573   4.016   4.335 -2.8909 -2.8195  1.6518
 4142TIP3    H233842   5.601   3.869   4.358  3.1974 -2.0605  0.7916
 4143TIP3   OH233843   1.932   4.786   1.009  0.1319  0.3620  0.2448
 4143TIP3    H133844   1.844   4.814   1.035 -0.4836 -1.3738  0.1379
 4143TIP3    H233845   1.927   4.778   0.913  0.7953  1.4243  0.0949
 4144TIP3   OH233846   3.828   1.517   0.142 -0.4802  0.7435 -0.2548
 4144TIP3    H133847   3.810   1.589   0.203  3.5443  2.5305 -0.8386
 4144TIP3    H233848   3.874   1.558   0.069  2.4924 -2.3526 -0.3933
 4145TIP3   OH233849   4.272   5.255   1.680 -0.4800  0.3611 -0.1384
 4145TIP3    H133850   4.216   5.331   1.695 -2.0346 -0.9849  1.3175
 4145TIP3    H233851   4.217   5.192   1.635  1.0433  0.3518 -2.1053
 4146TIP3   OH233852   5.731   4.833  12.698  0.2368  0.2279  0.2667
 4146TIP3    H133853   5.756   4.741  12.691  0.5166  0.3821 -0.9307
 4146TIP3    H233854   5.645   4.831  12.740  0.3939 -0.5583  0.5713
 4147TIP3   OH233855   1.891   1.465  16.102  0.3628 -0.2892 -0.3360
 4147TIP3    H133856   1.968   1.410  16.103 -0.2278 -1.3107  3.5958
 4147TIP3    H233857   1.819   1.406  16.077  0.4240  0.0503 -1.3878
 4148TIP3   OH233858   0.576   1.242  10.333 -0.2252  0.2875 -0.0107
 4148TIP3    H133859   0.513   1.301  10.291 -0.2180 -0.7059 -1.4762
 4148TIP3    H233860   0.521   1.181  10.383 -0.4350 -0.2787 -0.8983
 4149TIP3   OH233861   1.844   4.749  13.643 -0.4444 -0.0917  0.1542
 4149TIP3    H133862   1.794   4.831  13.643  0.2837  0.3750  1.2253
 4149TIP3    H233863   1.912   4.763  13.709 -0.5643 -1.7145  0.6528
 4150TIP3   OH233864   0.154   0.070  14.889 -0.2355  0.3687  0.3589
 4150TIP3    H133865   0.098   0.064  14.812 -1.3889  0.6144  1.1432
 4150TIP3    H233866   0.221   0.135  14.866 -0.1731 -0.0401 -0.6505
 4151TIP3   OH233867   1.552   1.220   3.965 -0.1304 -0.8550  0.1845
 4151TIP3    H133868   1.575   1.176   3.883  1.6174 -1.6541  1.0519
 4151TIP3    H233869   1.623   1.282   3.980 -1.4482  0.7351  0.1154
 4152TIP3   OH233870   5.087   4.533  15.792 -0.6202 -0.3996  0.1356
 4152TIP3    H133871   5.129   4.515  15.708 -0.9699  0.4032 -0.2204
 4152TIP3    H233872   5.013   4.590  15.770  0.4660  1.5061  1.2088
 4153TIP3   OH233873   3.432   2.110   2.282 -0.4142 -0.2714  0.2650
 4153TIP3    H133874   3.459   2.022   2.256  0.5792  1.1769 -4.6413
 4153TIP3    H233875   3.343   2.119   2.246 -0.4292  0.7915  0.5315
 4154TIP3   OH233876   4.592   3.005   3.856 -0.8670 -0.2399 -0.1562
 4154TIP3    H133877   4.665   2.945   3.869 -1.6417 -1.2400 -0.3035
 4154TIP3    H233878   4.619   3.060   3.783  0.7287  1.0179  1.2819
 4155TIP3   OH233879   4.437   4.136   3.430  0.1090 -0.5194  0.0195
 4155TIP3    H133880   4.393   4.218   3.452 -0.4759 -0.6358 -0.7067
 4155TIP3    H233881   4.436   4.086   3.511  0.7715  0.3173  0.5668
 4156TIP3   OH233882   2.863   5.411  10.567 -0.0298 -0.3599 -0.1105
 4156TIP3    H133883   2.896   5.462  10.641  0.8034 -1.0934  0.0243
 4156TIP3    H233884   2.939   5.396  10.512 -0.6263  0.1162 -1.1052
 4157TIP3   OH233885   4.108   6.419  14.959  0.6117  0.1496 -0.0553
 4157TIP3    H133886   4.045   6.485  14.990  0.9903  1.2480 -1.5159
 4157TIP3    H233887   4.053   6.348  14.927  0.1938 -0.2746  1.5133
 4158TIP3   OH233888   2.207   1.064   4.305  0.2842 -0.1786  0.0987
 4158TIP3    H133889   2.179   0.993   4.247 -4.4126  0.1538  1.5569
 4158TIP3    H233890   2.241   1.020   4.383 -2.0141 -0.9309  0.7365
 4159TIP3   OH233891   6.011   3.836  14.123  0.1673  0.0673 -0.0947
 4159TIP3    H133892   6.012   3.747  14.158  1.3570 -0.6371 -1.8072
 4159TIP3    H233893   6.101   3.865  14.129  0.3617  0.0430 -2.1492
 4160TIP3   OH233894   4.206   1.769   0.480  0.1883  0.7137  0.3264
 4160TIP3    H133895   4.222   1.680   0.448  0.1289  1.2035 -1.1621
 4160TIP3    H233896   4.293   1.811   0.478  0.1018  0.8936  0.3131
 4161TIP3   OH233897   4.274   5.191  12.896  0.2687  0.1833 -0.2713
 4161TIP3    H133898   4.335   5.230  12.833  1.8629 -0.8276  0.5734
 4161TIP3    H233899   4.300   5.229  12.980  1.4874 -2.1237  0.4906
 4162TIP3   OH233900   5.175   1.591  16.551  0.5458 -0.0023 -0.2399
 4162TIP3    H133901   5.259   1.596  16.595  0.4766 -0.2179 -0.0793
 4162TIP3    H233902   5.112   1.571  16.621  0.6040 -1.5969 -0.6064
 4163TIP3   OH233903   6.740   1.373   2.559 -0.5109  0.7008 -0.3806
 4163TIP3    H133904   6.688   1.410   2.631 -0.5111  1.6015 -0.8316
 4163TIP3    H233905   6.695   1.403   2.480 -0.2964  0.0260 -0.7608
 4164TIP3   OH233906   2.251   3.275  13.828  0.3321 -0.0505 -0.0616
 4164TIP3    H133907   2.268   3.368  13.848 -0.0454 -0.2467  1.2347
 4164TIP3    H233908   2.338   3.236  13.823  0.4615  0.0701  0.9814
 4165TIP3   OH233909   4.054   3.482   3.102 -0.4313  0.1716  0.5842
 4165TIP3    H133910   3.968   3.455   3.070 -0.3972  0.4318  0.2726
 4165TIP3    H233911   4.095   3.400   3.129 -0.4949 -0.0446  0.0490
 4166TIP3   OH233912   3.542   1.695   0.922  0.0128  0.0163 -0.6334
 4166TIP3    H133913   3.550   1.750   0.844  1.0357 -0.7620 -1.1045
 4166TIP3    H233914   3.630   1.659   0.935  0.3695  1.6036  2.0156
 4167TIP3   OH233915   3.283   2.822  13.801  0.4816 -0.8855 -0.2756
 4167TIP3    H133916   3.233   2.742  13.785 -1.1408  0.0049  0.0513
 4167TIP3    H233917   3.219   2.883  13.838  2.1981 -0.1909  1.7823
 4168TIP3   OH233918   6.037   0.994  14.463 -0.4189  0.5194 -0.0304
 4168TIP3    H133919   6.065   0.963  14.549  0.7161 -0.2332 -0.6392
 4168TIP3    H233920   6.101   1.062  14.440  0.7124 -0.8857 -1.2372
 4169TIP3   OH233921   4.182   1.277  16.867 -0.5007 -0.1936 -0.0001
 4169TIP3    H133922   4.172   1.372  16.872 -0.8340 -0.2538  0.5935
 4169TIP3    H233923   4.269   1.261  16.903 -0.5746 -0.1371  0.2085
 4170TIP3   OH233924   3.784   4.673   4.021  0.2341  0.4158  0.0939
 4170TIP3    H133925   3.871   4.705   3.998  0.5287 -0.0469  0.5588
 4170TIP3    H233926   3.739   4.663   3.937 -0.3835  3.4338 -0.0424
 4171TIP3   OH233927   6.148   4.215  11.226  0.4583 -0.2547  0.3945
 4171TIP3    H133928   6.198   4.264  11.290  0.0621 -0.2392  0.6950
 4171TIP3    H233929   6.212   4.158  11.183  1.4634  2.1871 -1.6528
 4172TIP3   OH233930   2.990   3.278  11.623  0.2923  0.0926 -0.1142
 4172TIP3    H133931   3.035   3.330  11.556 -1.1018  1.5607  0.0299
 4172TIP3    H233932   3.052   3.273  11.695  1.5331 -0.8773 -1.1971
 4173TIP3   OH233933   2.594   1.332  13.733 -0.4439  0.3043  0.2049
 4173TIP3    H133934   2.628   1.264  13.792 -2.1434 -0.2670  0.5889
 4173TIP3    H233935   2.653   1.406  13.746  1.3893 -1.0269 -0.1272
 4174TIP3   OH233936   2.046   6.144   2.832  0.0732 -0.1739 -0.0789
 4174TIP3    H133937   1.980   6.214   2.832  0.4757  0.2215 -0.8925
 4174TIP3    H233938   2.036   6.102   2.917  0.3443  1.3826  0.7633
 4175TIP3   OH233939   5.314   5.736  16.958 -0.1111  0.1901 -0.1777
 4175TIP3    H133940   5.342   5.735  16.867 -0.0185 -0.4013 -0.1464
 4175TIP3    H233941   5.220   5.724  16.955 -0.0417 -0.3577 -0.1733
 4176TIP3   OH233942   0.640   1.264  13.122  0.2215  0.1094  0.3693
 4176TIP3    H133943   0.636   1.201  13.050 -0.5702  2.5341 -1.8897
 4176TIP3    H233944   0.733   1.287  13.128  0.1057  1.1346 -1.1425
 4177TIP3   OH233945   0.791   5.199   3.379  0.5342 -0.3497  0.0610
 4177TIP3    H133946   0.755   5.110   3.381  0.5644 -0.4442 -1.6757
 4177TIP3    H233947   0.874   5.193   3.426  0.3876 -1.1585  0.2275
 4178TIP3   OH233948   6.685   2.769  13.204 -0.0361  0.0241  0.5993
 4178TIP3    H133949   6.696   2.707  13.132  0.7333 -0.7967  1.4106
 4178TIP3    H233950   6.754   2.833  13.192  0.8584 -0.7834  1.2599
 4179TIP3   OH233951   1.780   2.718   4.449 -0.4389  0.2119 -0.2122
 4179TIP3    H133952   1.859   2.697   4.399 -0.1074  0.1285  0.3352
 4179TIP3    H233953   1.760   2.808   4.426 -1.1685 -0.2950 -1.6541
 4180TIP3   OH233954   4.016   5.400  14.153 -0.3270  0.1680  0.0546
 4180TIP3    H133955   4.049   5.360  14.233  3.0787 -0.7253 -1.5774
 4180TIP3    H233956   4.030   5.494  14.166  1.4037 -0.0642  0.1037
 4181TIP3   OH233957   0.187   0.713   4.218 -0.6456 -0.2834 -0.3415
 4181TIP3    H133958   0.108   0.659   4.221  1.5172 -3.8440 -1.1996
 4181TIP3    H233959   0.195   0.739   4.126 -0.7722  0.0458 -0.2624
 4182TIP3   OH233960   5.058   0.056  13.688  0.3104  0.2667 -0.0180
 4182TIP3    H133961   5.059   0.023  13.778  0.7676  0.3661  0.0172
 4182TIP3    H233962   5.005  -0.007  13.639  0.8624 -0.3201  0.1215
 4183TIP3   OH233963   0.662   1.951   4.912 -0.7539 -0.0539  0.1573
 4183TIP3    H133964   0.585   1.945   4.855  0.2445 -0.4134 -1.1838
 4183TIP3    H233965   0.724   1.889   4.876  0.6715  1.1480  0.4354
 4184TIP3   OH233966   5.997   0.804  11.261  0.1772 -0.2976  0.2504
 4184TIP3    H133967   5.976   0.770  11.174 -0.2921 -0.7786  0.5399
 4184TIP3    H233968   6.058   0.876  11.246 -3.0727  2.5198 -0.8459
 4185TIP3   OH233969   0.553   6.688  11.975  0.0426  0.4396  0.1756
 4185TIP3    H133970   0.565   6.746  11.900 -1.6356  1.6532  0.7808
 4185TIP3    H233971   0.625   6.710  12.034 -1.0238  2.5986  0.7650
 4186TIP3   OH233972   1.430   3.843  11.549  0.0312 -0.0108  0.2807
 4186TIP3    H133973   1.425   3.857  11.643  0.4232 -0.7318  0.4167
 4186TIP3    H233974   1.522   3.852  11.528 -0.1414  0.8304 -0.1573
 4187TIP3   OH233975   3.008   4.846  15.493 -0.3325  0.1920  0.0341
 4187TIP3    H133976   3.066   4.795  15.550  1.9776  2.8398  0.3145
 4187TIP3    H233977   3.064   4.872  15.420 -0.6138  4.0203  0.9795
 4188TIP3   OH233978   5.373   5.683  13.835  0.0131  0.1904 -0.0022
 4188TIP3    H133979   5.377   5.660  13.928  1.1158 -1.0946 -0.3288
 4188TIP3    H233980   5.421   5.765  13.828 -1.6706  1.3010  0.8040
 4189TIP3   OH233981   2.037   1.081   1.185 -0.2361  0.2628  0.6172
 4189TIP3    H133982   1.945   1.086   1.211 -0.1155  1.5544  0.8393
 4189TIP3    H233983   2.038   1.013   1.117 -1.4936  0.8103  0.0182
 4190TIP3   OH233984   0.132   5.319   1.274 -0.2048  0.3371  0.1661
 4190TIP3    H133985   0.084   5.399   1.296 -1.3990 -0.4495  0.5220
 4190TIP3    H233986   0.064   5.255   1.255  0.5973 -1.3740  2.6053
 4191TIP3   OH233987   6.271   4.015  16.656  0.4182  0.6962  0.5491
 4191TIP3    H133988   6.302   4.104  16.638  0.6465  0.0323 -3.1610
 4191TIP3    H233989   6.350   3.966  16.676  0.7320  0.6812 -0.6855
 4192TIP3   OH233990   5.916   5.350   4.086  0.0548  0.3324 -0.0074
 4192TIP3    H133991   5.946   5.437   4.111 -0.0476  0.5522 -0.6482
 4192TIP3    H233992   5.917   5.350   3.990  0.0267 -0.3593 -0.0165
 4193TIP3   OH233993   1.576   0.836   5.841 -0.1999  0.0919 -0.3676
 4193TIP3    H133994   1.563   0.837   5.936 -1.3607 -1.0466 -0.4919
 4193TIP3    H233995   1.488   0.830   5.804  0.3347 -3.5485 -1.3828
 4194TIP3   OH233996   4.892   6.394  12.162  0.3440 -0.2073  0.5292
 4194TIP3    H133997   4.905   6.421  12.253 -2.6940 -1.4093  1.4332
 4194TIP3    H233998   4.858   6.472  12.119 -3.4298 -0.9351  1.8687
 4195TIP3   OH233999   1.747   5.315  16.609 -0.2462  0.3469  0.4024
 4195TIP3    H134000   1.730   5.233  16.657  2.6017 -2.4875 -2.8700
 4195TIP3    H234001   1.833   5.343  16.638 -1.1378  2.2795  1.3901
 4196TIP3   OH234002   5.756   1.869  13.078  0.0340  0.4752  0.1529
 4196TIP3    H134003   5.702   1.944  13.054 -0.4886  0.0623 -0.0026
 4196TIP3    H234004   5.765   1.875  13.173  1.2064  1.5193 -0.0003
 4197TIP3   OH234005   4.283   2.575  16.485  0.1653  0.1481 -0.7513
 4197TIP3    H134006   4.262   2.591  16.577  3.2822  2.9408 -0.3519
 4197TIP3    H234007   4.223   2.505  16.459 -1.7827  0.1731  2.9712
 4198TIP3   OH234008   0.892   3.689  13.910 -0.4501  0.0849 -0.0665
 4198TIP3    H134009   0.932   3.776  13.905 -0.0892 -0.0521  0.4636
 4198TIP3    H234010   0.862   3.682  14.000 -0.5058 -0.3353 -0.1185
 4199TIP3   OH234011   1.917   5.132   5.806  0.3014  0.0902  0.7742
 4199TIP3    H134012   1.930   5.037   5.804  3.0462  0.4070 -1.0433
 4199TIP3    H234013   1.960   5.161   5.886  1.3273 -0.0171  0.2762
 4200TIP3   OH234014   1.074   5.943  13.035 -0.0962 -0.0211  0.3867
 4200TIP3    H134015   1.085   5.925  13.128  1.6578 -0.1465  0.1930
 4200TIP3    H234016   1.081   6.038  13.028  0.5126 -0.0672  0.3128
 4201TIP3   OH234017   2.731   0.274  12.069 -0.0496  0.6981 -0.1026
 4201TIP3    H134018   2.755   0.325  11.991 -0.7866  1.1991 -0.0149
 4201TIP3    H234019   2.761   0.185  12.050 -1.8275  0.3778 -1.7639
 4202TIP3   OH234020   1.518   1.695  11.663  0.2143 -0.0357  0.2722
 4202TIP3    H134021   1.610   1.695  11.638  0.3418  0.1309  0.7212
 4202TIP3    H234022   1.499   1.604  11.684  0.6532  0.1306  1.4837
 4203TIP3   OH234023   1.235   4.506   4.481  0.3114 -0.2816 -1.3338
 4203TIP3    H134024   1.146   4.515   4.513  0.6329  2.1564 -0.8923
 4203TIP3    H234025   1.285   4.476   4.557  0.4183  1.7926 -0.5239
 4204TIP3   OH234026   2.129   2.320  15.868 -0.0910 -0.3996  0.0493
 4204TIP3    H134027   2.158   2.409  15.853  0.6776 -0.6738 -0.1311
 4204TIP3    H234028   2.069   2.301  15.796 -1.8556  0.6406  1.1707
 4205TIP3   OH234029   1.977   2.687  15.118 -0.2997 -0.4802 -0.4013
 4205TIP3    H134030   1.987   2.769  15.070 -1.3415 -0.2036 -0.1879
 4205TIP3    H234031   1.947   2.714  15.205 -0.3865 -1.0670 -0.2438
 4206TIP3   OH234032   2.007   3.725   5.748 -0.2718 -0.1268  0.3210
 4206TIP3    H134033   2.068   3.654   5.769 -0.2182  0.1572  1.1717
 4206TIP3    H234034   1.984   3.762   5.833 -2.7477 -1.1245  0.1454
 4207TIP3   OH234035   5.787   5.932  12.574 -0.0247  0.0606 -0.1826
 4207TIP3    H134036   5.737   5.884  12.508 -0.4404  1.3521 -0.8325
 4207TIP3    H234037   5.784   5.875  12.651 -0.9090 -0.7414 -0.7808
 4208TIP3   OH234038   2.095   6.589   3.336  0.5704 -0.0735 -0.1765
 4208TIP3    H134039   2.018   6.552   3.294 -0.1784  0.8712  0.3126
 4208TIP3    H234040   2.132   6.649   3.271  1.9188 -1.7955 -1.0561
 4209TIP3   OH234041   5.405   3.146  16.659 -0.3212  0.5900 -0.2754
 4209TIP3    H134042   5.389   3.239  16.678 -2.6468 -0.0219  1.1419
 4209TIP3    H234043   5.374   3.100  16.737 -1.8725 -1.5547 -2.0436
 4210TIP3   OH234044   2.674   0.120  16.556 -0.2012 -0.0346 -0.0409
 4210TIP3    H134045   2.767   0.113  16.580 -0.1293  0.1366 -0.2643
 4210TIP3    H234046   2.627   0.108  16.638  0.0476  0.6837  0.2084
 4211TIP3   OH234047   6.051   6.668  11.413 -0.2632 -0.0030 -0.3615
 4211TIP3    H134048   5.992   6.741  11.399 -0.8140 -0.2131  0.7218
 4211TIP3    H234049   6.037   6.643  11.505  1.0528 -0.4601 -0.2640
 4212TIP3   OH234050   1.117   1.200   4.522 -0.4033  0.7681 -0.5659
 4212TIP3    H134051   1.078   1.140   4.459  0.0652  0.9701 -1.0588
 4212TIP3    H234052   1.043   1.234   4.572 -0.6898 -0.0685 -0.4033
 4213TIP3   OH234053   6.412   0.962  13.156  0.2211  0.9210 -0.9599
 4213TIP3    H134054   6.382   1.003  13.238  2.0581 -0.9125  0.7232
 4213TIP3    H234055   6.507   0.955  13.166  0.3647 -0.2960 -2.8084
 4214TIP3   OH234056   2.804   6.524   0.890  0.1715  0.1724 -0.6134
 4214TIP3    H134057   2.856   6.525   0.970 -2.4757 -1.3668  1.2539
 4214TIP3    H234058   2.726   6.575   0.912 -0.3159  0.2760 -2.4511
 4215TIP3   OH234059   5.910   3.171   1.195 -0.0312  0.2752  0.3698
 4215TIP3    H134060   5.932   3.252   1.240 -1.7901  0.4334  1.0116
 4215TIP3    H234061   5.991   3.120   1.196  1.2639  2.1992 -0.5293
 4216TIP3   OH234062   6.361   0.746   3.985 -0.2422  0.6609 -0.4602
 4216TIP3    H134063   6.443   0.700   3.966  0.4082  1.4817  0.2667
 4216TIP3    H234064   6.309   0.737   3.905  1.2952  1.6737 -1.6269
 4217TIP3   OH234065   6.281   5.573  13.527  0.1742 -0.3274 -0.2063
 4217TIP3    H134066   6.238   5.569  13.441 -3.7668 -0.1170  1.5696
 4217TIP3    H234067   6.267   5.486  13.564  0.0260  0.1864  0.9757
 4218TIP3   OH234068   1.200   5.032   4.484  0.1252 -0.1304  0.1740
 4218TIP3    H134069   1.240   4.949   4.456  0.6059 -0.1598  0.9172
 4218TIP3    H234070   1.156   5.011   4.566 -1.0285  0.0184 -0.3852
 4219TIP3   OH234071   3.603   5.550  11.976  0.0709 -0.7347  0.1718
 4219TIP3    H134072   3.667   5.486  12.007 -0.4512 -1.1857  0.3317
 4219TIP3    H234073   3.600   5.538  11.881  1.6229  0.6023 -0.1027
 4220TIP3   OH234074   5.692   5.757  12.347  0.1094  0.2970  0.1547
 4220TIP3    H134075   5.766   5.743  12.287 -0.0807  1.9610 -0.5164
 4220TIP3    H234076   5.626   5.800  12.294 -1.3531 -1.0718  0.7793
 4221TIP3   OH234077   1.180   4.746   1.113 -0.0484  0.4393 -0.6906
 4221TIP3    H134078   1.231   4.826   1.102  3.2888 -0.9086  2.7435
 4221TIP3    H234079   1.207   4.690   1.040 -0.6880  1.5424 -1.8234
 4222TIP3   OH234080   5.712   0.579  14.485  0.2214 -0.4480  0.1248
 4222TIP3    H134081   5.643   0.552  14.425  0.1288  1.5706 -0.7514
 4222TIP3    H234082   5.667   0.631  14.552  0.5634 -1.2838  1.0356
 4223TIP3   OH234083   2.362   6.698   5.043 -0.0396 -0.1438  0.0789
 4223TIP3    H134084   2.396   6.781   5.077 -0.7869 -0.5136  1.8817
 4223TIP3    H234085   2.415   6.631   5.086  0.2757 -0.6281 -1.0335
 4224TIP3   OH234086   5.431   2.349   2.728  0.4037  0.0482 -0.0443
 4224TIP3    H134087   5.455   2.320   2.816  1.5011 -1.1065 -0.6851
 4224TIP3    H234088   5.413   2.267   2.681  3.0977  0.3412 -1.7932
 4225TIP3   OH234089   0.796   6.105   3.268  0.3347  0.0919 -0.3679
 4225TIP3    H134090   0.844   6.069   3.194 -1.2639 -0.1400 -1.3298
 4225TIP3    H234091   0.719   6.048   3.277 -1.6981  2.4845 -1.2116
 4226TIP3   OH234092   2.598   0.189  11.688  0.4488  0.0583 -0.2527
 4226TIP3    H134093   2.613   0.110  11.636  0.8030  0.1282 -0.2584
 4226TIP3    H234094   2.540   0.161  11.758  1.7215 -0.5597  0.5915
 4227TIP3   OH234095   4.096   5.778   0.517 -0.2560 -0.0966 -0.0426
 4227TIP3    H134096   4.029   5.771   0.585 -1.0131 -0.8049 -0.8127
 4227TIP3    H234097   4.092   5.869   0.488 -1.1680 -0.2147 -0.3250
 4228TIP3   OH234098   4.451   1.985   5.886 -0.4183 -0.0153  0.5398
 4228TIP3    H134099   4.498   1.902   5.880  1.2902  0.8673  1.0118
 4228TIP3    H234100   4.475   2.032   5.805 -1.0999  0.1476  0.4303
 4229TIP3   OH234101   6.684   1.011   3.220  0.8954 -0.1007  0.4585
 4229TIP3    H134102   6.625   1.074   3.178 -1.0579 -1.6378  0.7639
 4229TIP3    H234103   6.679   1.032   3.313  0.1661 -0.7393  0.5710
 4230TIP3   OH234104   1.614   1.415   0.276  0.4447 -0.5522  0.7118
 4230TIP3    H134105   1.573   1.479   0.218 -0.2029 -1.6528 -0.0795
 4230TIP3    H234106   1.707   1.437   0.274  0.0301  1.6759  2.1412
 4231TIP3   OH234107   1.617   6.264  15.949  0.4080 -0.0289 -0.1485
 4231TIP3    H134108   1.645   6.184  15.992  1.5391 -0.2033 -1.1512
 4231TIP3    H234109   1.595   6.236  15.860  1.6011  0.8635 -0.7593
 4232TIP3   OH234110   6.630   5.005  15.097 -0.2766  0.5304 -0.8193
 4232TIP3    H134111   6.724   5.006  15.079  0.3249 -0.0139  1.8622
 4232TIP3    H234112   6.603   5.097  15.095  0.1870  0.6635 -1.9318
 4233TIP3   OH234113   6.689   6.171   2.561  0.6119  0.1140  0.4982
 4233TIP3    H134114   6.643   6.147   2.642 -0.4849 -0.2261 -0.2004
 4233TIP3    H234115   6.621   6.170   2.494  2.0491 -3.4199 -1.1883
 4234TIP3   OH234116   0.335   6.405  15.091  0.3696  0.0535  0.2248
 4234TIP3    H134117   0.317   6.405  14.997  2.8238  0.5900 -0.3067
 4234TIP3    H234118   0.252   6.380  15.131 -0.4966 -1.0983 -2.1178
 4235TIP3   OH234119   0.032   0.213  16.117 -0.0676 -0.5790 -0.4291
 4235TIP3    H134120   0.094   0.211  16.043  0.3469  1.6467 -0.2168
 4235TIP3    H234121   0.085   0.239  16.192 -0.6538 -1.9759  0.5055
 4236TIP3   OH234122   0.514   6.492  16.392 -0.4986 -0.5819 -0.1727
 4236TIP3    H134123   0.511   6.451  16.305 -0.2084 -1.2274  0.1112
 4236TIP3    H234124   0.442   6.452  16.440 -0.0516 -0.9733  0.1915
 4237TIP3   OH234125   3.840   4.762   2.413  0.4732  0.1703  0.1850
 4237TIP3    H134126   3.921   4.732   2.453 -0.8985  0.0725  3.1475
 4237TIP3    H234127   3.839   4.722   2.326  2.2254 -2.1706  1.1609
 4238TIP3   OH234128   2.754   1.427   2.116  0.9224  0.2484 -0.3502
 4238TIP3    H134129   2.791   1.350   2.161 -0.6087 -0.9255 -1.0201
 4238TIP3    H234130   2.762   1.405   2.023 -2.0795 -0.4351 -0.5367
 4239TIP3   OH234131   5.761   1.371   0.231  0.8934 -0.5152 -0.1853
 4239TIP3    H134132   5.811   1.335   0.158  0.4371  0.9674 -1.2862
 4239TIP3    H234133   5.733   1.295   0.282  2.3727 -1.4895 -0.7922
 4240TIP3   OH234134   2.692   6.173  17.157 -0.0092  0.0767  0.3212
 4240TIP3    H134135   2.756   6.137  17.096 -0.0644 -2.3284  1.5902
 4240TIP3    H234136   2.607   6.147  17.121 -0.2413  1.7257 -0.4091
 4241TIP3   OH234137   2.168   2.861  16.353 -0.9690 -0.1442 -0.1215
 4241TIP3    H134138   2.138   2.831  16.439 -1.1558  1.4018  0.3877
 4241TIP3    H234139   2.103   2.926  16.326 -0.7498 -0.3928 -1.3198
 4242TIP3   OH234140   0.879   0.735  16.240 -0.2270 -0.8349  0.0708
 4242TIP3    H134141   0.792   0.703  16.215 -1.4190  1.3111  1.1835
 4242TIP3    H234142   0.876   0.829  16.223  2.2368 -0.8379 -0.7145
 4243TIP3   OH234143   4.552   3.112   0.436 -0.0421 -0.4745  0.1973
 4243TIP3    H134144   4.461   3.088   0.447 -0.3587  1.3785  2.2730
 4243TIP3    H234145   4.576   3.077   0.350 -1.4289 -4.6480  1.2612
 4244TIP3   OH234146   4.647   0.246  17.230  0.1016  0.1438 -0.0647
 4244TIP3    H134147   4.671   0.339  17.243  0.3076  0.2417 -1.1038
 4244TIP3    H234148   4.582   0.247  17.160  1.7017 -0.6574 -1.6412
 4245TIP3   OH234149   4.252   3.296  16.244  0.4686 -0.0876  0.7607
 4245TIP3    H134150   4.226   3.227  16.304  0.4065  0.9104  1.9197
 4245TIP3    H234151   4.185   3.363  16.253  0.6085  0.2122 -0.2227
 4246TIP3   OH234152   1.845   0.020  11.852  0.8023  0.3831 -0.1190
 4246TIP3    H134153   1.906   0.019  11.778  0.6222 -2.4993 -0.3297
 4246TIP3    H234154   1.764   0.057  11.816  1.1251  0.2568 -0.9946
 4247TIP3   OH234155   2.378   4.065  14.540 -0.4217 -0.2639 -0.0219
 4247TIP3    H134156   2.334   4.107  14.615 -0.1981 -1.1702  0.6299
 4247TIP3    H234157   2.441   4.006  14.580  0.0731 -0.3741 -0.9467
 4248TIP3   OH234158   6.547   6.674  12.455 -0.6427  0.6928  0.0516
 4248TIP3    H134159   6.549   6.682  12.551 -1.2565  0.5708  0.0808
 4248TIP3    H234160   6.615   6.733  12.424 -0.8155  1.1543  0.5396
 4249TIP3   OH234161   3.409   0.161   5.083 -0.1484  0.2273 -0.0781
 4249TIP3    H134162   3.436   0.136   4.994 -0.3255 -0.0670 -0.0513
 4249TIP3    H234163   3.374   0.249   5.074  0.5786  0.5103 -0.1595
 4250TIP3   OH234164   6.561   5.722  16.634  0.0852 -0.3073 -0.2808
 4250TIP3    H134165   6.570   5.772  16.715 -0.4479  0.4106 -0.6584
 4250TIP3    H234166   6.650   5.715  16.600  0.1489  0.5258 -0.3048
 4251TIP3   OH234167   5.578   6.407  12.341 -0.3578 -0.2679  0.1758
 4251TIP3    H134168   5.616   6.458  12.269  0.9292 -1.8226 -0.3006
 4251TIP3    H234169   5.647   6.407  12.409 -0.9539 -0.1082  0.7922
 4252TIP3   OH234170   2.112   5.022  15.641 -0.6888 -0.6486 -0.0670
 4252TIP3    H134171   2.186   5.083  15.643 -1.6237  0.5153  0.3615
 4252TIP3    H234172   2.134   4.956  15.707  1.6327 -2.4466 -2.4392
 4253TIP3   OH234173   5.553   3.527  14.377 -0.4325  0.1934  0.2723
 4253TIP3    H134174   5.619   3.513  14.446 -0.9705 -1.0208  0.5510
 4253TIP3    H234175   5.495   3.595  14.414 -0.7594 -0.4953  1.0625
 4254TIP3   OH234176   5.157   4.801  10.731 -0.2212  0.1510 -0.1416
 4254TIP3    H134177   5.087   4.783  10.668 -1.0547  1.2710  0.4316
 4254TIP3    H234178   5.171   4.717  10.775 -0.2785 -0.4113 -1.1633
 4255TIP3   OH234179   6.394   1.878  16.943 -0.2401 -0.7550  0.0167
 4255TIP3    H134180   6.389   1.858  17.037  0.8573 -1.6856 -0.1048
 4255TIP3    H234181   6.304   1.899  16.919 -0.7836 -1.8331  1.0028
 4256TIP3   OH234182   3.324   2.183  14.539  0.2155 -0.2433  0.0522
 4256TIP3    H134183   3.372   2.101  14.525 -0.6242 -0.7023 -0.1796
 4256TIP3    H234184   3.392   2.246  14.562  0.7684 -1.3152  1.6154
 4257TIP3   OH234185   5.224   5.846   2.681 -0.3263  0.4796 -0.0865
 4257TIP3    H134186   5.165   5.914   2.711 -0.6379  0.8720 -1.5130
 4257TIP3    H234187   5.192   5.822   2.594 -0.4983 -1.8202  0.5354
 4258TIP3   OH234188   3.453   0.750  11.840 -0.6495  0.0350 -0.1248
 4258TIP3    H134189   3.375   0.754  11.896  0.8071  0.1787  2.0022
 4258TIP3    H234190   3.496   0.668  11.865  1.7448  1.6457  1.4562
 4259TIP3   OH234191   4.123   5.716  12.148  0.2410  0.6933  0.5202
 4259TIP3    H134192   4.140   5.701  12.055 -0.9903  1.3134  0.1640
 4259TIP3    H234193   4.063   5.791  12.149 -0.3856  0.2048  1.7604
 4260TIP3   OH234194   2.641   5.304   6.030 -0.0713 -0.5413 -0.3057
 4260TIP3    H134195   2.719   5.344   5.992 -0.6517  0.8316 -0.1018
 4260TIP3    H234196   2.676   5.241   6.094  0.9405  1.8445  1.6623
 4261TIP3   OH234197   4.035   5.072  12.982  0.3850  0.6129 -0.3663
 4261TIP3    H134198   4.119   5.109  12.958  1.4193 -1.0125  0.5268
 4261TIP3    H234199   4.046   5.045  13.073  0.0008 -2.3770 -1.0793
 4262TIP3   OH234200   2.573   6.442   5.308  0.5053 -0.6860  0.0299
 4262TIP3    H134201   2.646   6.502   5.325  0.1783 -0.4443  0.6168
 4262TIP3    H234202   2.495   6.493   5.332  0.0687 -0.6071 -1.4903
 4263TIP3   OH234203   1.940   4.341   4.519 -0.1020  0.6142 -0.5040
 4263TIP3    H134204   1.848   4.325   4.540 -0.2178  2.2219  0.3678
 4263TIP3    H234205   1.940   4.360   4.425 -0.5593  0.0605 -0.6250
 4264TIP3   OH234206   2.553   4.941   6.531  0.1062 -0.0293  0.4816
 4264TIP3    H134207   2.618   4.930   6.600  0.8703 -0.3442 -0.2718
 4264TIP3    H234208   2.519   4.853   6.515  0.6697 -0.1234 -0.2392
 4265TIP3   OH234209   1.216   2.346   3.312  0.8666  0.4176 -0.1633
 4265TIP3    H134210   1.172   2.374   3.392 -0.7477  0.4738 -1.0168
 4265TIP3    H234211   1.308   2.368   3.326  0.5506  0.8649  1.4670
 4266TIP3   OH234212   4.276   4.333  13.475  0.4410 -0.2777 -0.1041
 4266TIP3    H134213   4.306   4.418  13.507  0.1180  0.0033 -0.5431
 4266TIP3    H234214   4.194   4.317  13.521  0.1587 -0.0370 -0.5128
 4267TIP3   OH234215   5.619   1.244   1.212  0.0113 -0.0390  0.1149
 4267TIP3    H134216   5.551   1.301   1.176 -0.7078 -0.8997  0.0890
 4267TIP3    H234217   5.573   1.185   1.271  0.9907  0.5029  1.4754
 4268TIP3   OH234218   5.534   4.750   3.357  0.2919  0.2197 -0.4874
 4268TIP3    H134219   5.512   4.843   3.351  0.5831  0.2366 -1.3945
 4268TIP3    H234220   5.551   4.724   3.267  0.5197 -0.6418 -0.1994
 4269TIP3   OH234221   1.665   5.183  14.891  0.0068  0.0379 -0.5266
 4269TIP3    H134222   1.751   5.164  14.929  0.0035  1.9044  0.5457
 4269TIP3    H234223   1.604   5.130  14.942  0.3129  0.3600  0.1946
 4270TIP3   OH234224   2.423   4.671  15.693 -0.5806 -0.8121 -0.1968
 4270TIP3    H134225   2.396   4.599  15.637 -3.0127  0.2345 -0.5013
 4270TIP3    H234226   2.435   4.745  15.633  0.6483 -0.6365  0.2463
 4271TIP3   OH234227   2.272   1.645  15.646 -0.3229 -0.4868 -0.1453
 4271TIP3    H134228   2.217   1.579  15.689 -0.3904 -0.8284 -0.7541
 4271TIP3    H234229   2.250   1.639  15.553 -1.0313  1.0481 -0.1192
 4272TIP3   OH234230   5.919   5.864  11.542 -0.1244 -0.1852  0.3233
 4272TIP3    H134231   5.881   5.908  11.619  0.9870 -0.7108  1.2052
 4272TIP3    H234232   6.011   5.850  11.566  0.2932 -0.1895 -1.1947
 4273TIP3   OH234233   4.583   3.166  15.305  0.2569  0.1012 -0.4602
 4273TIP3    H134234   4.586   3.071  15.305  0.4428  0.0591  1.7494
 4273TIP3    H234235   4.516   3.188  15.370  0.8834  1.4737 -0.2398
 4274TIP3   OH234236   5.292   4.002  11.114 -0.5875 -0.5702  0.3388
 4274TIP3    H134237   5.216   3.971  11.065 -0.4218  0.9232 -0.9564
 4274TIP3    H234238   5.336   4.063  11.055  1.8733 -1.6612  0.8980
 4275TIP3   OH234239   1.254   2.939   3.060  0.3843  0.4867  0.0835
 4275TIP3    H134240   1.159   2.937   3.044  0.4621 -0.3857 -0.3546
 4275TIP3    H234241   1.278   3.031   3.052 -0.6274  0.9158  1.4671
 4276TIP3   OH234242   3.682   5.837   4.030  0.2994  0.5513 -0.5620
 4276TIP3    H134243   3.708   5.863   3.942 -1.4704 -1.1126 -1.6651
 4276TIP3    H234244   3.623   5.762   4.017 -1.0939  1.0727  1.9432
 4277TIP3   OH234245   1.833   1.854  13.112  0.6255 -0.0421  0.4369
 4277TIP3    H134246   1.888   1.931  13.102  1.2199 -0.6833 -1.9657
 4277TIP3    H234247   1.765   1.863  13.045  0.2986 -1.2645  0.5686
 4278TIP3   OH234248   3.471   2.076  13.407  0.2557  0.1647 -0.4637
 4278TIP3    H134249   3.401   2.034  13.458 -0.8672  0.7022 -1.4911
 4278TIP3    H234250   3.544   2.014  13.411 -0.1980 -0.3322  0.7983
 4279TIP3   OH234251   2.310   6.362  16.710  0.2792 -0.0763 -0.3935
 4279TIP3    H134252   2.260   6.429  16.757 -0.8652 -0.1301 -1.4731
 4279TIP3    H234253   2.394   6.357  16.756 -0.2090  0.9832  0.6492
 4280TIP3   OH234254   0.015   1.034  12.098  0.2616 -0.2492 -0.6681
 4280TIP3    H134255  -0.055   0.976  12.129 -0.4534  0.4286 -1.0001
 4280TIP3    H234256   0.049   0.990  12.019 -0.1143 -0.3360 -0.7829
 4281TIP3   OH234257   6.726   5.337  10.550 -0.1299 -0.3958  0.1192
 4281TIP3    H134258   6.789   5.404  10.523  0.5544 -0.9943  0.1864
 4281TIP3    H234259   6.691   5.302  10.468 -0.9511  0.4671  0.0970
 4282TIP3   OH234260   6.244   0.853   2.351  0.0485 -0.5166  0.0846
 4282TIP3    H134261   6.302   0.893   2.416 -2.0148  1.4667  0.8533
 4282TIP3    H234262   6.188   0.795   2.402  0.1616 -1.0084 -0.3509
 4283TIP3   OH234263   2.866   2.126  15.687  0.0930  0.1816  0.6098
 4283TIP3    H134264   2.786   2.172  15.713 -0.8351  0.1307 -1.9385
 4283TIP3    H234265   2.840   2.033  15.684 -0.0917  0.2631 -1.2001
 4284TIP3   OH234266   6.554   0.922  15.242 -0.2190  0.2225  0.3189
 4284TIP3    H134267   6.497   0.853  15.206  0.5356 -0.0072 -0.4575
 4284TIP3    H234268   6.613   0.875  15.300  1.9003 -0.2478 -2.0203
 4285TIP3   OH234269   4.983   3.104  15.655  0.0659 -0.2546 -0.2003
 4285TIP3    H134270   4.889   3.111  15.666  0.0587 -0.2200 -0.2856
 4285TIP3    H234271   5.006   3.173  15.593  0.1806 -0.1035  0.0089
 4286TIP3   OH234272   4.565   5.095  14.850  0.8611 -0.0010 -0.1443
 4286TIP3    H134273   4.553   5.001  14.843  1.4484 -0.3459  2.4237
 4286TIP3    H234274   4.477   5.131  14.844  0.5709 -0.7533 -0.5240
 4287TIP3   OH234275   6.144   5.876   1.692  0.3854  0.1987 -0.1059
 4287TIP3    H134276   6.137   5.925   1.774 -2.1301 -2.4569  1.4453
 4287TIP3    H234277   6.063   5.895   1.645  0.5441 -0.4692 -0.6678
 4288TIP3   OH234278   0.969   6.686   3.637 -0.6282 -0.4198  0.2785
 4288TIP3    H134279   1.040   6.745   3.610 -0.3936 -1.0876 -0.6306
 4288TIP3    H234280   0.894   6.713   3.584 -0.4013 -1.1908 -0.4647
 4289TIP3   OH234281   6.583   5.100   5.244 -0.0763 -0.4267 -0.7866
 4289TIP3    H134282   6.658   5.044   5.266 -0.8823 -0.7148  1.5254
 4289TIP3    H234283   6.562   5.078   5.154  0.4504 -2.9692 -0.3615
 4290TIP3   OH234284   1.617   4.972   0.858 -1.3321  0.3333 -0.3851
 4290TIP3    H134285   1.630   4.944   0.949 -1.2843  1.8581  0.1125
 4290TIP3    H234286   1.616   4.891   0.808 -0.6973 -0.5032  0.8919
 4291TIP3   OH234287   0.060   4.896   1.281  0.9570  0.1738  0.6078
 4291TIP3    H134288  -0.026   4.854   1.286  0.9949  0.0888  0.5368
 4291TIP3    H234289   0.114   4.836   1.230  1.9052 -1.2210  3.0620
 4292TIP3   OH234290   3.757   0.005   4.449 -0.1534  0.0334 -0.7571
 4292TIP3    H134291   3.802   0.073   4.398 -0.6785 -0.8428 -2.4758
 4292TIP3    H234292   3.827  -0.052   4.481  0.1728  0.4292 -0.7582
 4293TIP3   OH234293   1.539   3.022  16.905 -0.4299 -1.0728 -0.3672
 4293TIP3    H134294   1.564   2.958  16.972  1.7775 -0.5509 -0.6096
 4293TIP3    H234295   1.554   2.976  16.822  1.8740 -0.1191 -0.5660
 4294TIP3   OH234296   1.468   6.739  15.356 -0.0728  0.2571  0.0125
 4294TIP3    H134297   1.384   6.698  15.337 -0.7213  1.7496 -0.5276
 4294TIP3    H234298   1.508   6.684  15.423 -0.5955 -1.5697 -1.1308
 4295TIP3   OH234299   2.604   2.254  13.993  0.2773  0.1097  1.1169
 4295TIP3    H134300   2.623   2.279  13.902  0.6130  0.8245  1.3805
 4295TIP3    H234301   2.554   2.173  13.985  0.1391  0.2670  0.2839
 4296TIP3   OH234302   4.679   1.327  11.655  0.1087 -0.3144 -0.3972
 4296TIP3    H134303   4.670   1.237  11.623  1.7651 -1.0444  1.0170
 4296TIP3    H234304   4.771   1.334  11.681 -0.1322  1.6021  0.0848
 4297TIP3   OH234305   3.070   4.152   5.830  0.2552  0.0545 -0.6275
 4297TIP3    H134306   3.035   4.174   5.744  0.1326  0.2289 -0.5337
 4297TIP3    H234307   3.157   4.192   5.831  0.8434 -1.1723 -1.2131
 4298TIP3   OH234308   5.896   5.902   3.960 -0.1242  0.0596  0.6272
 4298TIP3    H134309   5.883   5.997   3.971 -1.2208  0.0601 -0.4842
 4298TIP3    H234310   5.975   5.883   4.010  1.2072  1.8960 -0.6348
 4299TIP3   OH234311   4.683   3.210   4.408  0.1197  0.1564 -0.2187
 4299TIP3    H134312   4.773   3.232   4.434  0.2628  0.1417 -0.7012
 4299TIP3    H234313   4.670   3.120   4.438  0.5033 -0.0824 -0.7658
 4300TIP3   OH234314   5.936   0.743  16.443 -0.0230  0.2046  0.2867
 4300TIP3    H134315   6.029   0.732  16.423 -0.3672  1.3673 -2.2333
 4300TIP3    H234316   5.893   0.675  16.392 -0.7491  1.4073 -0.7261
 4301TIP3   OH234317   5.480   5.195  11.627 -0.2529  0.6319  0.6166
 4301TIP3    H134318   5.473   5.208  11.722 -2.0706  1.0705  0.4642
 4301TIP3    H234319   5.472   5.101  11.615 -0.2237  0.5941  0.8718
 4302TIP3   OH234320   6.626   0.189  15.317 -0.1922  0.3162  0.4862
 4302TIP3    H134321   6.671   0.149  15.242 -1.0088 -0.1570  0.2289
 4302TIP3    H234322   6.689   0.252  15.352 -0.0218  0.9934 -0.9698
 4303TIP3   OH234323   6.310   1.381  11.710 -0.1855  0.1502 -0.0601
 4303TIP3    H134324   6.379   1.392  11.775  0.2202 -1.1078 -0.2608
 4303TIP3    H234325   6.246   1.324  11.753 -1.2725  1.5442  0.2388
 4304TIP3   OH234326   2.368   5.867  16.880 -0.4630  0.4251 -0.8772
 4304TIP3    H134327   2.409   5.926  16.816  0.8475 -0.7315 -1.1487
 4304TIP3    H234328   2.277   5.860  16.850 -0.6134  2.1047 -0.9567
 4305TIP3   OH234329   0.456   6.059  13.930  0.0224 -0.0122 -0.2474
 4305TIP3    H134330   0.463   5.973  13.973 -1.2072 -0.1416 -0.2742
 4305TIP3    H234331   0.447   6.121  14.002  0.5562  0.0607 -0.2401
 4306TIP3   OH234332   0.085   1.900   5.051  0.0940 -0.0557 -0.1253
 4306TIP3    H134333   0.130   1.938   4.976  0.9107 -0.3746  0.1928
 4306TIP3    H234334   0.020   1.841   5.013  2.3266 -2.3525 -0.6350
 4307TIP3   OH234335   5.227   4.543   0.699 -0.4702  0.1715 -0.2885
 4307TIP3    H134336   5.322   4.555   0.707 -0.3217 -0.7267 -0.5910
 4307TIP3    H234337   5.201   4.605   0.631 -0.1477  0.6108 -0.0216
 4308TIP3   OH234338   3.126   4.491  14.154  0.6044 -0.3955 -0.1777
 4308TIP3    H134339   3.161   4.410  14.191 -1.9347 -0.6536  1.9105
 4308TIP3    H234340   3.163   4.495  14.065  3.4192 -2.0709  0.7897
 4309TIP3   OH234341   1.100   2.859  14.628  0.4528 -0.0273  0.6267
 4309TIP3    H134342   1.187   2.896  14.613  0.1532  0.7778  0.8074
 4309TIP3    H234343   1.115   2.783  14.685  1.2525 -1.1797 -1.0663
 4310TIP3   OH234344   2.551   1.562  14.790  0.3781 -0.4590 -0.1559
 4310TIP3    H134345   2.575   1.519  14.708  0.1376 -0.9696  0.0390
 4310TIP3    H234346   2.599   1.515  14.857  2.1272  1.1870 -0.1683
 4311TIP3   OH234347   0.191   0.687  14.255  0.1520  0.1127  0.1548
 4311TIP3    H134348   0.108   0.679  14.300 -0.3017 -1.0992 -0.8466
 4311TIP3    H234349   0.243   0.612  14.285  1.2602  1.3335  1.4539
 4312TIP3   OH234350   3.961   1.830  11.879 -0.5273  0.3007 -0.4275
 4312TIP3    H134351   3.910   1.896  11.832 -1.9616  0.1323  0.8148
 4312TIP3    H234352   4.048   1.869  11.889 -1.3480  2.0478  0.3151
 4313TIP3   OH234353   2.318   0.341  12.192 -0.4159  0.3943  0.5058
 4313TIP3    H134354   2.264   0.307  12.120  1.2014 -0.2616 -0.4445
 4313TIP3    H234355   2.255   0.382  12.252 -1.6650  2.5046 -2.0774
 4314TIP3   OH234356   0.202   1.845  11.709 -0.4494 -0.2723 -0.2152
 4314TIP3    H134357   0.275   1.784  11.712  0.0782  0.3465 -0.2926
 4314TIP3    H234358   0.227   1.917  11.766 -0.4419  0.5316 -1.1892
 4315TIP3   OH234359   4.145   6.195  16.304  0.4706 -0.3247  0.1943
 4315TIP3    H134360   4.122   6.113  16.260 -1.3636  0.2869 -0.0537
 4315TIP3    H234361   4.067   6.218  16.355  0.7597  1.5135 -0.1108
 4316TIP3   OH234362   2.226   2.636  12.982 -0.8317 -0.1755  0.4176
 4316TIP3    H134363   2.318   2.639  12.955 -0.7012 -0.3265  0.8463
 4316TIP3    H234364   2.225   2.680  13.067 -1.2942  0.5880  0.0326
 4317TIP3   OH234365   6.700   5.770   5.312 -0.4419 -0.9460 -0.8003
 4317TIP3    H134366   6.626   5.715   5.333  0.5123 -1.7257  0.6377
 4317TIP3    H234367   6.757   5.715   5.258 -0.0381 -0.9888 -0.3385
 4318TIP3   OH234368   2.477   2.746  10.670 -0.6209 -0.5873 -0.4490
 4318TIP3    H134369   2.471   2.790  10.754  1.3061  0.2449 -0.6862
 4318TIP3    H234370   2.450   2.656  10.688  1.7687 -1.0142  1.6113
 4319TIP3   OH234371   3.333   1.003  16.124  0.1484  0.4117  0.3518
 4319TIP3    H134372   3.269   1.071  16.144  0.7859  1.4386 -0.9768
 4319TIP3    H234373   3.375   0.984  16.207 -0.1168  1.5634  0.7593
 4320TIP3   OH234374   6.248   0.566   5.295 -0.0301  0.3873  0.2980
 4320TIP3    H134375   6.185   0.540   5.227 -1.2916 -0.0322  1.5926
 4320TIP3    H234376   6.245   0.495   5.359  2.8876 -0.4011 -0.2859
 4321TIP3   OH234377   5.917   0.803  13.302  0.4990 -0.8221  0.0820
 4321TIP3    H134378   5.858   0.780  13.229  0.3160 -1.8964  0.5435
 4321TIP3    H234379   5.858   0.815  13.377  0.7199 -0.1154  0.1459
 4322TIP3   OH234380   2.109   2.988  16.788 -0.1390 -0.1884 -0.0881
 4322TIP3    H134381   2.184   3.045  16.803  0.4233 -0.7586 -0.6720
 4322TIP3    H234382   2.094   2.945  16.872  0.5329 -0.4815 -0.1158
 4323TIP3   OH234383   2.508   1.607   4.024 -0.3721 -0.2310 -0.4809
 4323TIP3    H134384   2.540   1.560   4.101  0.5039 -0.7112 -1.1264
 4323TIP3    H234385   2.561   1.687   4.021  0.5135 -0.8305 -1.3145
 4324TIP3   OH234386   5.995   4.205   4.945 -0.0040  0.0545 -1.0478
 4324TIP3    H134387   5.999   4.187   5.039 -0.6413 -0.0960 -1.0414
 4324TIP3    H234388   6.084   4.230   4.921 -0.3759  2.8380  0.1319
 4325TIP3   OH234389   0.114   5.481   1.561 -0.3231 -0.2031  0.0912
 4325TIP3    H134390   0.191   5.534   1.581 -1.4790  0.9864  1.6861
 4325TIP3    H234391   0.144   5.391   1.571  0.5389  0.2555  2.1019
 4326TIP3   OH234392   2.048   5.572  10.457  0.0832  0.8286  0.3507
 4326TIP3    H134393   2.064   5.661  10.426 -0.7439  0.6184 -0.7008
 4326TIP3    H234394   2.058   5.517  10.380  0.1226  0.0549  0.8988
 4327TIP3   OH234395   5.369   2.498  15.288  0.2361 -0.4039  0.6546
 4327TIP3    H134396   5.373   2.425  15.226  2.7636  0.6310 -0.5326
 4327TIP3    H234397   5.438   2.479  15.352  0.4441  0.5901  0.7292
 4328TIP3   OH234398   0.240   5.271  15.168  0.0892 -0.2614 -0.1657
 4328TIP3    H134399   0.274   5.202  15.111  1.2422 -0.1920  0.4171
 4328TIP3    H234400   0.317   5.310  15.208 -0.5011  1.6445 -0.7765
 4329TIP3   OH234401   4.297   6.088   1.723  0.2185 -0.6116  0.1440
 4329TIP3    H134402   4.316   6.119   1.811 -0.1958 -1.8296  0.6838
 4329TIP3    H234403   4.263   6.165   1.677 -1.2213 -0.3431  1.5714
 4330TIP3   OH234404   0.982   5.931   3.981  0.0988  0.4765  0.3073
 4330TIP3    H134405   0.968   5.889   4.066  3.0502  1.6532  1.5099
 4330TIP3    H234406   1.034   5.868   3.931  0.8360  0.9413  0.4807
 4331TIP3   OH234407   6.448   6.328  16.661  0.2953 -0.0761 -0.3034
 4331TIP3    H134408   6.539   6.304  16.677  0.1258 -0.7629 -0.3250
 4331TIP3    H234409   6.446   6.423  16.668  0.9365 -0.0886  0.0761
 4332TIP3   OH234410   1.267   4.056  11.172 -0.3602 -0.6112  0.5333
 4332TIP3    H134411   1.193   4.110  11.145  0.2439  0.2648  0.6002
 4332TIP3    H234412   1.313   4.034  11.091 -0.8919 -1.4713  0.4525
 4333TIP3   OH234413   0.769   4.830  16.746 -0.0273  0.7776 -0.4158
 4333TIP3    H134414   0.724   4.878  16.816  0.2753 -0.8976  1.0022
 4333TIP3    H234415   0.705   4.765  16.717 -0.4521  1.9920 -2.3501
 4334TIP3   OH234416   4.944   1.014   3.330 -0.1297 -0.4471  0.6035
 4334TIP3    H134417   4.907   1.049   3.411 -0.7242  0.5182 -0.0700
 4334TIP3    H234418   5.032   1.051   3.325  0.0096 -0.7254  0.9334
 4335TIP3   OH234419   6.348   6.562   0.735  0.0548  0.5284  0.2143
 4335TIP3    H134420   6.389   6.528   0.815 -1.0702 -0.3969  0.4387
 4335TIP3    H234421   6.267   6.511   0.727  1.6567 -1.8050 -3.3118
 4336TIP3   OH234422   5.410   2.907   2.936  0.5845 -0.0223 -0.0817
 4336TIP3    H134423   5.475   2.929   3.003  1.1652 -1.7497 -0.0371
 4336TIP3    H234424   5.461   2.900   2.855 -0.3274  3.6929 -1.1721
 4337TIP3   OH234425   1.423   2.508  15.881  0.2620  0.1353  0.0582
 4337TIP3    H134426   1.480   2.455  15.937 -0.9119 -0.9366  0.2888
 4337TIP3    H234427   1.473   2.588  15.865  2.2301 -1.1322 -0.5189
 4338TIP3   OH234428   0.144   0.027   3.876 -0.4443  0.1863 -0.1709
 4338TIP3    H134429   0.097  -0.046   3.836 -0.6189  1.0584 -1.6221
 4338TIP3    H234430   0.141   0.008   3.970 -1.5449 -1.0453 -0.4159
 4339TIP3   OH234431   1.112   0.325  11.585 -0.0180 -0.6444  0.4552
 4339TIP3    H134432   1.069   0.394  11.636 -0.0954 -0.7852  0.5813
 4339TIP3    H234433   1.093   0.245  11.633 -0.3985 -0.8271  0.0026
 4340TIP3   OH234434   1.818   3.326  17.264 -0.4660 -0.7243 -0.0824
 4340TIP3    H134435   1.829   3.337  17.359  1.8672 -1.2144 -0.2469
 4340TIP3    H234436   1.806   3.415  17.232 -0.2545 -0.4497  0.5685
 4341TIP3   OH234437   3.440   4.147  14.581 -0.1337  0.1071  0.9531
 4341TIP3    H134438   3.452   4.118  14.491  0.1394 -0.8663  1.2935
 4341TIP3    H234439   3.356   4.193  14.580 -0.2929 -0.1876  0.2638
 4342TIP3   OH234440   2.672   1.516   5.016  0.1234  0.1472  0.2726
 4342TIP3    H134441   2.730   1.475   4.952 -0.0845 -1.8712  1.3228
 4342TIP3    H234442   2.598   1.548   4.964 -0.8330 -2.8639 -0.4028
 4343TIP3   OH234443   0.833   5.288   1.315  0.6428 -0.2350 -0.3999
 4343TIP3    H134444   0.925   5.305   1.337  0.9107  0.5506 -1.9193
 4343TIP3    H234445   0.809   5.361   1.257 -0.9212 -0.4836 -0.1020
 4344TIP3   OH234446   2.319   0.306   3.338 -0.4210 -0.4708 -0.2004
 4344TIP3    H134447   2.227   0.282   3.350 -0.6707  1.3471  2.2272
 4344TIP3    H234448   2.367   0.223   3.349 -1.5277 -0.8183  3.2617
 4345TIP3   OH234449   4.702   5.944   0.519 -0.0383 -0.5406  0.1456
 4345TIP3    H134450   4.753   5.892   0.457 -0.5101 -0.7163 -0.1002
 4345TIP3    H234451   4.732   6.034   0.506 -0.5098 -0.4929 -0.7283
 4346TIP3   OH234452   4.216   4.674  10.578  0.0180  0.5820 -0.1118
 4346TIP3    H134453   4.271   4.752  10.582 -1.7561  1.8857  0.1091
 4346TIP3    H234454   4.220   4.647  10.487  2.2091 -0.2831  0.1979
 4347TIP3   OH234455   5.348   6.170  10.374  0.1663  0.3564 -0.4191
 4347TIP3    H134456   5.270   6.170  10.318  0.0232 -1.7693 -0.3209
 4347TIP3    H234457   5.417   6.207  10.319 -0.3662 -0.0424 -1.3831
 4348TIP3   OH234458   5.676   1.341   0.593 -0.1361 -0.0256 -0.2679
 4348TIP3    H134459   5.644   1.423   0.555 -1.8716  0.9436  2.9420
 4348TIP3    H234460   5.713   1.365   0.677  3.5156 -2.0724 -1.0649
 4349TIP3   OH234461   2.526   6.631  17.157 -0.3220  0.1919 -0.0996
 4349TIP3    H134462   2.575   6.557  17.121  2.2202  0.7208  1.9743
 4349TIP3    H234463   2.563   6.644  17.245 -1.4254  3.2441  0.0348
 4350TIP3   OH234464   0.627   5.820  14.603 -0.0943 -0.1292  0.0421
 4350TIP3    H134465   0.534   5.830  14.582 -0.2520  0.3735  0.9247
 4350TIP3    H234466   0.632   5.831  14.698  0.8630 -0.2082  0.0174
 4351TIP3   OH234467   6.282   3.505  12.750 -0.4584 -0.1207 -0.2109
 4351TIP3    H134468   6.345   3.498  12.679 -0.2783  1.7022 -0.2909
 4351TIP3    H234469   6.324   3.564  12.813 -1.4567 -0.0792  0.4438
 4352TIP3   OH234470   2.616   6.159   3.819  0.1041 -0.4231 -0.4831
 4352TIP3    H134471   2.529   6.183   3.788 -0.5453 -1.6432  0.3386
 4352TIP3    H234472   2.648   6.094   3.757 -0.1998 -1.0793  0.0359
 4353TIP3   OH234473   2.931   4.226  16.790  0.0202  0.1175  0.1153
 4353TIP3    H134474   2.924   4.161  16.860  3.3006  0.6838  1.1206
 4353TIP3    H234475   2.938   4.174  16.710  1.0509 -0.7275  0.7367
 4354TIP3   OH234476   5.055   3.278  10.887  0.4399 -0.4725  0.4240
 4354TIP3    H134477   5.036   3.330  10.965  0.2699 -1.5152  1.1094
 4354TIP3    H234478   4.980   3.219  10.879  0.2436 -0.0834 -0.8069
 4355TIP3   OH234479   5.662   2.493  16.783  0.3448  0.3473  0.2000
 4355TIP3    H134480   5.697   2.560  16.724  0.1836  0.1512 -0.1259
 4355TIP3    H234481   5.714   2.415  16.763  0.7362  0.4553  0.7947
 4356TIP3   OH234482   2.669   3.192   0.923 -0.5324 -0.7762  0.0162
 4356TIP3    H134483   2.764   3.187   0.915 -0.5604 -0.2678 -0.7195
 4356TIP3    H234484   2.645   3.269   0.873 -1.1670  0.1625  1.6818
 4357TIP3   OH234485   0.731   1.904  15.561  0.0738  0.0328 -0.3010
 4357TIP3    H134486   0.762   1.834  15.618 -1.0434 -1.3057 -1.2538
 4357TIP3    H234487   0.726   1.982  15.617 -1.7455 -1.3850  1.6678
 4358TIP3   OH234488   5.217   3.692   1.698  0.1127 -0.1197  0.3718
 4358TIP3    H134489   5.204   3.783   1.726  0.9258  0.0130  0.3453
 4358TIP3    H234490   5.137   3.648   1.724 -0.0694  0.4916  0.8915
 4359TIP3   OH234491   3.806   4.517  14.744  0.2264  0.1832  0.6745
 4359TIP3    H134492   3.746   4.467  14.799  0.5423 -0.1655  0.7060
 4359TIP3    H234493   3.754   4.541  14.668  0.2733 -0.8567  0.2918
 4360TIP3   OH234494   6.660   6.638   5.759  0.4078  1.0328  0.2926
 4360TIP3    H134495   6.614   6.584   5.694 -0.7838  2.1762  0.1346
 4360TIP3    H234496   6.701   6.574   5.817 -1.5032 -0.0991  0.5136
 4361TIP3   OH234497   3.788   5.191   1.159  0.0710  0.1119 -0.1366
 4361TIP3    H134498   3.782   5.153   1.071 -1.4713  2.7433 -1.2929
 4361TIP3    H234499   3.699   5.185   1.194  0.7423 -1.2223  1.4469
 4362TIP3   OH234500   1.731   5.137   0.175 -0.2041 -0.3474 -0.1031
 4362TIP3    H134501   1.669   5.140   0.102  0.4558  1.4530 -0.6752
 4362TIP3    H234502   1.703   5.208   0.233  0.6855 -0.1904  0.1498
 4363TIP3   OH234503   2.506   4.162  12.442  0.0584 -0.5895 -0.2771
 4363TIP3    H134504   2.521   4.102  12.515  2.7477 -1.2355 -1.2542
 4363TIP3    H234505   2.550   4.121  12.367 -0.0056  1.4783 -1.5366
 4364TIP3   OH234506   5.490   6.403  13.841 -0.4579 -0.2995 -0.2993
 4364TIP3    H134507   5.515   6.476  13.783  1.6049 -0.9624 -0.3162
 4364TIP3    H234508   5.399   6.422  13.864 -1.1809  0.3387 -3.2393
 4365TIP3   OH234509   2.674   1.054   2.011  0.0371 -0.4572 -0.1624
 4365TIP3    H134510   2.632   1.047   2.097 -0.9916  0.5937 -0.5523
 4365TIP3    H234511   2.602   1.042   1.948  0.7575 -1.1024 -0.8800
 4366TIP3   OH234512   3.435   2.958  13.603 -0.5023  0.4497 -0.3894
 4366TIP3    H134513   3.386   3.040  13.604  0.1410  0.8417 -0.4301
 4366TIP3    H234514   3.385   2.899  13.660 -1.5527  0.5176 -1.2185
 4367TIP3   OH234515   3.034   3.366   2.513 -0.1914  0.0592 -0.4712
 4367TIP3    H134516   3.038   3.357   2.608 -2.3039  0.5467 -0.2874
 4367TIP3    H234517   3.027   3.276   2.480  2.1115 -0.2406 -0.3437
 4368TIP3   OH234518   5.201   6.179   3.491 -0.2836  0.1599 -0.1842
 4368TIP3    H134519   5.193   6.139   3.577 -1.9999  1.0291  0.0926
 4368TIP3    H234520   5.247   6.262   3.507 -0.8741  0.4659 -0.0382
 4369TIP3   OH234521   4.064   3.249  14.244 -0.1877  0.0711  0.1438
 4369TIP3    H134522   4.014   3.330  14.246  1.7746  1.3555 -0.0761
 4369TIP3    H234523   4.041   3.204  14.325  1.2934  2.5412  2.0717
 4370TIP3   OH234524   5.828   2.503  12.734  0.2441 -0.0499  0.0754
 4370TIP3    H134525   5.774   2.452  12.674  1.6780  0.4296 -1.7319
 4370TIP3    H234526   5.834   2.589  12.694  1.9230  0.0451  0.4427
 4371TIP3   OH234527   1.935   5.239  10.072  0.2625  0.5645  0.3099
 4371TIP3    H134528   1.897   5.244  10.159 -2.0140  1.8464 -0.6676
 4371TIP3    H234529   1.867   5.273  10.014  2.1676  0.9649 -1.8474
 4372TIP3   OH234530   2.351   5.878  11.483  0.2261  0.1324 -0.4799
 4372TIP3    H134531   2.274   5.913  11.438  0.9282  0.6251 -1.3150
 4372TIP3    H234532   2.337   5.902  11.575 -0.8090 -0.1468 -0.5475
 4373TIP3   OH234533   0.426   2.004  15.866 -0.5968  0.1442 -0.5351
 4373TIP3    H134534   0.374   1.988  15.944  0.5903 -2.4428 -0.1588
 4373TIP3    H234535   0.506   2.045  15.899  0.1501 -1.4602 -0.2244
 4374TIP3   OH234536   3.739   3.110  13.355  0.3835 -0.2960  0.1477
 4374TIP3    H134537   3.750   3.017  13.333  1.3292 -0.0303 -0.5919
 4374TIP3    H234538   3.657   3.114  13.403 -0.2105 -1.3629 -0.7429
 4375TIP3   OH234539   1.643   4.973   1.691 -0.0902 -0.1039  0.0376
 4375TIP3    H134540   1.653   4.972   1.786 -1.0614  0.1263  0.1457
 4375TIP3    H234541   1.683   5.055   1.664  1.4137 -0.7733  0.0829
 4376TIP3   OH234542   1.045   6.674  15.962 -0.4050  0.4608  0.0916
 4376TIP3    H134543   1.082   6.591  15.991 -0.6931 -0.1592 -1.2411
 4376TIP3    H234544   1.119   6.733  15.956 -0.2242  0.3857  1.2468
 4377TIP3   OH234545   4.155   6.591  16.247  0.5247  0.5996 -0.1522
 4377TIP3    H134546   4.070   6.548  16.236  0.3964  0.6042  0.7039
 4377TIP3    H234547   4.193   6.594  16.159  0.3191 -0.8361 -0.3119
 4378TIP3   OH234548   2.021   6.565   5.900 -0.1251  0.4211  0.3339
 4378TIP3    H134549   2.022   6.659   5.881 -0.4682  0.9042  2.4453
 4378TIP3    H234550   1.979   6.558   5.986  1.3285 -1.5053  0.9763
 4379TIP3   OH234551   6.210   0.480   4.985 -0.1175 -0.3899 -0.1021
 4379TIP3    H134552   6.241   0.536   4.914 -0.7847 -0.1978 -0.2531
 4379TIP3    H234553   6.261   0.400   4.978  0.7115  0.1249 -0.0077
 4380TIP3   OH234554   3.388   2.357  11.746  0.3095 -0.0241 -0.1926
 4380TIP3    H134555   3.441   2.431  11.776 -1.2536  0.0323  2.7567
 4380TIP3    H234556   3.336   2.393  11.674 -0.5377  1.9098  1.2778
 4381TIP3   OH234557   0.325   3.875   1.945  0.2299 -0.2650  0.9400
 4381TIP3    H134558   0.303   3.794   1.900 -0.6420 -0.1096  1.0713
 4381TIP3    H234559   0.261   3.939   1.912  1.0202  0.4223  0.6889
 4382TIP3   OH234560   0.163   2.807   0.839  0.4583  0.3522 -0.2779
 4382TIP3    H134561   0.213   2.826   0.918 -0.9230  1.5064  0.3594
 4382TIP3    H234562   0.103   2.880   0.830  0.0421 -0.1450 -1.9798
 4383TIP3   OH234563   0.850   3.234  16.315 -0.1439 -0.1511  0.1575
 4383TIP3    H134564   0.908   3.250  16.240 -0.1054 -1.4348 -0.0961
 4383TIP3    H234565   0.893   3.164  16.364 -1.0295 -0.4865  0.4620
 4384TIP3   OH234566   6.668   4.259  10.692 -0.4865  0.1424  0.5962
 4384TIP3    H134567   6.604   4.241  10.623 -1.9687  0.4437  1.8275
 4384TIP3    H234568   6.709   4.341  10.665 -0.4227 -0.1889 -0.3494
 4385TIP3   OH234569   3.456   2.903  17.072  0.0547  0.1655  0.1174
 4385TIP3    H134570   3.425   2.976  17.018 -2.0412 -0.5158  0.3029
 4385TIP3    H234571   3.403   2.908  17.151  1.0438 -0.5817  0.8436
 4386TIP3   OH234572   5.982   0.262   3.679 -0.2256  0.6191  0.4156
 4386TIP3    H134573   5.908   0.263   3.619 -0.2613 -1.5213  0.3548
 4386TIP3    H234574   5.998   0.354   3.698 -1.2741  1.2672 -1.5478
 4387TIP3   OH234575   1.488   5.679  11.636 -0.5920  0.2851  0.1578
 4387TIP3    H134576   1.461   5.715  11.552 -0.0061  2.3851  0.8114
 4387TIP3    H234577   1.407   5.656  11.681 -0.8957 -1.6201 -1.2259
 4388TIP3   OH234578   1.392   3.735   1.527  0.0958  0.2871  0.1299
 4388TIP3    H134579   1.465   3.776   1.574  1.1674  0.3777 -1.5571
 4388TIP3    H234580   1.344   3.687   1.595  0.9582  1.2910  1.4944
 4389TIP3   OH234581   6.081   5.952   0.261  0.1244 -0.1921 -0.2841
 4389TIP3    H134582   6.051   5.876   0.211 -0.8886 -0.5939  0.8930
 4389TIP3    H234583   6.145   5.994   0.204 -1.1946 -0.4516 -2.0546
 4390TIP3   OH234584   0.304   5.977   5.447 -0.3671  0.0472  0.7833
 4390TIP3    H134585   0.212   5.993   5.468 -0.0998  1.1354  1.1969
 4390TIP3    H234586   0.328   5.902   5.502 -0.7977  0.2470  1.2565
 4391TIP3   OH234587   2.827   3.746   5.519 -0.0068  0.5809 -0.4774
 4391TIP3    H134588   2.892   3.800   5.474  0.2733  0.6963  0.0667
 4391TIP3    H234589   2.758   3.808   5.544  0.4182  0.7273  0.3422
 4392TIP3   OH234590   1.538   5.340  11.871  0.9507 -0.1874  0.5920
 4392TIP3    H134591   1.531   5.310  11.780 -0.4589  0.5698  0.4135
 4392TIP3    H234592   1.552   5.434  11.864  0.0781 -0.0054  1.1505
 4393TIP3   OH234593   2.705   1.372   2.580  0.3748  0.7029  0.7028
 4393TIP3    H134594   2.735   1.449   2.532  0.5234  0.2665  0.0854
 4393TIP3    H234595   2.764   1.366   2.655 -1.0953  2.5790  2.1428
 4394TIP3   OH234596   4.094   6.753   5.457 -0.2367 -0.3939 -0.5414
 4394TIP3    H134597   4.066   6.662   5.465  1.8512 -0.9890  0.8189
 4394TIP3    H234598   4.106   6.782   5.547  1.9468  0.2320 -0.9697
 4395TIP3   OH234599   3.686   5.011   1.902 -0.1550  0.3455 -0.1550
 4395TIP3    H134600   3.751   5.067   1.945  0.4488 -0.4321 -0.0241
 4395TIP3    H234601   3.706   5.019   1.809  0.5915 -0.4314 -0.0714
 4396TIP3   OH234602   0.277   0.692   3.931  0.0333 -0.1060  0.2973
 4396TIP3    H134603   0.217   0.662   3.862  0.4808 -0.5068  0.0761
 4396TIP3    H234604   0.326   0.613   3.956 -1.3348 -0.4081  2.3457
 4397TIP3   OH234605   6.032   2.977   3.908  0.2518 -0.7132  0.3121
 4397TIP3    H134606   6.072   2.999   3.824 -0.8658  1.5331  0.2913
 4397TIP3    H234607   5.938   2.969   3.889  0.2043 -2.2683  1.0034
 4398TIP3   OH234608   6.056   5.948  12.145 -0.3475 -0.3563 -0.3306
 4398TIP3    H134609   6.086   5.951  12.054  0.9189  0.1967  0.0794
 4398TIP3    H234610   5.972   5.994  12.144 -0.6740 -0.9350 -1.3251
 4399TIP3   OH234611   0.182   3.889  14.377  0.4773 -0.5327  0.0164
 4399TIP3    H134612   0.131   3.949  14.324 -0.2354 -1.1729 -0.0363
 4399TIP3    H234613   0.246   3.945  14.422  1.3436 -0.0255 -1.7784
 4400TIP3   OH234614   1.881   0.372   3.559  0.2746 -0.1099 -0.3392
 4400TIP3    H134615   1.869   0.361   3.653  0.6621  0.5985 -0.2005
 4400TIP3    H234616   1.963   0.327   3.540 -0.0015 -0.5930 -0.4143
 4401TIP3   OH234617   2.026   0.830  10.540 -0.3047  0.1616 -0.2373
 4401TIP3    H134618   2.112   0.796  10.516 -0.1724  0.2043  0.1628
 4401TIP3    H234619   2.035   0.925  10.535  0.3184  0.2774  1.8480
 4402TIP3   OH234620   4.052   4.770  12.885 -0.6441  0.6145  0.7449
 4402TIP3    H134621   3.967   4.731  12.863 -0.5282  1.3101 -1.1255
 4402TIP3    H234622   4.031   4.858  12.916 -0.6868  0.2320  1.8463
 4403TIP3   OH234623   5.730   2.714   6.441  0.1425  0.3580 -0.1328
 4403TIP3    H134624   5.816   2.725   6.481 -0.7088  1.5225  1.5251
 4403TIP3    H234625   5.741   2.746   6.352  1.2798  1.1579  0.2630
 4404TIP3   OH234626   6.749   3.170  10.805  0.5047 -0.4788  0.1157
 4404TIP3    H134627   6.822   3.228  10.782  0.7375 -1.6187 -2.3896
 4404TIP3    H234628   6.672   3.227  10.801  1.0846  0.5206  1.8542
 4405TIP3   OH234629   0.632   3.006  14.419  0.8083  0.2572 -0.2593
 4405TIP3    H134630   0.626   2.948  14.343  0.9895 -0.9682  0.6308
 4405TIP3    H234631   0.704   2.971  14.471 -0.6143 -0.2338  1.5129
 4406TIP3   OH234632   3.515   6.462  15.022 -0.2735 -0.0573  0.0267
 4406TIP3    H134633   3.441   6.521  15.037  1.6718  1.9252  3.2689
 4406TIP3    H234634   3.553   6.493  14.940 -0.4670  1.9990  0.6392
 4407TIP3   OH234635   6.185   1.920  11.840 -0.5936 -0.2217  0.2158
 4407TIP3    H134636   6.138   1.891  11.761 -0.2888 -0.6686  0.1932
 4407TIP3    H234637   6.177   2.015  11.839 -1.2900 -0.2706  0.0796
 4408TIP3   OH234638   1.621   5.195   4.003 -0.3002 -0.4732  0.4480
 4408TIP3    H134639   1.582   5.141   4.072 -0.1250  0.0845  0.9833
 4408TIP3    H234640   1.711   5.163   3.995  0.0497  0.2814  1.3305
 4409TIP3   OH234641   1.574   5.266  11.594 -0.0186 -0.3896  0.4431
 4409TIP3    H134642   1.598   5.180  11.561  1.0236  0.4412 -1.0609
 4409TIP3    H234643   1.497   5.291  11.544  1.5584  0.8673 -1.5109
 4410TIP3   OH234644   2.381   2.683   3.041 -0.5828  0.2477  0.2260
 4410TIP3    H134645   2.370   2.590   3.021 -0.6804  0.2183  0.4198
 4410TIP3    H234646   2.293   2.720   3.032 -0.5211  0.3472  0.0169
 4411TIP3   OH234647   4.573   3.520  15.902 -0.0263  0.3415  0.4320
 4411TIP3    H134648   4.522   3.464  15.961  1.0030  1.0462  2.0582
 4411TIP3    H234649   4.527   3.514  15.818 -1.4102 -0.8897  1.2243
 4412TIP3   OH234650   4.014   6.397  10.889  0.5636 -0.2497  0.6819
 4412TIP3    H134651   4.065   6.466  10.932  0.7772 -0.7598  1.2632
 4412TIP3    H234652   4.016   6.420  10.796  1.5620 -0.0691  0.7339
 4413TIP3   OH234653   1.988   0.568  17.345  0.0910  0.3187  0.2517
 4413TIP3    H134654   1.942   0.652  17.351 -0.0935  0.2572 -0.3198
 4413TIP3    H234655   2.075   0.586  17.381  0.0388  0.7443  0.1634
 4414TIP3   OH234656   2.183   2.827   4.987  0.7511 -0.1609  0.0378
 4414TIP3    H134657   2.234   2.782   5.055  2.5242  1.0862 -0.3987
 4414TIP3    H234658   2.230   2.808   4.906 -1.5360 -1.9381 -1.0066
 4415TIP3   OH234659   2.405   6.224   2.872  0.0405 -0.3811  0.1305
 4415TIP3    H134660   2.399   6.131   2.849 -0.0332 -0.3836  0.1613
 4415TIP3    H234661   2.411   6.225   2.967  0.4131 -0.3737  0.1097
 4416TIP3   OH234662   3.548   0.736   2.197 -1.0241  0.8734 -0.1175
 4416TIP3    H134663   3.513   0.793   2.128 -0.0433 -0.3300 -1.6855
 4416TIP3    H234664   3.567   0.654   2.152  0.3714  0.2877  1.4548
 4417TIP3   OH234665   5.978   2.727  14.587 -0.2450  0.4149 -0.3697
 4417TIP3    H134666   5.969   2.815  14.623  0.3902  1.0361 -1.6710
 4417TIP3    H234667   5.974   2.739  14.493  2.1193 -0.6628 -0.6713
 4418TIP3   OH234668   6.204   3.300   1.744 -0.0315  0.4140 -0.3476
 4418TIP3    H134669   6.189   3.385   1.783 -1.0372  0.3987 -0.6699
 4418TIP3    H234670   6.246   3.248   1.812 -0.5337  0.7997  0.2600
 4419TIP3   OH234671   1.437   0.391  16.603 -0.1122 -0.5868  0.1251
 4419TIP3    H134672   1.378   0.394  16.678  0.0976  1.0396  0.2588
 4419TIP3    H234673   1.398   0.452  16.540  1.6791  0.9430  0.4315
 4420TIP3   OH234674   0.947   3.290   1.503  0.3137 -0.5858 -0.1865
 4420TIP3    H134675   0.977   3.311   1.415 -2.5440 -1.6560 -1.5637
 4420TIP3    H234676   0.856   3.262   1.491  0.1711 -1.9311  2.9686
 4421TIP3   OH234677   5.905   5.757   0.934 -0.4958  0.0063 -0.6318
 4421TIP3    H134678   5.829   5.810   0.912  1.3281  2.7254 -0.8719
 4421TIP3    H234679   5.978   5.799   0.888  1.2423 -2.2466 -0.1301
 4422TIP3   OH234680   0.549   6.512  12.742  0.3095  0.1993  0.7406
 4422TIP3    H134681   0.473   6.567  12.759 -1.1017 -1.0345 -1.0557
 4422TIP3    H234682   0.534   6.432  12.793  1.5226  0.7698  2.0565
 4423TIP3   OH234683   5.180   2.771  11.618  0.1062  0.0205 -0.1520
 4423TIP3    H134684   5.154   2.692  11.571 -0.8759 -0.6179  1.3655
 4423TIP3    H234685   5.131   2.841  11.576 -0.4664 -0.4767 -0.3349
 4424TIP3   OH234686   0.629   3.780  15.821  0.5604  0.0646 -0.2020
 4424TIP3    H134687   0.543   3.744  15.843  0.7270 -0.4617 -0.3998
 4424TIP3    H234688   0.681   3.704  15.797  1.1978  0.3426  0.2801
 4425TIP3   OH234689   4.623   2.240  14.523 -0.7038  0.3401  0.3435
 4425TIP3    H134690   4.637   2.299  14.597 -0.0155 -0.6987  1.0647
 4425TIP3    H234691   4.693   2.262  14.461  0.4561 -0.6935  1.2574
 4426TIP3   OH234692   3.458   3.126   5.686 -0.1434  0.3363 -0.1112
 4426TIP3    H134693   3.470   3.221   5.679  0.7842  0.2278 -0.1730
 4426TIP3    H234694   3.457   3.108   5.780 -2.2653  0.6144 -0.0456
 4427TIP3   OH234695   0.100   2.311   6.554 -0.4307  0.2384  0.3681
 4427TIP3    H134696   0.138   2.285   6.470 -2.1350  0.0485 -0.3757
 4427TIP3    H234697   0.095   2.230   6.604  2.5412  0.6594  1.5460
 4428TIP3   OH234698   6.265   4.966  14.480  0.5842  0.1911 -0.1634
 4428TIP3    H134699   6.225   5.013  14.553 -0.6680 -0.7308 -0.2363
 4428TIP3    H234700   6.342   5.019  14.458  0.1731  1.2722  0.8592
 4429TIP3   OH234701   3.896   6.551  11.290  0.4278 -0.2151  0.1414
 4429TIP3    H134702   3.846   6.600  11.225  1.0641 -0.2422 -0.3783
 4429TIP3    H234703   3.835   6.485  11.322 -0.2106  0.4515  0.3249
 4430TIP3   OH234704   0.057   2.529  12.712  0.4398 -0.2411 -0.2300
 4430TIP3    H134705  -0.017   2.545  12.654  0.2846  0.9500  0.2744
 4430TIP3    H234706   0.133   2.564  12.664  0.2595  1.0926  0.3988
 4431TIP3   OH234707   6.420   3.015   3.836 -0.2113 -0.5507  0.3447
 4431TIP3    H134708   6.491   2.967   3.795 -0.0705  0.2121 -0.3214
 4431TIP3    H234709   6.371   2.949   3.884  1.6670 -0.9131  1.8973
 4432TIP3   OH234710   2.986   2.365   0.422  0.1936 -0.1356  0.4279
 4432TIP3    H134711   2.957   2.447   0.382 -0.4679 -0.5364  0.0679
 4432TIP3    H234712   2.913   2.339   0.478 -0.0096 -0.9630 -0.1953
 4433TIP3   OH234713   2.386   5.405  10.333  0.0822  0.0037  0.4938
 4433TIP3    H134714   2.471   5.367  10.355  0.6032 -0.1197 -1.4820
 4433TIP3    H234715   2.353   5.441  10.415  1.6881 -0.6324  1.4595
 4434TIP3   OH234716   0.637   1.724  13.565  0.1090 -0.0084  0.0564
 4434TIP3    H134717   0.666   1.814  13.578 -1.2596  0.2567  1.6358
 4434TIP3    H234718   0.651   1.681  13.650  1.2361 -1.4690 -0.8158
 4435TIP3   OH234719   5.068   0.021   1.566 -0.1903 -0.1366 -0.2229
 4435TIP3    H134720   4.995  -0.006   1.621 -0.2643  0.2354 -0.1349
 4435TIP3    H234721   5.146  -0.009   1.614 -0.3052 -1.0807 -0.6245
 4436TIP3   OH234722   1.796   3.115  16.974 -0.3229 -0.4413 -0.3447
 4436TIP3    H134723   1.707   3.098  16.943 -1.1417  0.4770  1.3672
 4436TIP3    H234724   1.804   3.062  17.054  0.6771 -0.5315 -0.4915
 4437TIP3   OH234725   1.481   5.727  15.406  0.2221 -0.0507 -0.0407
 4437TIP3    H134726   1.569   5.764  15.419  0.1746 -0.5598  2.3007
 4437TIP3    H234727   1.470   5.723  15.311  2.9401 -0.4816 -0.4184
 4438TIP3   OH234728   5.731   5.866   3.394 -0.2520 -0.1690 -0.3906
 4438TIP3    H134729   5.681   5.789   3.419 -1.2936  0.5101 -0.3362
 4438TIP3    H234730   5.774   5.893   3.476  0.0380 -0.6170 -0.3878
 4439TIP3   OH234731   3.267   1.860  10.823 -0.2183 -0.1014 -0.4393
 4439TIP3    H134732   3.229   1.778  10.792 -1.1997  0.2979 -0.3166
 4439TIP3    H234733   3.351   1.866  10.777  1.5519 -2.8132  1.9765
 4440TIP3   OH234734   2.726   0.367   3.411 -0.4337 -0.2345 -0.1313
 4440TIP3    H134735   2.807   0.338   3.369 -0.1530  0.2858  0.0439
 4440TIP3    H234736   2.659   0.352   3.344 -0.0016  0.5372 -0.7675
 4441TIP3   OH234737   1.989   6.030  15.482  0.1474  0.6052 -0.1616
 4441TIP3    H134738   1.959   6.111  15.440  1.5232  0.8091 -0.8192
 4441TIP3    H234739   2.039   5.985  15.413 -0.6815 -0.8731  0.1596
 4442TIP3   OH234740   2.733   4.663   5.612 -0.3586  0.0521 -0.2605
 4442TIP3    H134741   2.781   4.706   5.682  0.9044 -0.5231 -0.7474
 4442TIP3    H234742   2.705   4.579   5.649 -0.2783  0.0346 -0.2403
 4443TIP3   OH234743   3.077   4.143  16.538 -0.0704 -0.1140  0.0378
 4443TIP3    H134744   3.109   4.054  16.517 -1.0329  0.1612 -3.2123
 4443TIP3    H234745   3.156   4.198  16.533  0.0306 -0.3382 -1.6016
 4444TIP3   OH234746   5.835   4.472   5.305  0.3787  0.6179 -0.4332
 4444TIP3    H134747   5.784   4.393   5.288 -0.8862  1.0792  0.9640
 4444TIP3    H234748   5.923   4.452   5.272 -0.6088 -0.3075 -2.6758
 4445TIP3   OH234749   1.385   0.582  13.069 -0.3187  0.2984 -0.0268
 4445TIP3    H134750   1.366   0.589  13.162  0.2614 -0.2785  0.1411
 4445TIP3    H234751   1.367   0.490  13.048  0.4322  0.2077 -0.2858
 4446TIP3   OH234752   4.419   0.972   1.338 -0.1200 -0.1664 -0.2952
 4446TIP3    H134753   4.331   0.988   1.304  0.1102 -2.1391 -2.0292
 4446TIP3    H234754   4.419   1.013   1.425 -2.5106  0.4343 -0.5039
 4447TIP3   OH234755   2.808   0.023  17.368 -0.0074  0.1241 -0.8925
 4447TIP3    H134756   2.766   0.107  17.347  1.4410  1.0861 -0.1388
 4447TIP3    H234757   2.735  -0.037  17.384 -1.1065  1.5770 -0.2228
 4448TIP3   OH234758   3.092   3.443  13.241 -0.2741 -0.4539  0.2357
 4448TIP3    H134759   3.001   3.475  13.244 -0.5008 -1.1136  0.8270
 4448TIP3    H234760   3.084   3.353  13.210 -0.0518 -1.2265  2.2600
 4449TIP3   OH234761   6.142   4.335  15.154  0.1805  0.9259  0.1546
 4449TIP3    H134762   6.107   4.422  15.171 -0.7224  0.4577  0.8082
 4449TIP3    H234763   6.142   4.326  15.059 -2.2887  0.6558  0.1230
 4450TIP3   OH234764   0.006   4.132  15.713  0.4566  0.1669  0.2767
 4450TIP3    H134765   0.088   4.180  15.725  0.0177  1.2082 -0.7459
 4450TIP3    H234766  -0.062   4.196  15.734 -0.1276 -0.3132 -0.1431
 4451TIP3   OH234767   0.194   4.958  11.623  0.2518  0.2650 -0.6797
 4451TIP3    H134768   0.229   4.947  11.712  0.4830  1.8243 -0.5396
 4451TIP3    H234769   0.246   4.899  11.569 -1.8661 -3.0549  0.5992
 4452TIP3   OH234770   2.289   0.390  17.063  0.3343 -0.8898 -0.1386
 4452TIP3    H134771   2.307   0.483  17.081 -1.3724 -0.6148  0.2564
 4452TIP3    H234772   2.324   0.344  17.139  1.0724 -0.5703 -0.2738
 4453TIP3   OH234773   4.896   0.890   4.920  0.2189 -0.1083  0.1500
 4453TIP3    H134774   4.837   0.820   4.947 -0.5367  0.1153 -0.8824
 4453TIP3    H234775   4.912   0.940   5.000 -0.7217 -0.3622  0.5083
 4454TIP3   OH234776   5.440   3.021  14.495 -0.3707  0.5598  0.1230
 4454TIP3    H134777   5.370   2.956  14.500 -2.5557  2.8324  1.4010
 4454TIP3    H234778   5.483   3.004  14.412 -1.0795 -2.2130  0.2176
 4455TIP3   OH234779   5.696   2.295  15.154 -0.0702 -0.9337  0.1932
 4455TIP3    H134780   5.753   2.360  15.196 -0.0160 -0.2495 -0.8957
 4455TIP3    H234781   5.751   2.217  15.147 -0.0916 -1.0815  1.3991
 4456TIP3   OH234782   5.430   1.696   2.049 -0.1254 -0.0108  0.1012
 4456TIP3    H134783   5.451   1.788   2.036 -0.8133  0.0800 -0.4209
 4456TIP3    H234784   5.419   1.686   2.143 -0.0824  0.4416  0.1531
 4457TIP3   OH234785   4.040   3.904   1.832  0.8856 -0.0796  0.6312
 4457TIP3    H134786   4.060   3.997   1.825  1.0901 -0.1398  0.4412
 4457TIP3    H234787   4.116   3.866   1.875  0.8829 -0.1902  0.5390
 4458TIP3   OH234788   0.723   6.657   3.479  0.5983 -0.2601 -0.2461
 4458TIP3    H134789   0.766   6.604   3.411 -1.6787 -1.7729 -0.6256
 4458TIP3    H234790   0.658   6.598   3.518 -2.4409  2.3056 -0.9989
 4459TIP3   OH234791   6.684   6.176  10.559 -0.0769  0.0522  0.2968
 4459TIP3    H134792   6.725   6.262  10.571 -1.4740  0.7538  0.3224
 4459TIP3    H234793   6.666   6.171  10.465 -1.5354  0.5626  0.5205
 4460TIP3   OH234794   2.000   0.129  14.881  0.5863 -0.1948 -0.4580
 4460TIP3    H134795   2.017   0.163  14.793 -0.4319 -0.2605 -0.6918
 4460TIP3    H234796   1.906   0.138  14.892  0.8298  0.7676  1.0430
 4461TIP3   OH234797   5.500   5.268   0.969  0.2771  0.3045  0.0455
 4461TIP3    H134798   5.468   5.212   1.040 -0.1189 -0.6763 -0.8701
 4461TIP3    H234799   5.423   5.282   0.913  1.0449 -0.7781 -1.3517
 4462TIP3   OH234800   1.667   2.442   4.150  0.4208 -0.0039  0.2983
 4462TIP3    H134801   1.758   2.458   4.175  1.6093 -1.3671 -2.6893
 4462TIP3    H234802   1.663   2.469   4.058 -1.5500 -2.1251 -0.3119
 4463TIP3   OH234803   5.517   1.365  15.514 -0.3437  0.2145  0.2378
 4463TIP3    H134804   5.504   1.341  15.422 -0.2459  1.4925 -0.1332
 4463TIP3    H234805   5.608   1.341  15.533 -0.5836 -0.7530  0.2496
 4464TIP3   OH234806   1.741   6.226   5.578 -0.1663 -0.2482 -0.1356
 4464TIP3    H134807   1.687   6.239   5.655 -0.3634  0.7150 -0.4208
 4464TIP3    H234808   1.693   6.163   5.524 -1.8037  1.6796 -1.0842
 4465TIP3   OH234809   2.595   1.324  11.399 -0.5168  0.1404  0.6097
 4465TIP3    H134810   2.628   1.349  11.484  0.3219 -0.9853  0.6395
 4465TIP3    H234811   2.599   1.228  11.399 -4.4616 -0.1849  0.8953
 4466TIP3   OH234812   4.480   4.756  11.381  0.0845  0.0377  0.0213
 4466TIP3    H134813   4.414   4.709  11.431  1.3565  0.7018  2.5071
 4466TIP3    H234814   4.533   4.801  11.447  2.5044  0.2201 -1.8753
 4467TIP3   OH234815   1.333   0.270  13.406 -0.1934  0.0486 -0.5677
 4467TIP3    H134816   1.387   0.197  13.436  1.1711  0.9190 -0.7904
 4467TIP3    H234817   1.304   0.243  13.318 -0.2170 -0.4804 -0.4017
 4468TIP3   OH234818   1.105   2.785  11.113 -0.5007 -0.6896  0.3915
 4468TIP3    H134819   1.117   2.880  11.123  1.9060 -0.8662 -0.0681
 4468TIP3    H234820   1.123   2.768  11.021 -4.0080 -1.2965 -0.2957
 4469TIP3   OH234821   3.310   2.812  15.988 -0.1187  0.1189  0.0132
 4469TIP3    H134822   3.266   2.834  15.906 -0.9604 -0.6316  0.2577
 4469TIP3    H234823   3.250   2.842  16.057 -0.5567 -1.4558  0.3469
 4470TIP3   OH234824   5.695   4.412  11.317  0.2859  0.2836 -0.1481
 4470TIP3    H134825   5.762   4.345  11.327  0.7191  1.0528  3.3198
 4470TIP3    H234826   5.743   4.488  11.283  1.0597  0.5741  1.5214
 4471TIP3   OH234827   1.538   2.963  16.169 -0.5030  0.2941 -0.1432
 4471TIP3    H134828   1.535   2.871  16.194 -0.8845  0.1854 -0.5829
 4471TIP3    H234829   1.479   3.007  16.231 -0.3957  0.2342  0.0035
 4472TIP3   OH234830   6.768   2.322   1.548 -0.1974 -0.2844  0.5043
 4472TIP3    H134831   6.707   2.382   1.505  0.2098  0.4323  0.9031
 4472TIP3    H234832   6.713   2.266   1.602 -0.7548 -1.3903 -1.1210
 4473TIP3   OH234833   0.134   2.383  11.413  0.0865  0.1517 -0.9855
 4473TIP3    H134834   0.167   2.374  11.324  0.7818  1.7769 -0.9247
 4473TIP3    H234835   0.194   2.331  11.466  1.2604  1.2686 -1.1645
 4474TIP3   OH234836   3.944   4.395   2.384 -0.1463 -0.6152  0.1929
 4474TIP3    H134837   3.917   4.383   2.293  0.4049 -3.1575  0.2891
 4474TIP3    H234838   4.023   4.342   2.392  0.6598  0.7556  1.8054
 4475TIP3   OH234839   4.879   6.253  11.862  0.0774  0.1373  0.4408
 4475TIP3    H134840   4.800   6.248  11.915 -0.8888  4.2180 -0.2620
 4475TIP3    H234841   4.848   6.264  11.773  1.3983  1.5344  0.1088
 4476TIP3   OH234842   3.589   4.194  12.970 -0.2668  0.0274 -0.6950
 4476TIP3    H134843   3.533   4.121  12.946 -2.6219  1.4349  0.1678
 4476TIP3    H234844   3.582   4.200  13.066  1.2230  0.4064 -0.5743
 4477TIP3   OH234845   4.317   5.182   5.970 -0.5504  0.0418  0.1296
 4477TIP3    H134846   4.346   5.272   5.982  0.6152 -0.1390 -1.1753
 4477TIP3    H234847   4.331   5.141   6.055 -1.7288  1.2398  0.9350
 4478TIP3   OH234848   4.820   5.822   4.720 -0.5880  0.3236 -0.4831
 4478TIP3    H134849   4.834   5.731   4.749  0.2716  0.8299  0.7586
 4478TIP3    H234850   4.907   5.853   4.697 -0.8026  1.0081 -0.3705
 4479TIP3   OH234851   3.099   6.455  16.440  0.0411  0.0052  0.0279
 4479TIP3    H134852   3.113   6.540  16.481 -1.6679  0.3784 -0.0845
 4479TIP3    H234853   3.004   6.450  16.428  0.2212 -1.4446 -0.9880
 4480TIP3   OH234854   2.814   6.074  13.484 -0.3614 -0.2371 -0.0572
 4480TIP3    H134855   2.738   6.017  13.499 -3.2044  3.7374  2.4748
 4480TIP3    H234856   2.784   6.138  13.420  1.3650  0.6051 -0.0728
 4481TIP3   OH234857   3.940   3.247  15.957 -0.5398 -0.3320 -0.4688
 4481TIP3    H134858   3.988   3.170  15.926  0.5171  0.1338 -0.0450
 4481TIP3    H234859   3.988   3.321  15.921 -0.0527  0.1902  1.1846
 4482TIP3   OH234860   0.372   3.345  12.298  0.7474  0.1694  0.4928
 4482TIP3    H134861   0.282   3.377  12.294 -0.5897 -3.2757 -0.7220
 4482TIP3    H234862   0.417   3.391  12.228 -0.6970  0.3271 -0.3855
 4483TIP3   OH234863   5.797   2.889  15.691  0.5080 -0.0986  0.3045
 4483TIP3    H134864   5.815   2.819  15.754 -0.5723  0.9920  1.8950
 4483TIP3    H234865   5.806   2.846  15.605 -0.5878 -2.3335  1.2006
 4484TIP3   OH234866   0.980   0.470  13.140 -0.1118 -0.5604 -0.1700
 4484TIP3    H134867   1.019   0.526  13.073 -1.1784 -0.1207 -0.4535
 4484TIP3    H234868   0.933   0.403  13.090 -1.4910  0.1689  0.0937
 4485TIP3   OH234869   5.085   4.829   3.555 -0.0129  0.3236 -0.0634
 4485TIP3    H134870   5.150   4.774   3.600  2.1107  1.9410 -0.9466
 4485TIP3    H234871   5.023   4.767   3.517  1.3867 -1.3646  0.2721
 4486TIP3   OH234872   2.541   1.475   0.279 -0.2409  0.2483 -0.8844
 4486TIP3    H134873   2.481   1.524   0.336  0.3454  0.6619 -0.6035
 4486TIP3    H234874   2.571   1.540   0.215 -0.8271 -0.1922 -1.6156
 4487TIP3   OH234875   5.508   5.476   1.284  0.4317  0.4538  0.0703
 4487TIP3    H134876   5.422   5.445   1.313  0.7997 -2.2929 -1.4770
 4487TIP3    H234877   5.569   5.446   1.352  0.3490  1.4011  0.5861
 4488TIP3   OH234878   1.863   5.632  11.510  0.3888 -0.3533  0.0420
 4488TIP3    H134879   1.954   5.646  11.481  0.9639 -2.4288  0.6835
 4488TIP3    H234880   1.844   5.707  11.566  1.8126 -0.0411  0.1461
 4489TIP3   OH234881   3.309   3.301   0.025 -0.2031  0.2158 -0.0293
 4489TIP3    H134882   3.356   3.223   0.053 -1.3393 -0.7500 -0.7023
 4489TIP3    H234883   3.377   3.364   0.001  0.7235 -0.6060  0.4310
 4490TIP3   OH234884   5.791   2.170   3.689  0.2479 -0.1205  0.0712
 4490TIP3    H134885   5.808   2.255   3.728 -0.0058  0.0115 -0.1038
 4490TIP3    H234886   5.712   2.183   3.636  0.8085 -0.1937 -0.8035
 4491TIP3   OH234887   5.842   0.492   3.364 -0.5460  0.2396  0.0066
 4491TIP3    H134888   5.818   0.399   3.367  2.2420 -0.5545  0.3948
 4491TIP3    H234889   5.827   0.523   3.454  0.6447 -0.4611  0.4645
 4492TIP3   OH234890   0.536   4.517  12.860 -0.1249 -0.0398 -0.0063
 4492TIP3    H134891   0.607   4.456  12.841  0.1405 -0.1968  1.3577
 4492TIP3    H234892   0.496   4.536  12.775  2.1183  0.7655 -0.9500
 4493TIP3   OH234893   5.666   3.639  12.634 -0.4412  0.5822  0.0875
 4493TIP3    H134894   5.699   3.691  12.561 -0.3365  0.6966  0.2175
 4493TIP3    H234895   5.624   3.702  12.693 -1.0581  0.4207 -0.1637
 4494TIP3   OH234896   0.612   1.843   1.591  0.1448  1.0019 -0.0114
 4494TIP3    H134897   0.608   1.758   1.636  0.8727 -0.1517 -1.9739
 4494TIP3    H234898   0.542   1.894   1.630  0.3887 -0.0935  2.0108
 4495TIP3   OH234899   0.467   3.561  13.510 -0.0299  0.0743 -0.5628
 4495TIP3    H134900   0.524   3.571  13.586 -0.6179  0.8823 -0.2088
 4495TIP3    H234901   0.500   3.483  13.465  0.0699 -0.6789  0.7510
 4496TIP3   OH234902   1.275   3.523  12.648  0.7818  0.1631  0.6061
 4496TIP3    H134903   1.225   3.588  12.697 -2.8306 -1.6645 -0.3435
 4496TIP3    H234904   1.292   3.453  12.711  0.6132  0.0368  0.5128
 4497TIP3   OH234905   6.441   2.523  11.764  0.5185 -0.3719 -0.0123
 4497TIP3    H134906   6.505   2.459  11.732  0.3725 -1.0413  0.9912
 4497TIP3    H234907   6.374   2.525  11.695  0.1091 -1.9252  0.2885
 4498TIP3   OH234908   2.946   0.097  16.552 -0.3301  0.2136 -0.0870
 4498TIP3    H134909   3.023   0.043  16.569  0.9163  2.2701  1.2277
 4498TIP3    H234910   2.929   0.084  16.459  2.1049  0.2675 -0.6240
 4499TIP3   OH234911   6.073   6.436  12.545  0.3041 -0.0811 -0.0983
 4499TIP3    H134912   6.022   6.514  12.566  1.6355  0.8886 -0.3509
 4499TIP3    H234913   6.111   6.409  12.628 -1.1819 -1.2515  0.2328
 4500TIP3   OH234914   1.122   1.730  10.731  0.3664 -0.4630  0.4668
 4500TIP3    H134915   1.163   1.815  10.714  1.9574 -1.2750  0.0086
 4500TIP3    H234916   1.195   1.669  10.731 -1.0451 -2.3661 -2.6535
 4501TIP3   OH234917   5.002   5.837  12.873  0.0159 -0.2564 -0.5262
 4501TIP3    H134918   4.970   5.866  12.787  0.2050 -0.3788 -0.6374
 4501TIP3    H234919   5.069   5.772  12.853  0.6422  0.3082 -0.3000
 4502TIP3   OH234920   3.993   6.089   2.925 -0.3544  0.0711 -0.3817
 4502TIP3    H134921   3.898   6.090   2.929 -0.4145 -1.0692 -1.0148
 4502TIP3    H234922   4.013   6.040   2.845  0.7710 -1.4160  0.7685
 4503TIP3   OH234923   1.393   3.787  16.254 -0.1833  0.8674  0.0337
 4503TIP3    H134924   1.305   3.753  16.236  0.1494 -0.1700  0.2851
 4503TIP3    H234925   1.441   3.712  16.289  0.1050  2.0119  2.2699
 4504TIP3   OH234926   5.658   2.972  12.020  0.2237  0.0565 -0.1924
 4504TIP3    H134927   5.677   2.888  11.977 -2.5036  0.1927 -1.8714
 4504TIP3    H234928   5.647   3.034  11.948 -0.1920  1.3160  0.9172
 4505TIP3   OH234929   5.656   4.136  12.877  0.6955  0.0290  0.1363
 4505TIP3    H134930   5.634   4.111  12.966  1.1754  2.7916  1.1304
 4505TIP3    H234931   5.591   4.201  12.853  0.1242 -1.1806 -1.8730
 4506TIP3   OH234932   3.222   2.092  14.068 -0.2255  0.3975 -0.7902
 4506TIP3    H134933   3.256   2.004  14.085 -1.0589  0.2421  0.1534
 4506TIP3    H234934   3.264   2.147  14.135  1.2858  0.9939 -2.1570
 4507TIP3   OH234935   1.457   1.254   0.825  0.0921  0.2897  0.8716
 4507TIP3    H134936   1.369   1.277   0.797  0.6618 -0.3632 -1.7161
 4507TIP3    H234937   1.447   1.169   0.869 -0.3320 -1.2331 -1.9131
 4508TIP3   OH234938   4.547   1.124  15.989  0.9374  0.2334  0.0869
 4508TIP3    H134939   4.575   1.185  15.921  3.2781 -0.8678 -0.0411
 4508TIP3    H234940   4.499   1.055  15.942  2.0783 -0.2447 -0.4017
 4509TIP3   OH234941   0.131   5.258  14.894 -0.6197  0.3310  0.1040
 4509TIP3    H134942   0.041   5.280  14.872 -1.1195 -1.1085  0.6049
 4509TIP3    H234943   0.134   5.163  14.892  1.1935  0.3539 -1.0446
 4510TIP3   OH234944   0.643   2.352  12.363 -0.3837  0.4225  0.1155
 4510TIP3    H134945   0.728   2.309  12.374 -1.0338 -0.5025  1.9225
 4510TIP3    H234946   0.633   2.406  12.441 -1.2077  0.9694 -0.3582
 4511TIP3   OH234947   5.358   5.338  13.009 -0.0446 -0.4454  0.3053
 4511TIP3    H134948   5.414   5.412  12.987 -0.5069 -0.4890 -1.0870
 4511TIP3    H234949   5.417   5.274  13.048  0.7790 -0.2475 -0.5789
 4512TIP3   OH234950   2.881   4.281  14.117  0.8240 -0.0668  0.1678
 4512TIP3    H134951   2.786   4.271  14.118  0.7189  0.7852  1.4902
 4512TIP3    H234952   2.898   4.341  14.045  0.4894 -1.1617 -0.8467
 4513TIP3   OH234953   3.032   1.010   4.099 -0.0704  0.5330 -0.1066
 4513TIP3    H134954   3.095   0.963   4.154  0.3170 -1.3723 -2.0559
 4513TIP3    H234955   2.947   0.980   4.130  0.1660 -2.3393 -1.8568
 4514TIP3   OH234956   4.857   0.813  17.389  0.9670  0.5997  0.2703
 4514TIP3    H134957   4.770   0.851  17.376  0.2765 -0.7241  0.7592
 4514TIP3    H234958   4.888   0.793  17.301  0.2374 -0.0255  0.1411
 4515TIP3   OH234959   6.163   2.324   4.483 -0.0685 -0.5416  0.1652
 4515TIP3    H134960   6.154   2.249   4.542 -1.5725 -0.0772  0.5638
 4515TIP3    H234961   6.157   2.285   4.395 -2.9353 -0.7612  0.3488
 4516TIP3   OH234962   3.543   0.862  13.711 -0.0139 -0.2890  0.4563
 4516TIP3    H134963   3.555   0.791  13.648 -0.2869  1.9379 -2.3287
 4516TIP3    H234964   3.632   0.896  13.727  0.1268 -1.2407  1.8471
 4517TIP3   OH234965   3.524   3.424   5.428  0.6178 -0.6339 -0.2953
 4517TIP3    H134966   3.481   3.470   5.500  0.9773 -0.0072 -0.4846
 4517TIP3    H234967   3.593   3.483   5.398  2.4306 -2.0935  0.7754
 4518TIP3   OH234968   2.617   4.666  17.057  0.0370  0.7187 -0.6696
 4518TIP3    H134969   2.632   4.668  17.152 -0.7009 -2.4043 -0.3584
 4518TIP3    H234970   2.704   4.681  17.019  0.9762 -1.0071  0.6264
 4519TIP3   OH234971   2.155   6.423  14.494 -0.0564  0.2586  0.7085
 4519TIP3    H134972   2.159   6.445  14.586  0.0652 -0.0514  0.7805
 4519TIP3    H234973   2.093   6.486  14.456 -1.1196 -0.4283  1.2490
 4520TIP3   OH234974   1.028   0.129  11.770 -0.2629  0.7205  0.4315
 4520TIP3    H134975   1.064   0.144  11.858 -2.4393  2.3923  1.1103
 4520TIP3    H234976   1.026   0.033  11.762  2.4782  0.5224  1.0505
 4521TIP3   OH234977   0.975   6.098  13.586 -0.1048  0.5516  0.2764
 4521TIP3    H134978   0.967   6.138  13.499 -1.9331 -0.0422  0.1225
 4521TIP3    H234979   1.069   6.098  13.604  0.2638  1.2679 -1.4193
 4522TIP3   OH234980   5.852   0.767  11.761  0.1693 -0.1565 -0.5916
 4522TIP3    H134981   5.861   0.677  11.792  2.6098 -0.2654 -1.4185
 4522TIP3    H234982   5.851   0.760  11.665  0.9015  0.7037 -0.6777
 4523TIP3   OH234983   4.899   1.978  14.540 -0.5576 -0.1175  0.0164
 4523TIP3    H134984   4.868   2.019  14.459 -1.5165  0.4129  0.6454
 4523TIP3    H234985   4.973   1.924  14.512 -1.1249 -0.2485 -1.2765
 4524TIP3   OH234986   1.800   0.576  12.907  0.2837  0.4804 -0.0863
 4524TIP3    H134987   1.739   0.643  12.937  0.2109  0.9957 -1.3187
 4524TIP3    H234988   1.871   0.578  12.971  0.4650  2.0029 -0.2844
 4525TIP3   OH234989   4.157   4.202   2.007  0.4023 -0.5233 -0.0224
 4525TIP3    H134990   4.087   4.224   1.946  0.5367  0.1182  0.0476
 4525TIP3    H234991   4.231   4.178   1.951  0.6601  0.4883 -0.1276
 4526TIP3   OH234992   0.028   5.207  13.751  0.1906  0.5559 -0.0305
 4526TIP3    H134993   0.024   5.182  13.659  0.9642  1.1579 -0.2415
 4526TIP3    H234994   0.010   5.126  13.799 -1.9956  0.5813 -0.6874
 4527TIP3   OH234995   4.746   1.816   5.966 -0.3495  0.4335 -0.2020
 4527TIP3    H134996   4.716   1.814   6.057  1.8940 -1.0638  0.5886
 4527TIP3    H234997   4.686   1.758   5.920 -0.5702 -0.0530  0.6717
 4528TIP3   OH234998   0.681   6.660  13.503  0.3598  0.5885  0.9671
 4528TIP3    H134999   0.761   6.667  13.556 -1.3099  2.6065  3.4503
 4528TIP3    H235000   0.649   6.572  13.522  2.7284 -0.9447 -1.4166
 4529TIP3   OH235001   5.818   3.022  17.207  0.4007 -0.3352  0.0671
 4529TIP3    H135002   5.739   2.973  17.183  0.1949 -0.2006  0.4726
 4529TIP3    H235003   5.787   3.089  17.267  0.9604 -0.8467  0.9434
 4530TIP3   OH235004   4.764   1.677  13.773 -0.4426  0.1192  0.1397
 4530TIP3    H135005   4.714   1.602  13.739  0.0139  0.1872 -0.7132
 4530TIP3    H235006   4.712   1.753  13.748 -0.4383  0.1329  0.1741
 4531TIP3   OH235007   2.932   0.194   2.273 -0.4682 -0.5331 -0.6472
 4531TIP3    H135008   2.845   0.195   2.314 -1.2264  1.0009 -2.2051
 4531TIP3    H235009   2.982   0.260   2.321  0.0466 -1.7621  0.5785
 4532TIP3   OH235010   2.773   3.516   3.880 -0.1510  0.2177  0.7153
 4532TIP3    H135011   2.815   3.434   3.855 -1.6125 -0.4610  0.3902
 4532TIP3    H235012   2.693   3.490   3.924  1.2856  1.3990  4.4056
 4533TIP3   OH235013   0.304   0.605   1.229 -0.5849  0.0171 -0.3002
 4533TIP3    H135014   0.350   0.563   1.302 -2.1127 -0.4452  0.4214
 4533TIP3    H235015   0.366   0.671   1.197  0.6537 -0.7056  0.5105
 4534TIP3   OH235016   2.472   4.836  11.890  0.1436  0.1773 -0.5844
 4534TIP3    H135017   2.495   4.812  11.980 -1.9719  0.7420  0.1801
 4534TIP3    H235018   2.419   4.763  11.859  1.4995 -0.3716 -1.6990
 4535TIP3   OH235019   0.770   4.659   3.429 -0.6127  0.3565 -0.2791
 4535TIP3    H135020   0.684   4.658   3.469 -0.8852 -0.3320 -0.8511
 4535TIP3    H235021   0.766   4.592   3.361  0.1561  0.7846 -0.7725
 4536TIP3   OH235022   6.490   0.325  10.917 -0.9542 -0.3353  0.2280
 4536TIP3    H135023   6.432   0.252  10.900 -1.0808 -0.3636  0.7594
 4536TIP3    H235024   6.575   0.297  10.882 -1.0718 -0.6135  0.1630
 4537TIP3   OH235025   6.580   3.624   2.363 -0.6007  0.5333 -0.3788
 4537TIP3    H135026   6.559   3.533   2.383  1.3740 -0.2430 -1.5788
 4537TIP3    H235027   6.523   3.675   2.421 -2.0592 -1.4273  0.0153
 4538TIP3   OH235028   6.727   4.931   4.412  0.2299 -0.3285 -0.6905
 4538TIP3    H135029   6.786   4.919   4.337  0.9391  0.7419 -0.3228
 4538TIP3    H235030   6.641   4.901   4.380  0.5947 -0.2229 -1.8071
 4539TIP3   OH235031   1.552   5.511  16.886 -0.2916 -0.0698 -0.0353
 4539TIP3    H135032   1.575   5.589  16.937  2.3964 -0.0687 -1.0871
 4539TIP3    H235033   1.606   5.442  16.923 -1.0433 -0.9419 -0.5299
 4540TIP3   OH235034   2.827   5.925  15.690  0.4948  0.3398  0.1206
 4540TIP3    H135035   2.762   5.941  15.759 -3.1842  0.4962 -3.0759
 4540TIP3    H235036   2.859   5.837  15.708  0.3723  0.6873  2.4400
 4541TIP3   OH235037   3.931   2.472   4.765  0.3281  0.2914  0.2329
 4541TIP3    H135038   4.009   2.481   4.821  0.1262 -0.5707  0.6646
 4541TIP3    H235039   3.890   2.558   4.767  1.1876  0.7137  0.1266
 4542TIP3   OH235040   2.141   6.406  14.119  0.4084  0.0898  0.4193
 4542TIP3    H135041   2.176   6.414  14.031  0.8008  2.6734  0.7099
 4542TIP3    H235042   2.217   6.417  14.176  0.1218 -1.2928  1.1062
 4543TIP3   OH235043   0.356   6.340  11.359  0.0507 -0.6846  0.0837
 4543TIP3    H135044   0.309   6.300  11.286 -0.3554 -0.8230  0.4184
 4543TIP3    H235045   0.383   6.266  11.414 -0.3805 -0.5282  0.5106
 4544TIP3   OH235046   0.298   4.657   6.018 -0.1087  0.1336 -0.2439
 4544TIP3    H135047   0.207   4.685   6.011 -0.9294 -2.4367 -1.2685
 4544TIP3    H235048   0.310   4.634   6.110 -0.5831  0.2208 -0.1600
 4545TIP3   OH235049   0.646   0.839  12.632 -0.1687  0.4365 -0.0441
 4545TIP3    H135050   0.570   0.880  12.673  0.7621  1.6479  0.5245
 4545TIP3    H235051   0.622   0.746  12.626 -1.2878  0.6240  1.0531
 4546TIP3   OH235052   5.693   0.489  14.008  0.3147  0.0721  0.0407
 4546TIP3    H135053   5.616   0.532  13.970 -0.1151 -1.7482 -1.2857
 4546TIP3    H235054   5.666   0.398  14.020  3.0770 -1.4323 -3.2944
 4547TIP3   OH235055   1.861   1.167   1.662  0.8937  0.0918 -0.3391
 4547TIP3    H135056   1.792   1.113   1.701  0.9348 -0.3046 -0.8089
 4547TIP3    H235057   1.939   1.110   1.662  0.7907 -0.0608 -1.3796
 4548TIP3   OH235058   0.228   1.757   4.486  0.0707  0.1729  0.3092
 4548TIP3    H135059   0.189   1.782   4.402 -0.6104 -2.3017 -0.1794
 4548TIP3    H235060   0.311   1.715   4.463  0.3339  0.3309  0.9549
 4549TIP3   OH235061   0.045   5.443   5.349 -0.1171 -0.2948  0.1515
 4549TIP3    H135062   0.121   5.404   5.305 -1.1886 -1.6868 -0.5445
 4549TIP3    H235063   0.079   5.473   5.433  1.2371 -0.7551 -0.2076
 4550TIP3   OH235064   1.397   1.776   3.267  0.4354  0.3921 -0.1998
 4550TIP3    H135065   1.345   1.775   3.348 -4.5128  0.4497 -3.0129
 4550TIP3    H235066   1.464   1.843   3.283 -1.0209  1.2530  3.4161
 4551TIP3   OH235067   4.790   3.395  15.334  0.0065  0.2897  0.6995
 4551TIP3    H135068   4.724   3.345  15.285 -0.8377  1.5957  0.4562
 4551TIP3    H235069   4.802   3.475  15.283  1.0483  0.5188  1.2797
 4552TIP3   OH235070   2.396   2.945  11.488 -0.3599  0.1617  0.0264
 4552TIP3    H135071   2.441   2.882  11.431  1.0790  1.0650  0.1099
 4552TIP3    H235072   2.309   2.954  11.449  0.0270 -0.4940 -1.0516
 4553TIP3   OH235073   0.241   3.463   5.736  0.0288  0.3726 -0.2852
 4553TIP3    H135074   0.183   3.388   5.731  0.7752 -0.3597  1.2450
 4553TIP3    H235075   0.222   3.502   5.822  1.6484  0.1945  0.1902
 4554TIP3   OH235076   2.852   5.426  13.161 -0.0958 -0.5714 -0.0719
 4554TIP3    H135077   2.897   5.491  13.214 -0.9120 -1.6204  2.0722
 4554TIP3    H235078   2.915   5.355  13.152 -0.5079 -1.1256  1.0810
 4555TIP3   OH235079   0.967   5.553  13.385 -0.0538 -0.5861 -0.1989
 4555TIP3    H135080   0.914   5.599  13.320 -1.0881 -1.2538  0.1646
 4555TIP3    H235081   0.989   5.470  13.343  0.4047 -0.4677 -0.2007
 4556TIP3   OH235082   3.981   2.008   1.523 -0.3528  0.7178  0.3928
 4556TIP3    H135083   3.917   1.963   1.577  1.3715 -1.4422  0.7662
 4556TIP3    H235084   4.029   1.939   1.478  1.7387  2.1908  0.1623
 4557TIP3   OH235085   3.302   6.028   3.263  0.5086 -0.3136  0.0458
 4557TIP3    H135086   3.209   6.049   3.276  0.3279  1.8029 -3.4184
 4557TIP3    H235087   3.302   5.963   3.193  1.6732 -1.0550  0.7025
 4558TIP3   OH235088   6.734   4.633  13.734 -0.0586 -0.5418  0.0912
 4558TIP3    H135089   6.710   4.601  13.821  0.6259  0.7501  0.7826
 4558TIP3    H235090   6.774   4.557  13.691 -0.2458 -1.1502  0.9618
 4559TIP3   OH235091   1.628   1.723  15.816  0.0944 -0.5407  0.1347
 4559TIP3    H135092   1.687   1.791  15.847 -1.7146  0.2490  2.0695
 4559TIP3    H235093   1.552   1.728  15.874 -0.5357 -3.6036 -0.2207
 4560TIP3   OH235094   3.836   4.515   1.573  0.2957 -0.2807  0.0634
 4560TIP3    H135095   3.884   4.574   1.631  1.1636 -1.2113  0.3307
 4560TIP3    H235096   3.792   4.453   1.631 -1.9901  1.0423 -0.1352
 4561TIP3   OH235097   5.016   4.857  16.645  0.3629 -0.3806  0.5183
 4561TIP3    H135098   5.038   4.837  16.736  1.8919 -0.0120  0.2542
 4561TIP3    H235099   4.935   4.908  16.651  1.6051  1.5933  1.8787
 4562TIP3   OH235100   4.430   5.845   1.394  0.1190 -0.3904 -0.0657
 4562TIP3    H135101   4.344   5.851   1.435 -0.1783  2.0987 -0.9118
 4562TIP3    H235102   4.492   5.874   1.461 -0.0124  0.4615 -0.3051
 4563TIP3   OH235103   0.166   1.529  16.530 -0.6508 -0.0802  0.3340
 4563TIP3    H135104   0.133   1.614  16.501  0.0210  0.5568  1.3775
 4563TIP3    H235105   0.203   1.545  16.616  0.2956 -1.2427  0.1767
 4564TIP3   OH235106   4.345   3.832  15.912 -0.0081 -0.4583 -0.0557
 4564TIP3    H135107   4.374   3.758  15.966 -1.9224 -1.8279 -0.7803
 4564TIP3    H235108   4.340   3.796  15.823  1.8258  1.3905 -0.9936
 4565TIP3   OH235109   3.277   3.041  14.223 -0.2651 -0.1583  0.4315
 4565TIP3    H135110   3.182   3.038  14.218 -0.3346  0.2013  1.2830
 4565TIP3    H235111   3.299   2.982  14.296  0.2099 -0.6899 -0.1250
 4566TIP3   OH235112   3.361   2.891   1.890 -0.2203  0.1845  0.3303
 4566TIP3    H135113   3.350   2.802   1.924  2.1189 -0.5226 -0.6021
 4566TIP3    H235114   3.367   2.879   1.795  0.3914  1.3025  0.2220
 4567TIP3   OH235115   2.281   1.454   4.923 -0.2365  0.2166 -0.1127
 4567TIP3    H135116   2.317   1.518   4.983  1.4618 -1.5693  0.9012
 4567TIP3    H235117   2.289   1.494   4.836 -2.8008  2.8750  0.6971
 4568TIP3   OH235118   1.082   6.180   5.016 -0.2213  0.3655  0.7670
 4568TIP3    H135119   1.058   6.202   4.926  1.0573  0.8640  0.5386
 4568TIP3    H235120   1.076   6.084   5.019 -0.3481  0.3490  0.1826
 4569TIP3   OH235121   6.200   5.224  11.768  0.0188 -0.1489 -0.2817
 4569TIP3    H135122   6.289   5.231  11.800  0.1320 -0.6657 -0.4728
 4569TIP3    H235123   6.168   5.141  11.803 -0.6004  0.3254  0.2988
 4570TIP3   OH235124   2.743   3.839   1.881 -0.3160  0.2590 -0.2234
 4570TIP3    H135125   2.698   3.894   1.816 -0.5620 -0.8891 -1.0570
 4570TIP3    H235126   2.745   3.752   1.841 -0.6806 -0.5395  1.4074
 4571TIP3   OH235127   6.440   0.084  16.839 -0.0391 -0.3059  0.4839
 4571TIP3    H135128   6.450   0.163  16.786 -1.1553 -0.4791 -0.0268
 4571TIP3    H235129   6.485   0.016  16.789 -1.5957 -0.5980 -0.6054
 4572TIP3   OH235130   0.894   2.238   2.967 -0.1583  0.0427  0.3544
 4572TIP3    H135131   0.976   2.286   2.978  0.0996 -0.5395  1.0564
 4572TIP3    H235132   0.865   2.260   2.878  0.6337  0.4384  0.1846
 4573TIP3   OH235133   3.435   1.601  15.368  0.2467 -0.6502 -0.3033
 4573TIP3    H135134   3.457   1.521  15.416 -0.4627 -0.7010 -0.0528
 4573TIP3    H235135   3.455   1.580  15.277  1.2121 -0.6931 -0.0977
 4574TIP3   OH235136   1.666   4.104   6.509 -0.0255  0.3952 -0.2816
 4574TIP3    H135137   1.623   4.037   6.455  0.3955  0.6845 -0.9953
 4574TIP3    H235138   1.656   4.185   6.459 -2.1116  1.2624  1.4128
 4575TIP3   OH235139   6.164   5.581  15.630 -0.5326  0.0935 -0.0178
 4575TIP3    H135140   6.192   5.666  15.666 -1.6626  1.1906 -1.6172
 4575TIP3    H235141   6.241   5.525  15.640  0.8639  1.8268 -0.5487
 4576TIP3   OH235142   6.149   3.456   1.351 -0.4753  0.0704 -0.1023
 4576TIP3    H135143   6.082   3.453   1.419 -0.1717 -0.6266  0.1648
 4576TIP3    H235144   6.231   3.441   1.397 -0.3330 -1.0671 -0.7096
 4577TIP3   OH235145   3.313   4.841   5.280 -0.3639 -0.0210  0.5863
 4577TIP3    H135146   3.361   4.784   5.220  1.1078  1.7393 -0.0469
 4577TIP3    H235147   3.326   4.929   5.244  0.2675  1.0924  3.2613
 4578TIP3   OH235148   5.956   1.040  16.433 -0.3097  0.1168 -0.2061
 4578TIP3    H135149   5.940   0.949  16.455 -0.4345  0.7777  2.8213
 4578TIP3    H235150   6.049   1.043  16.408 -0.4422 -0.8834 -0.8662
 4579TIP3   OH235151   3.169   0.359  10.346  0.0703  0.3554 -0.4098
 4579TIP3    H135152   3.181   0.275  10.302  0.2851  0.5646 -0.7599
 4579TIP3    H235153   3.110   0.340  10.419  2.2571 -0.6669  1.2231
 4580TIP3   OH235154   6.082   0.207   0.378 -0.5710 -0.1116  0.0860
 4580TIP3    H135155   6.046   0.119   0.393  1.1060 -1.3002 -2.2268
 4580TIP3    H235156   6.091   0.213   0.283  1.7370  1.5783  0.3317
 4581TIP3   OH235157   4.415   1.291   3.124 -0.7465 -0.3398  0.1645
 4581TIP3    H135158   4.445   1.290   3.214 -2.3909 -0.8561  0.7429
 4581TIP3    H235159   4.389   1.382   3.108  1.4709  0.2353 -0.5142
 4582TIP3   OH235160   1.557   4.962   2.811  0.0046 -0.5824  0.1306
 4582TIP3    H135161   1.509   4.987   2.890 -0.9571 -2.3255  0.1377
 4582TIP3    H235162   1.625   4.902   2.843  0.8923  0.2521 -0.1439
 4583TIP3   OH235163   6.763   3.051  12.211  0.0790 -0.0313 -0.4107
 4583TIP3    H135164   6.846   3.087  12.239  0.4858 -1.5894  0.5307
 4583TIP3    H235165   6.785   2.994  12.137 -0.1606 -0.2939 -0.2852
 4584TIP3   OH235166   2.556   0.139  12.438  0.0474  0.1874  0.0754
 4584TIP3    H135167   2.648   0.121  12.419 -0.7169 -1.4763 -2.6800
 4584TIP3    H235168   2.543   0.229  12.411  1.0130  0.7070  1.2574
 4585TIP3   OH235169   4.186   0.850  16.796 -0.1663  0.0354 -0.2921
 4585TIP3    H135170   4.172   0.877  16.706 -0.2017 -0.9834 -0.5974
 4585TIP3    H235171   4.153   0.761  16.801 -0.0466  0.0295  0.6931
 4586TIP3   OH235172   6.694   4.112  13.150 -0.0630  0.3085  0.2798
 4586TIP3    H135173   6.718   4.022  13.168 -2.8180 -0.8567 -1.2031
 4586TIP3    H235174   6.728   4.129  13.062 -2.9132 -0.8261 -1.1811
 4587TIP3   OH235175   1.406   6.083   3.076  0.4735 -0.2725  0.1400
 4587TIP3    H135176   1.327   6.126   3.111  0.1901  0.2470 -1.1001
 4587TIP3    H235177   1.475   6.148   3.087  0.0675  0.5108 -1.6327
 4588TIP3   OH235178   6.543   3.365   1.713  0.1033  0.3038 -0.6962
 4588TIP3    H135179   6.585   3.394   1.793  0.0475 -0.3591 -0.4220
 4588TIP3    H235180   6.539   3.269   1.720 -3.3122  0.3596  0.2749
 4589TIP3   OH235181   3.202   2.737   0.003  0.1837 -0.1495  0.5550
 4589TIP3    H135182   3.147   2.772   0.073  0.6371  0.5534  0.5655
 4589TIP3    H235183   3.140   2.703  -0.061 -0.2589  0.3684  0.7039
 4590TIP3   OH235184   4.470   6.319   4.671 -0.3791  0.3034 -0.0044
 4590TIP3    H135185   4.495   6.229   4.650  0.9669  1.1477 -2.3768
 4590TIP3    H235186   4.499   6.331   4.761 -0.7648 -1.6608  0.4436
 4591TIP3   OH235187   4.404   3.976  14.164  0.0734  0.2667  0.3256
 4591TIP3    H135188   4.349   3.922  14.220 -0.0350  0.6245  0.5650
 4591TIP3    H235189   4.481   3.921  14.146 -0.3331 -0.2125  0.0322
 4592TIP3   OH235190   2.844   4.497  12.646  0.7051  0.4730 -0.4488
 4592TIP3    H135191   2.913   4.523  12.585  0.7784 -0.3173 -0.7157
 4592TIP3    H235192   2.889   4.449  12.715  0.4417  0.0806 -0.5481
 4593TIP3   OH235193   0.225   0.091  16.660 -0.4580 -1.1733  0.0785
 4593TIP3    H135194   0.271   0.008  16.656  1.0876 -0.4766  2.0320
 4593TIP3    H235195   0.191   0.096  16.750 -0.6000  0.2397 -0.0254
 4594TIP3   OH235196   5.754   4.174  16.114  0.2669  0.2732  0.5043
 4594TIP3    H135197   5.722   4.161  16.204 -0.6221  1.7869  0.4472
 4594TIP3    H235198   5.849   4.170  16.122  0.1712 -1.9058  1.1098
 4595TIP3   OH235199   0.889   1.729   1.606 -0.5043  0.3219  0.4481
 4595TIP3    H135200   0.852   1.805   1.651  1.2843  2.1116 -0.9240
 4595TIP3    H235201   0.981   1.752   1.590 -0.2461 -1.5477 -1.2530
 4596TIP3   OH235202   2.613   5.918  15.869 -1.4606 -0.4520  0.1693
 4596TIP3    H135203   2.556   5.989  15.837 -0.4301  0.6576  0.6888
 4596TIP3    H235204   2.579   5.898  15.956  0.5134  2.2103  1.7293
 4597TIP3   OH235205   4.447   6.595   0.046 -0.2840  0.2792 -0.1561
 4597TIP3    H135206   4.440   6.640  -0.038  1.1306  0.2977 -0.2954
 4597TIP3    H235207   4.476   6.663   0.107 -0.7358  0.1376  0.2177
 4598TIP3   OH235208   2.414   4.585   5.751  0.4709  0.1114 -0.4990
 4598TIP3    H135209   2.378   4.530   5.681 -0.3221  0.5976 -0.4832
 4598TIP3    H235210   2.407   4.674   5.718  0.5162  0.3090  0.0090
 4599TIP3   OH235211   1.815   0.965  12.255  0.1743 -0.1862 -0.5581
 4599TIP3    H135212   1.844   0.968  12.347 -1.6988  0.7421  0.0524
 4599TIP3    H235213   1.719   0.967  12.260  0.0402  0.9809 -2.5696
 4600TIP3   OH235214   2.794   6.435  13.571  0.4122  0.3837  0.0666
 4600TIP3    H135215   2.817   6.520  13.533 -0.0016  0.2307 -0.5559
 4600TIP3    H235216   2.878   6.393  13.590  0.6198  0.8292  0.1330
 4601TIP3   OH235217   6.080   6.095  15.377  0.0810 -0.3364  0.9470
 4601TIP3    H135218   6.143   6.023  15.381  1.3012  0.7002  1.0846
 4601TIP3    H235219   6.031   6.080  15.296  0.2711 -1.3474  1.0130
 4602TIP3   OH235220   5.704   2.064  10.846  0.4555 -0.1233  0.2756
 4602TIP3    H135221   5.683   2.122  10.773 -0.5681 -1.9117 -0.9455
 4602TIP3    H235222   5.785   2.020  10.820 -0.3992 -1.4454 -0.2902
 4603TIP3   OH235223   5.006   4.147  16.957  0.1322 -0.1240  0.2641
 4603TIP3    H135224   5.100   4.147  16.942 -0.0975 -2.3521 -1.7069
 4603TIP3    H235225   4.969   4.182  16.876 -0.7807  1.3247  1.2446
 4604TIP3   OH235226   5.056   2.720  13.898 -0.0402  0.8852  0.3274
 4604TIP3    H135227   5.010   2.660  13.839 -1.6203  2.6252 -0.3396
 4604TIP3    H235228   5.132   2.749  13.848 -0.9630  1.7692 -0.6234
 4605TIP3   OH235229   6.326   6.327   0.240  0.4984  0.0735 -0.1889
 4605TIP3    H135230   6.253   6.313   0.179  0.3637  0.7006 -0.1786
 4605TIP3    H235231   6.284   6.336   0.325  0.6740 -0.6145 -0.0242
 4606TIP3   OH235232   1.030   6.674  11.446  0.2751  0.1354  0.2938
 4606TIP3    H135233   1.103   6.729  11.415 -2.0410  2.4806 -1.4055
 4606TIP3    H235234   1.004   6.624  11.369  0.5609 -1.3305  1.1173
 4607TIP3   OH235235   1.161   1.500   2.536  0.4418  0.5257 -0.5201
 4607TIP3    H135236   1.193   1.570   2.592  1.0426  0.9347 -1.3597
 4607TIP3    H235237   1.240   1.455   2.506  0.0425 -0.9966  0.5997
 4608TIP3   OH235238   1.149   6.672  13.468  0.3073 -0.2377  0.0748
 4608TIP3    H135239   1.145   6.764  13.493 -1.8053 -0.4729  0.8275
 4608TIP3    H235240   1.092   6.666  13.391  0.0876 -0.9681  0.2865
 4609TIP3   OH235241   0.070   2.905  11.875 -0.2093  0.4415 -0.1713
 4609TIP3    H135242   0.089   2.841  11.943  0.5769  1.1586  0.3074
 4609TIP3    H235243   0.133   2.885  11.806  0.1236  0.7646  0.0328
 4610TIP3   OH235244   4.879   5.402   5.638  0.2126 -0.6788  0.5552
 4610TIP3    H135245   4.897   5.462   5.710  2.8213  1.1030 -1.3728
 4610TIP3    H235246   4.788   5.420   5.614  0.5160  1.6509  0.8842
 4611TIP3   OH235247   6.090   0.848  15.278  0.0225  0.1081  0.3006
 4611TIP3    H135248   6.150   0.795  15.226  0.6822  1.3199 -0.2376
 4611TIP3    H235249   6.147   0.899  15.335 -0.5660  0.4139  0.6272
 4612TIP3   OH235250   0.376   1.846   1.748 -0.3267 -0.0226  0.0473
 4612TIP3    H135251   0.433   1.774   1.774  1.4460  0.6210 -1.7479
 4612TIP3    H235252   0.365   1.898   1.828 -0.1977 -1.3281  0.9396
 4613TIP3   OH235253   0.104   1.876   5.326 -0.0761 -0.1870  0.2453
 4613TIP3    H135254   0.099   1.895   5.232  0.1586 -1.1947  0.0188
 4613TIP3    H235255   0.018   1.902   5.360 -1.4743 -2.9320 -0.8794
 4614TIP3   OH235256   3.365   6.637   3.148  0.1257  0.1905  0.6373
 4614TIP3    H135257   3.381   6.695   3.222 -0.1513  0.1376  0.7375
 4614TIP3    H235258   3.401   6.684   3.072 -0.5849  0.7370  0.6292
 4615TIP3   OH235259   4.352   4.134  16.751  0.5535  0.3982  0.6796
 4615TIP3    H135260   4.382   4.221  16.724 -0.6464  0.3189 -1.0858
 4615TIP3    H235261   4.387   4.123  16.839  0.1078  2.9871  1.2662
 4616TIP3   OH235262   0.560   6.157   4.985  0.2441 -0.1577  0.9463
 4616TIP3    H135263   0.566   6.091   5.054 -0.4975  0.9104  2.0829
 4616TIP3    H235264   0.503   6.225   5.022 -2.0873 -0.5701 -1.5932
 4617TIP3   OH235265   4.904   5.715  16.009  0.0258  0.4735  0.6933
 4617TIP3    H135266   4.909   5.634  16.059 -0.7807 -1.5751 -2.3272
 4617TIP3    H235267   4.916   5.784  16.075 -0.7890 -1.9743  3.6362
 4618TIP3   OH235268   1.973   4.760   0.027  0.8202  0.1581 -0.3678
 4618TIP3    H135269   2.035   4.691   0.052  0.0290 -0.6649 -0.6433
 4618TIP3    H235270   2.027   4.823  -0.020  1.4176 -0.6595 -0.8131
 4619TIP3   OH235271   4.837   0.844   0.951  0.3138 -0.2024 -0.2462
 4619TIP3    H135272   4.837   0.936   0.979  1.3746 -0.0345 -0.7666
 4619TIP3    H235273   4.887   0.799   1.018 -0.5370 -0.4886  0.2184
 4620TIP3   OH235274   0.444   1.184   0.883 -0.1821  0.1476  0.6520
 4620TIP3    H135275   0.413   1.188   0.973 -0.2853 -0.2005  0.6329
 4620TIP3    H235276   0.364   1.177   0.830 -0.2900  2.4662  0.3700
 4621TIP3   OH235277   3.261   6.003   2.675 -0.0901 -0.1058  0.1628
 4621TIP3    H135278   3.287   5.911   2.674  0.2564 -0.0112 -0.9288
 4621TIP3    H235279   3.334   6.050   2.635 -0.7255  0.5160 -0.3046
 4622TIP3   OH235280   0.736   2.804   1.110 -0.1799 -0.0475  0.0187
 4622TIP3    H135281   0.756   2.711   1.121 -0.2619 -0.0108  0.5041
 4622TIP3    H235282   0.684   2.808   1.030 -1.9602 -0.6802  1.0871
 4623TIP3   OH235283   0.741   2.710   3.926 -0.1947  0.0702 -0.0337
 4623TIP3    H135284   0.695   2.627   3.939 -1.1827  0.5376 -0.3823
 4623TIP3    H235285   0.674   2.769   3.891  0.4538  1.0515  0.3262
 4624TIP3   OH235286   1.473   2.521  13.614  0.2501  0.4302 -0.2009
 4624TIP3    H135287   1.530   2.465  13.563 -0.5892 -0.7864  0.1440
 4624TIP3    H235288   1.403   2.547  13.554 -0.0491  0.0444 -0.0261
 4625TIP3   OH235289   3.709   6.507  11.587  0.1538 -0.5045  0.3502
 4625TIP3    H135290   3.723   6.435  11.525  0.9850 -1.2397  1.3500
 4625TIP3    H235291   3.626   6.547  11.559 -1.3443 -3.0351  0.8706
 4626TIP3   OH235292   5.545   6.183   4.894 -0.0313 -0.1633 -0.7561
 4626TIP3    H135293   5.617   6.190   4.832 -0.1171 -0.7339 -0.9249
 4626TIP3    H235294   5.550   6.093   4.926 -0.3061 -0.0277 -0.3246
 4627TIP3   OH235295   5.383   5.655  16.268  0.1341 -0.2368 -0.3407
 4627TIP3    H135296   5.469   5.615  16.256  1.0228  0.8285  1.9143
 4627TIP3    H235297   5.335   5.632  16.188  2.4227 -1.0182 -1.6003
 4628TIP3   OH235298   2.431   2.883  13.073  0.3122 -0.0419  0.3005
 4628TIP3    H135299   2.482   2.810  13.038  1.2052 -0.5351  2.4873
 4628TIP3    H235300   2.496   2.947  13.102 -0.3597  0.2226  1.2717
 4629TIP3   OH235301   5.670   2.572  13.607  0.1945  0.0756 -0.8684
 4629TIP3    H135302   5.637   2.645  13.660  1.0363 -1.1922  1.5745
 4629TIP3    H235303   5.704   2.509  13.672  2.9822 -0.8110 -2.9798
 4630TIP3   OH235304   3.516   0.502   0.447 -0.0314 -0.6326  0.5379
 4630TIP3    H135305   3.534   0.434   0.512 -1.6695 -1.1282  0.5080
 4630TIP3    H235306   3.557   0.469   0.366  3.5101  0.7576  1.5718
 4631TIP3   OH235307   3.797   1.621   1.127  0.2971  0.4861 -0.2730
 4631TIP3    H135308   3.743   1.544   1.111  1.0568 -0.0571 -0.2650
 4631TIP3    H235309   3.816   1.656   1.040  0.3175  0.4106 -0.2987
 4632TIP3   OH235310   6.596   2.362  16.446 -0.2677 -0.1230  0.3020
 4632TIP3    H135311   6.638   2.444  16.471 -1.5862 -0.1063  2.7670
 4632TIP3    H235312   6.554   2.381  16.362  0.9826  1.1313 -0.0789
 4633TIP3   OH235313   2.952   2.552   2.952 -0.4632 -0.3325 -0.5765
 4633TIP3    H135314   2.904   2.521   3.028  0.8541 -3.0751 -0.7634
 4633TIP3    H235315   2.996   2.474   2.917  2.6150  1.6313 -1.4886
 4634TIP3   OH235316   6.575   2.220   2.086  0.0124  0.0845  0.1982
 4634TIP3    H135317   6.512   2.149   2.076  0.8617 -0.5400 -0.9911
 4634TIP3    H235318   6.541   2.273   2.158  0.2964 -2.5545  2.4420
 4635TIP3   OH235319   5.877   3.709  10.999 -0.0243  0.5184  0.2910
 4635TIP3    H135320   5.860   3.716  10.905  0.9731 -2.5799 -0.2190
 4635TIP3    H235321   5.918   3.623  11.010  3.4051  2.2212  3.0371
 4636TIP3   OH235322   0.444   0.335   2.333  0.0045  0.3811  0.3774
 4636TIP3    H135323   0.364   0.383   2.315 -0.0048 -0.5227 -2.4833
 4636TIP3    H235324   0.421   0.276   2.405 -1.2359  1.5977  1.0191
 4637TIP3   OH235325   0.074   5.965  11.194 -0.1897 -0.3127 -0.4299
 4637TIP3    H135326   0.052   5.909  11.268  0.5750  0.7139  0.6156
 4637TIP3    H235327   0.149   5.923  11.153 -0.5265 -0.8090 -0.5530
 4638TIP3   OH235328   6.242   1.335   4.547  1.1955 -0.1932  0.5783
 4638TIP3    H135329   6.242   1.388   4.627 -0.3500  0.5796  0.1146
 4638TIP3    H235330   6.155   1.294   4.546  1.1161 -0.0329 -0.7920
 4639TIP3   OH235331   3.219   6.650  15.942 -0.2515 -0.5348 -0.2244
 4639TIP3    H135332   3.179   6.676  16.025 -2.3180 -0.5542 -1.1437
 4639TIP3    H235333   3.161   6.583  15.907 -0.0884  0.2720 -2.2054
 4640TIP3   OH235334   5.639   1.545  16.216 -0.3704 -0.4569 -0.1807
 4640TIP3    H135335   5.585   1.543  16.138 -0.6306  0.4264 -0.0360
 4640TIP3    H235336   5.666   1.636  16.225 -0.6212 -0.4746  0.9397
 4641TIP3   OH235337   6.246   5.307   3.956 -0.4297  0.0636  0.9492
 4641TIP3    H135338   6.305   5.355   3.898 -0.5358 -0.0121  0.7783
 4641TIP3    H235339   6.158   5.329   3.926 -0.5007 -2.2870 -0.8751
 4642TIP3   OH235340   3.956   0.753   4.868  0.1572  0.5566 -0.1952
 4642TIP3    H135341   3.870   0.796   4.870 -0.6638 -0.7950 -2.6983
 4642TIP3    H235342   4.017   0.821   4.897 -1.7413  1.4358  2.0797
 4643TIP3   OH235343   3.438   1.381   5.015  0.8799  0.0055  0.1171
 4643TIP3    H135344   3.442   1.432   4.934 -1.9050  3.8776  2.0853
 4643TIP3    H235345   3.521   1.400   5.060  1.0482  0.5022 -0.3986
 4644TIP3   OH235346   5.485   3.634   0.745  0.6165  0.6433  0.6167
 4644TIP3    H135347   5.556   3.585   0.702  0.5709 -1.1873  2.4855
 4644TIP3    H235348   5.424   3.567   0.775 -1.1803  2.1029  0.3860
 4645TIP3   OH235349   0.343   4.814  11.832 -0.2150 -0.6348 -0.1175
 4645TIP3    H135350   0.410   4.830  11.766  0.4133 -0.4759  0.5356
 4645TIP3    H235351   0.392   4.795  11.912 -0.9016  1.2217  0.8200
 4646TIP3   OH235352   2.926   5.679  15.476  0.3889  0.9022  0.5027
 4646TIP3    H135353   2.934   5.730  15.395  1.8206 -0.2680 -0.1356
 4646TIP3    H235354   2.888   5.596  15.448 -1.4818  1.3768  1.4640
 4647TIP3   OH235355   4.877   1.282  13.033  0.5388 -0.0108  0.0490
 4647TIP3    H135356   4.921   1.199  13.017 -0.9602 -0.6545 -0.9378
 4647TIP3    H235357   4.948   1.345  13.045  1.7219 -1.5507  1.6517
 4648TIP3   OH235358   3.063   0.837  13.374  0.5505  0.1812 -0.2989
 4648TIP3    H135359   3.075   0.864  13.283 -0.8387  2.3168  0.0827
 4648TIP3    H235360   2.968   0.833  13.385  0.6807  0.7623  1.2549
 4649TIP3   OH235361   6.113   4.394  14.882 -0.3070 -0.0132 -0.9825
 4649TIP3    H135362   6.150   4.339  14.814  1.4441 -0.5157  0.3014
 4649TIP3    H235363   6.021   4.368  14.888  0.4062 -2.7273 -0.5306
 4650TIP3   OH235364   6.475   3.470   4.039 -0.4868 -0.0374 -0.1099
 4650TIP3    H135365   6.514   3.444   3.955 -0.3236 -0.5074  0.1063
 4650TIP3    H235366   6.384   3.490   4.019 -0.2496  0.6104 -0.5405
 4651TIP3   OH235367   5.197   0.511  13.619  0.5102  0.1987 -0.5130
 4651TIP3    H135368   5.259   0.568  13.663  1.3697 -0.4811 -0.8158
 4651TIP3    H235369   5.199   0.540  13.527 -0.1352  0.6169 -0.4009
 4652TIP3   OH235370   0.507   5.400  13.939 -0.4622 -0.0748 -0.0043
 4652TIP3    H135371   0.456   5.479  13.953  0.9817  1.2335 -1.6865
 4652TIP3    H235372   0.484   5.373  13.850  1.9090  0.7203 -0.9233
 4653TIP3   OH235373   4.953   3.891  14.250  0.6284  0.2451 -0.4569
 4653TIP3    H135374   4.934   3.852  14.164  1.3884 -2.3354  0.4306
 4653TIP3    H235375   5.049   3.894  14.254  0.6004  0.2809  0.3144
 4654TIP3   OH235376   2.183   1.689   1.647  0.9595 -0.1378 -0.1832
 4654TIP3    H135377   2.157   1.779   1.667 -0.7337 -1.1736  2.8744
 4654TIP3    H235378   2.238   1.663   1.721 -1.6969 -2.7434  1.0673
 4655TIP3   OH235379   3.229   3.356   2.167 -0.0113 -0.4437  0.2787
 4655TIP3    H135380   3.275   3.292   2.113 -1.6583 -0.8067 -0.7903
 4655TIP3    H235381   3.187   3.303   2.235  0.2556 -0.2579  0.5867
 4656TIP3   OH235382   6.558   6.290   3.877 -0.5826 -0.2852  0.6655
 4656TIP3    H135383   6.514   6.209   3.902 -1.1360  0.0938  0.9491
 4656TIP3    H235384   6.525   6.355   3.939  0.4668 -0.0074  0.9496
 4657TIP3   OH235385   4.754   4.615  12.920  0.0265  0.2362 -0.9407
 4657TIP3    H135386   4.759   4.702  12.960 -0.3681 -0.2562  0.2135
 4657TIP3    H235387   4.845   4.591  12.903  0.1802  0.5455 -0.5667
 4658TIP3   OH235388   2.403   5.089  15.849 -0.7138  0.0198 -0.7293
 4658TIP3    H135389   2.359   5.135  15.921  0.6879 -1.4509  1.1869
 4658TIP3    H235390   2.345   5.017  15.826 -2.3215  1.8611 -2.8739
 4659TIP3   OH235391   2.897   4.068   2.782 -0.0707  0.6086  0.3507
 4659TIP3    H135392   2.841   4.062   2.705  0.5346 -0.6216 -0.0304
 4659TIP3    H235393   2.868   4.147   2.828 -0.1078  1.6590 -1.3988
 4660TIP3   OH235394   1.473   6.357  12.197 -0.3544  0.0401  0.2627
 4660TIP3    H135395   1.567   6.351  12.182 -0.8055  1.1101 -4.6651
 4660TIP3    H235396   1.444   6.266  12.206  1.0103 -0.3180  1.4319
 4661TIP3   OH235397   3.672   4.619  15.732  0.6880  0.6325 -0.3506
 4661TIP3    H135398   3.616   4.657  15.800 -1.1959 -2.0773 -0.1979
 4661TIP3    H235399   3.726   4.555  15.779  2.4713  1.7149 -0.8403
 4662TIP3   OH235400   4.693   4.687  13.736 -0.4497 -0.2336  0.4617
 4662TIP3    H135401   4.699   4.676  13.641  0.3694  1.7423  0.2390
 4662TIP3    H235402   4.602   4.665  13.757 -0.3428 -1.8797 -0.5538
 4663TIP3   OH235403   1.798   6.182   3.458  0.1455  0.7615 -0.2066
 4663TIP3    H135404   1.783   6.151   3.369  0.8284 -0.7803  0.1958
 4663TIP3    H235405   1.722   6.151   3.507  0.5492  0.1944  0.0737
 4664TIP3   OH235406   1.307   4.499  12.941  0.3338  0.3730  0.5752
 4664TIP3    H135407   1.334   4.538  12.858 -1.8493 -1.3413 -1.0767
 4664TIP3    H235408   1.298   4.573  13.001 -0.3930  1.9953 -1.4244
 4665TIP3   OH235409   1.921   3.679  10.493  0.0051 -1.0847 -0.0850
 4665TIP3    H135410   1.969   3.597  10.481 -0.5365 -1.5512  0.7792
 4665TIP3    H235411   1.852   3.677  10.427  2.2673  0.5139 -2.6895
 4666TIP3   OH235412   2.233   5.004  12.972  0.1628 -0.4471  0.1997
 4666TIP3    H135413   2.142   4.978  12.987 -0.8103  0.3009 -3.5520
 4666TIP3    H235414   2.238   5.094  13.004 -0.1101 -0.7486  1.1474
 4667TIP3   OH235415   0.461   5.267  16.089 -0.0376  0.4509 -0.0622
 4667TIP3    H135416   0.385   5.284  16.032  0.0804  0.4324 -0.2282
 4667TIP3    H235417   0.442   5.182  16.128  0.4469 -0.1238 -1.0285
 4668TIP3   OH235418   5.870   2.893   2.478  0.0425  0.5825 -0.2230
 4668TIP3    H135419   5.791   2.846   2.502  1.0776 -0.5011  1.2607
 4668TIP3    H235420   5.920   2.899   2.559  2.4901 -0.7821 -1.5168
 4669TIP3   OH235421   5.219   5.108   0.718  0.4359 -0.2191  0.4054
 4669TIP3    H135422   5.138   5.144   0.754  0.0247 -0.1507 -0.5531
 4669TIP3    H235423   5.252   5.050   0.786 -0.2517 -0.0018  0.9342
 4670TIP3   OH235424   2.429   2.348  15.966  0.3209  0.5517 -0.3057
 4670TIP3    H135425   2.342   2.361  16.002  0.3899  0.3468 -0.0652
 4670TIP3    H235426   2.478   2.425  15.995  0.4519  0.2525  0.2712
 4671TIP3   OH235427   1.777   3.581  15.769 -0.2290  0.1019  0.2675
 4671TIP3    H135428   1.755   3.655  15.712 -3.0691 -1.6546 -1.1320
 4671TIP3    H235429   1.764   3.615  15.858 -3.9471  0.7837 -0.3638
 4672TIP3   OH235430   6.591   0.190  10.358 -0.0885 -0.3728 -0.3772
 4672TIP3    H135431   6.526   0.120  10.363 -0.0049 -0.4818 -0.7752
 4672TIP3    H235432   6.672   0.146  10.333 -0.2887  0.0029 -1.7693
 4673TIP3   OH235433   5.489   4.395   1.424  0.5718  0.0366 -0.9392
 4673TIP3    H135434   5.580   4.409   1.398  0.9371  0.1909  0.3701
 4673TIP3    H235435   5.455   4.332   1.360  0.9850  1.4889 -2.6652
 4674TIP3   OH235436   0.155   6.029   3.262  0.4373 -0.4989  0.4370
 4674TIP3    H135437   0.223   6.092   3.288  2.1699 -1.6784 -0.9941
 4674TIP3    H235438   0.092   6.081   3.212  1.9118  0.1416 -0.8497
 4675TIP3   OH235439   3.787   1.511   2.260  0.1088  0.1726 -0.2538
 4675TIP3    H135440   3.797   1.550   2.173 -0.2503  1.1730  0.1409
 4675TIP3    H235441   3.692   1.502   2.271  0.1899 -2.0932 -0.8685
 4676TIP3   OH235442   5.956   5.806  15.869 -0.3629 -0.3905 -1.1022
 4676TIP3    H135443   5.988   5.887  15.827 -2.8093  0.5191 -1.3978
 4676TIP3    H235444   5.910   5.760  15.799 -2.2077 -0.1585 -0.1066
 4677TIP3   OH235445   5.816   1.366   3.248  0.0577 -0.0899  0.4983
 4677TIP3    H135446   5.746   1.354   3.312 -0.8564 -0.2829 -0.5052
 4677TIP3    H235447   5.797   1.303   3.178  0.2782  1.0016 -0.5865
 4678TIP3   OH235448   6.295   3.348   2.190  0.4616  0.4983  0.0724
 4678TIP3    H135449   6.255   3.321   2.107  1.8760 -0.9519 -0.1879
 4678TIP3    H235450   6.230   3.405   2.230 -0.8549  0.1030 -1.3899
 4679TIP3   OH235451   1.913   6.580   4.947 -0.0741  0.4947 -0.5920
 4679TIP3    H135452   1.954   6.625   5.022  1.4322  0.7703 -1.5507
 4679TIP3    H235453   1.868   6.650   4.900 -0.0522  0.5127 -0.5859
 4680TIP3   OH235454   5.560   4.301  14.031  0.0497  0.1900  0.0089
 4680TIP3    H135455   5.514   4.375  13.992 -0.9862 -0.7660 -0.6465
 4680TIP3    H235456   5.634   4.284  13.972 -0.1087  0.2734 -0.2141
 4681TIP3   OH235457   3.478   3.378   0.353 -0.3863 -0.1013 -0.3448
 4681TIP3    H135458   3.530   3.326   0.292 -0.0751  0.5269 -0.6295
 4681TIP3    H235459   3.539   3.399   0.424 -0.5129 -0.1401 -0.2248
 4682TIP3   OH235460   1.948   3.051  13.050 -0.2691 -0.6905  0.4538
 4682TIP3    H135461   2.007   3.114  13.008 -1.6705 -0.8367 -1.8916
 4682TIP3    H235462   1.867   3.100  13.061 -0.5303 -1.2844  1.1818
 4683TIP3   OH235463   0.886   3.936   0.270 -0.1687 -0.0151  0.5101
 4683TIP3    H135464   0.980   3.952   0.262 -0.2584  0.6556  0.7749
 4683TIP3    H235465   0.879   3.843   0.291  0.5575  0.3599  2.6450
 4684TIP3   OH235466   5.224   1.155  14.366 -0.3110 -0.2184 -0.4467
 4684TIP3    H135467   5.315   1.154  14.336  0.0567  2.8154  0.2559
 4684TIP3    H235468   5.185   1.076  14.328  3.1506 -2.9977  1.2197
 4685TIP3   OH235469   1.755   2.281   2.332 -0.1353  0.1845  0.3776
 4685TIP3    H135470   1.760   2.349   2.399  0.4330 -0.1318  0.6629
 4685TIP3    H235471   1.662   2.262   2.324 -0.3121  1.0371  0.2489
 4686TIP3   OH235472   1.886   4.497  14.902  0.1475 -0.2495 -0.1827
 4686TIP3    H135473   1.797   4.531  14.895  0.0018 -0.7543 -0.8164
 4686TIP3    H235474   1.926   4.550  14.972 -0.3963  0.5005 -0.4243
 4687TIP3   OH235475   5.638   2.823   4.079 -0.3359  0.3434  0.1429
 4687TIP3    H135476   5.685   2.864   4.007  1.0577  0.1810  0.9249
 4687TIP3    H235477   5.582   2.757   4.037 -0.3247  0.9473 -0.8558
 4688TIP3   OH235478   6.090   3.862  15.647 -0.4295 -0.1548  0.3190
 4688TIP3    H135479   6.001   3.883  15.676  0.6022  2.2406  2.1324
 4688TIP3    H235480   6.083   3.850  15.553 -2.4500  1.4037  0.2193
 4689TIP3   OH235481   4.926   0.686   5.698  0.3848  0.7219 -0.8909
 4689TIP3    H135482   4.879   0.603   5.702  2.8465 -0.7641 -0.6849
 4689TIP3    H235483   4.978   0.687   5.779  3.4721  0.4505 -2.7471
 4690TIP3   OH235484   0.394   3.106  16.075  0.1935  0.1806  0.3685
 4690TIP3    H135485   0.458   3.170  16.106  1.3133 -0.7096 -0.0548
 4690TIP3    H235486   0.312   3.132  16.118  0.7312  1.5675  0.6198
 4691TIP3   OH235487   4.245   0.550  15.452  0.4631  0.7903  0.1486
 4691TIP3    H135488   4.276   0.607  15.382 -1.6695  0.6138 -1.0047
 4691TIP3    H235489   4.154   0.574  15.465 -0.1074 -1.3808  0.6007
 4692TIP3   OH235490   6.134   6.059  16.795  0.2109  0.2654  0.5278
 4692TIP3    H135491   6.057   6.026  16.842  0.1394  0.2494  0.3983
 4692TIP3    H235492   6.099   6.102  16.718  0.1884  2.0116  1.4599
 4693TIP3   OH235493   3.826   3.274  16.261  0.2090  0.6103 -0.3025
 4693TIP3    H135494   3.920   3.282  16.279  0.0292  0.1909  0.9503
 4693TIP3    H235495   3.821   3.214  16.186  0.9584  1.3987 -1.0052
 4694TIP3   OH235496   6.421   4.522   5.580 -0.3104 -0.0853  0.3540
 4694TIP3    H135497   6.432   4.612   5.613  3.3269 -0.5522  0.8117
 4694TIP3    H235498   6.439   4.467   5.656  1.2188 -1.1655 -0.7346
 4695TIP3   OH235499   2.281   6.490   0.370  0.1244 -0.3526  0.0561
 4695TIP3    H135500   2.374   6.470   0.364  0.6473  0.8676  2.7806
 4695TIP3    H235501   2.273   6.580   0.340  0.2513  0.3132  1.8838
 4696TIP3   OH235502   6.736   1.360  16.099  0.6440  0.5775 -0.7055
 4696TIP3    H135503   6.649   1.392  16.122  0.6372  2.0883 -2.5554
 4696TIP3    H235504   6.720   1.279  16.051  0.1687  1.2052 -1.6480
 4697TIP3   OH235505   0.951   0.669  17.404 -0.3328 -0.5320  0.4739
 4697TIP3    H135506   0.905   0.602  17.454  0.5553 -0.5865  1.2468
 4697TIP3    H235507   0.893   0.689  17.331 -0.1210 -2.9588 -0.4440
 4698TIP3   OH235508   4.333   5.265  14.786  0.3027  0.2221  0.5332
 4698TIP3    H135509   4.316   5.356  14.807 -1.2361  0.4021 -1.2163
 4698TIP3    H235510   4.251   5.233  14.748  1.0958 -1.6251  0.2328
 4699TIP3   OH235511   6.250   1.730  13.929  0.6962  0.2850 -0.0757
 4699TIP3    H135512   6.327   1.777  13.897  1.7806 -0.2940  1.5048
 4699TIP3    H235513   6.287   1.652  13.972 -0.9374 -1.2853 -1.3677
 4700TIP3   OH235514   4.338   4.130   5.225  0.2163  0.3187 -0.0931
 4700TIP3    H135515   4.395   4.146   5.300  0.3632 -1.3949  0.1997
 4700TIP3    H235516   4.304   4.042   5.239 -1.4792  0.8059 -0.9407
 4701TIP3   OH235517   5.283   1.100   3.971  0.3056 -0.0994 -0.3200
 4701TIP3    H135518   5.320   1.141   3.892  0.3230  0.5919  0.0435
 4701TIP3    H235519   5.306   1.159   4.042 -1.3655  0.2946 -0.0535
 4702TIP3   OH235520   3.519   5.151   0.898  0.3488  0.1708  0.0448
 4702TIP3    H135521   3.583   5.085   0.872  1.0419  0.8302  0.0492
 4702TIP3    H235522   3.435   5.118   0.864  0.8010 -0.3579 -0.5800
 4703TIP3   OH235523   0.782   1.280  10.705 -0.0549  0.3193 -0.3369
 4703TIP3    H135524   0.835   1.241  10.774  0.7446  1.3903 -0.3065
 4703TIP3    H235525   0.799   1.226  10.628  1.2087  0.7022 -0.3532
 4704TIP3   OH235526   0.347   2.273  12.473 -0.3168  0.7152 -0.2727
 4704TIP3    H135527   0.437   2.297  12.455 -0.7091  1.4834 -1.3307
 4704TIP3    H235528   0.334   2.292  12.566  0.8398 -0.2132  0.0918
 4705TIP3   OH235529   0.099   5.523   0.021  0.8180 -0.1072 -0.1342
 4705TIP3    H135530   0.184   5.524   0.064  0.0534  0.5292  1.4576
 4705TIP3    H235531   0.048   5.590   0.067 -1.2164 -1.8891  0.3762
 4706TIP3   OH235532   4.943   2.022  11.602 -0.5976  0.0189  0.3360
 4706TIP3    H135533   4.984   1.977  11.528 -1.7645 -1.7909  0.7398
 4706TIP3    H235534   4.865   2.064  11.566 -0.2437  0.6136  0.2350
 4707TIP3   OH235535   4.782   2.295  11.272 -0.1155 -0.0786  0.1418
 4707TIP3    H135536   4.766   2.270  11.362  1.0692 -0.0547  0.3794
 4707TIP3    H235537   4.744   2.383  11.264 -1.9087 -0.8355  0.0543
 4708TIP3   OH235538   1.773   6.722   1.800 -0.0000 -0.5172 -0.1571
 4708TIP3    H135539   1.728   6.678   1.872 -2.2104 -0.8612 -1.6585
 4708TIP3    H235540   1.866   6.718   1.824 -0.6146 -0.9695  2.4381
 4709TIP3   OH235541   0.341   4.337  15.532  0.1304 -0.6449 -0.0714
 4709TIP3    H135542   0.397   4.336  15.454  0.7568 -0.6051  0.3778
 4709TIP3    H235543   0.316   4.429  15.542 -0.8918 -0.8071 -0.8795
 4710TIP3   OH235544   6.020   3.709  16.986  0.2116  0.2757  0.3663
 4710TIP3    H135545   5.959   3.775  17.020  0.6761  0.4981  0.7853
 4710TIP3    H235546   6.104   3.733  17.025  0.5293 -0.1336 -0.0673
 4711TIP3   OH235547   2.842   2.226  15.289  0.2126 -0.1940 -0.2750
 4711TIP3    H135548   2.758   2.232  15.243 -0.1417 -0.1681  0.3549
 4711TIP3    H235549   2.907   2.254  15.225 -0.3997  1.0636 -0.3862
 4712TIP3   OH235550   0.288   5.485  11.614  0.0077  0.1468  0.2965
 4712TIP3    H135551   0.333   5.565  11.587  2.8854 -1.3109  0.3491
 4712TIP3    H235552   0.274   5.437  11.532  2.7535 -1.3339  0.5424
 4713TIP3   OH235553   1.133   3.989   3.425  0.2063 -0.0769  0.2094
 4713TIP3    H135554   1.130   4.083   3.408  1.6666  0.1838  1.2048
 4713TIP3    H235555   1.134   3.949   3.338  1.5839  0.9432 -0.2903
 4714TIP3   OH235556   5.148   0.861   3.562  0.1886  0.0699  0.4852
 4714TIP3    H135557   5.186   0.944   3.590  0.2569 -0.0140  0.6371
 4714TIP3    H235558   5.159   0.802   3.636  2.6934 -0.9269 -0.5490
 4715TIP3   OH235559   3.626   1.661   5.289  0.5604 -0.3446  0.2156
 4715TIP3    H135560   3.648   1.741   5.339  1.7692  0.2150 -1.1319
 4715TIP3    H235561   3.541   1.680   5.250 -0.3028 -0.7014  1.8153
 4716TIP3   OH235562   5.718   0.398   0.123  0.5495 -0.3758 -0.0372
 4716TIP3    H135563   5.647   0.450   0.084  0.7072  0.2175  0.4541
 4716TIP3    H235564   5.691   0.386   0.214  1.0013 -0.3005  0.1054
 4717TIP3   OH235565   5.824   2.316   0.212  0.3210 -0.2362  0.0985
 4717TIP3    H135566   5.830   2.338   0.119 -2.2830  0.1084 -0.0627
 4717TIP3    H235567   5.882   2.241   0.222  0.1365 -0.7298 -1.9803
 4718TIP3   OH235568   1.564   4.918   0.161 -0.1121 -0.3688  0.2828
 4718TIP3    H135569   1.632   4.982   0.182 -0.7504  0.8212 -1.1285
 4718TIP3    H235570   1.603   4.863   0.093  0.0332 -0.7868  0.6974
 4719TIP3   OH235571   3.310   4.987   0.854  0.1769  0.2935  0.1788
 4719TIP3    H135572   3.295   4.894   0.838 -1.8186  0.8620 -1.7286
 4719TIP3    H235573   3.261   5.005   0.934 -0.9999  0.0472 -0.4641
 4720TIP3   OH235574   4.777   5.602  12.972 -0.4777  0.0740  0.2860
 4720TIP3    H135575   4.716   5.673  12.994 -1.2734 -0.7642  0.8587
 4720TIP3    H235576   4.804   5.620  12.882  0.5375  1.9474  0.9096
 4721TIP3   OH235577   2.693   6.627   2.750  1.1862 -0.2364 -0.4352
 4721TIP3    H135578   2.777   6.628   2.795  1.2143  3.3181 -0.2526
 4721TIP3    H235579   2.714   6.648   2.659  0.6866 -2.3542 -1.0938
 4722TIP3   OH235580   4.551   5.013   0.494  0.1557  0.4007  0.0115
 4722TIP3    H135581   4.637   5.053   0.484  0.0330  0.9949  1.1174
 4722TIP3    H235582   4.500   5.046   0.420 -0.1581  2.9674  1.2374
 4723TIP3   OH235583   0.080   5.580   5.585 -0.1659  0.1734  0.6978
 4723TIP3    H135584   0.102   5.511   5.647  1.6519  1.1245  1.1643
 4723TIP3    H235585   0.160   5.632   5.576  1.2300 -2.1325 -5.4674
 4724TIP3   OH235586   1.072   0.620  10.541 -0.5416 -0.3016 -0.3407
 4724TIP3    H135587   1.108   0.564  10.472  2.1616 -1.5150  1.8907
 4724TIP3    H235588   1.105   0.708  10.520 -0.3716 -0.5128 -0.9826
 4725TIP3   OH235589   6.441   0.478  13.477 -0.4664 -0.6026 -0.1085
 4725TIP3    H135590   6.357   0.501  13.438 -0.2197 -1.5418 -1.2581
 4725TIP3    H235591   6.489   0.560  13.481 -2.4454  0.6023  3.3617
 4726TIP3   OH235592   3.380   1.673   5.557 -0.2378 -0.1721  0.2448
 4726TIP3    H135593   3.342   1.657   5.471  1.0811  1.4983 -0.6914
 4726TIP3    H235594   3.400   1.766   5.558 -0.0695 -0.1731  2.3243
 4727TIP3   OH235595   2.253   2.484   2.536  0.7267  0.0567 -0.3087
 4727TIP3    H135596   2.300   2.556   2.495 -0.4474  0.8036 -0.4085
 4727TIP3    H235597   2.188   2.457   2.470  0.7606 -0.6906 -0.0450
 4728TIP3   OH235598   5.365   2.202  16.334 -0.2598  0.4925  0.4714
 4728TIP3    H135599   5.304   2.129  16.345 -1.0132  0.9289 -0.5911
 4728TIP3    H235600   5.452   2.162  16.339 -0.5148  0.0789  3.5595
 4729TIP3   OH235601   4.297   1.821   6.352 -0.5017 -0.0355  0.2134
 4729TIP3    H135602   4.249   1.836   6.270 -1.9099 -0.0013  1.0116
 4729TIP3    H235603   4.232   1.835   6.420  0.7852  0.4728  1.3783
 4730TIP3   OH235604   4.682   2.839  14.487  0.0482  0.3485  0.3849
 4730TIP3    H135605   4.595   2.877  14.501 -0.4463  0.3929 -2.3472
 4730TIP3    H235606   4.740   2.914  14.476 -0.3285  0.4117 -1.6307
 4731TIP3   OH235607   1.703   0.554  10.896  0.2549 -0.1409  0.0492
 4731TIP3    H135608   1.662   0.563  10.810  0.0747  2.1149  0.3000
 4731TIP3    H235609   1.639   0.506  10.948 -0.1670 -0.4499 -0.7336
 4732TIP3   OH235610   5.373   2.618   4.223  0.0505  0.0193 -0.0023
 4732TIP3    H135611   5.327   2.670   4.157  2.2203  2.1636  0.0183
 4732TIP3    H235612   5.433   2.680   4.265  0.3362 -1.7798  2.4860
 4733TIP3   OH235613   6.405   5.004  16.108 -0.2190 -0.4014  0.1618
 4733TIP3    H135614   6.429   4.913  16.121 -2.5222 -0.8671  1.8143
 4733TIP3    H235615   6.316   5.011  16.144 -1.0915  1.9350 -2.1454
 4734TIP3   OH235616   6.528   6.712   0.565  0.4492  0.2561 -0.4987
 4734TIP3    H135617   6.459   6.666   0.613  0.2201  1.4471  0.3629
 4734TIP3    H235618   6.551   6.652   0.494 -2.4095  0.3306 -1.6578
 4735TIP3   OH235619   5.468   0.617   0.992 -0.8982  0.5974  0.1727
 4735TIP3    H135620   5.394   0.558   1.007  0.1069 -0.5657  0.7143
 4735TIP3    H235621   5.544   0.559   0.983 -0.1975  1.6928 -1.5004
 4736TIP3   OH235622   0.893   4.555  17.117  0.0977  0.6456 -0.3352
 4736TIP3    H135623   0.830   4.598  17.175  0.3798  0.4372  0.1370
 4736TIP3    H235624   0.926   4.481  17.169  0.5917  0.6451 -0.6419
 4737TIP3   OH235625   5.403   5.325   2.653 -0.0395  0.3171  0.0941
 4737TIP3    H135626   5.313   5.343   2.624 -0.0907  1.6921  1.0106
 4737TIP3    H235627   5.401   5.341   2.747  1.1848  0.4428  0.1108
 4738TIP3   OH235628   0.659   6.604   4.208  0.0416 -0.1661 -0.2398
 4738TIP3    H135629   0.718   6.588   4.134  1.7214 -0.3300  1.0680
 4738TIP3    H235630   0.688   6.543   4.275 -0.1777  1.2732  1.2246
 4739TIP3   OH235631   6.234   0.718  14.286 -0.0425 -0.0892 -0.5988
 4739TIP3    H135632   6.200   0.805  14.261 -0.3231  0.0207  0.1357
 4739TIP3    H235633   6.315   0.737  14.332  0.8998 -0.3387 -2.0984
 4740TIP3   OH235634   5.057   0.204   0.267  0.1939 -0.4604  0.3200
 4740TIP3    H135635   4.996   0.139   0.302  0.9075 -1.6701 -0.6267
 4740TIP3    H235636   5.063   0.184   0.174  0.8765  0.6092  0.1212
 4741TIP3   OH235637   1.779   3.085  10.849  0.3109 -0.0367 -0.0701
 4741TIP3    H135638   1.739   3.142  10.783  1.1961 -0.2138 -0.7887
 4741TIP3    H235639   1.857   3.050  10.805  0.7398 -0.4094  0.9729
 4742TIP3   OH235640   3.933   1.460   0.720  0.1517  0.8676  0.0313
 4742TIP3    H135641   3.920   1.405   0.797  1.0129  1.8601  0.9075
 4742TIP3    H235642   3.902   1.406   0.647 -1.3244  0.1638  1.1268
 4743TIP3   OH235643   5.372   4.504  12.215 -0.1642 -0.1378  0.5974
 4743TIP3    H135644   5.406   4.449  12.285  0.2915 -2.5640 -1.3854
 4743TIP3    H235645   5.332   4.443  12.153  1.2083  1.5766 -2.2381
 4744TIP3   OH235646   5.443   6.201  13.293 -0.1433  0.7654 -0.2121
 4744TIP3    H135647   5.425   6.292  13.316  0.4435  1.7194 -3.0642
 4744TIP3    H235648   5.523   6.179  13.341  0.3775  2.1855 -0.3950
 4745TIP3   OH235649   1.287   6.004   4.743  0.1853 -0.5175 -0.7428
 4745TIP3    H135650   1.217   5.989   4.806  0.2551 -3.1696 -1.1917
 4745TIP3    H235651   1.250   5.978   4.658  1.0427  0.0516 -1.3153
 4746TIP3   OH235652   3.575   5.762  17.193 -0.0685  0.3103  0.2042
 4746TIP3    H135653   3.625   5.817  17.254 -0.7927  1.3444 -0.1037
 4746TIP3    H235654   3.641   5.711  17.147  0.6904  1.4232  0.0253
 4747TIP3   OH235655   6.643   2.197  10.725 -0.4437  0.6168  0.1229
 4747TIP3    H135656   6.572   2.201  10.789 -0.4856 -2.5119  0.4312
 4747TIP3    H235657   6.721   2.222  10.775 -0.5854 -1.0590  1.2600
 4748TIP3   OH235658   3.004   5.667   1.535  0.9267 -0.8094  0.1679
 4748TIP3    H135659   3.000   5.714   1.618  0.8626  1.0361 -0.8344
 4748TIP3    H235660   3.085   5.699   1.494  0.0175 -0.2723 -1.2700
 4749TIP3   OH235661   5.028   4.940  12.626 -0.2874  0.0762  0.3621
 4749TIP3    H135662   5.093   5.006  12.603  0.1787 -1.0497 -1.8121
 4749TIP3    H235663   5.068   4.889  12.696  0.3942  0.5510  0.3228
 4750TIP3   OH235664   3.322   6.383   5.588 -0.7612  0.0566  0.3680
 4750TIP3    H135665   3.294   6.376   5.679  0.0554 -0.9941  0.5476
 4750TIP3    H235666   3.246   6.354   5.537 -2.1612  3.0266  0.5377
 4751TIP3   OH235667   2.049   4.626  11.662  0.3418  0.0374  0.3521
 4751TIP3    H135668   1.960   4.615  11.693  0.0833  2.6003  0.6941
 4751TIP3    H235669   2.050   4.583  11.576 -1.4321  0.5709  0.0240
 4752TIP3   OH235670   2.042   0.699   1.839 -0.0216  0.2960 -0.8770
 4752TIP3    H135671   2.054   0.754   1.917 -0.2034 -0.1107 -0.5618
 4752TIP3    H235672   2.104   0.734   1.775  2.4663 -1.3414  0.4941
 4753TIP3   OH235673   2.114   5.305   1.011 -0.4450 -0.8149 -0.2776
 4753TIP3    H135674   2.166   5.229   0.985 -1.1942 -0.5874 -2.6937
 4753TIP3    H235675   2.023   5.274   1.005 -0.7652  0.2823 -1.4749
 4754TIP3   OH235676   1.120   5.819  14.126 -0.2292  0.9513  0.1341
 4754TIP3    H135677   1.142   5.738  14.173  1.7234  0.7010 -1.0838
 4754TIP3    H235678   1.069   5.789  14.050 -0.2364  0.9634  0.1342
 4755TIP3   OH235679   4.429   0.794  16.533  0.1588 -0.3109  0.4608
 4755TIP3    H135680   4.375   0.871  16.515  3.3929  2.0077 -0.4044
 4755TIP3    H235681   4.433   0.747  16.450 -0.0514 -0.1443  0.3565
 4756TIP3   OH235682   6.669   5.769  16.163  0.1316  0.2694  0.4249
 4756TIP3    H135683   6.634   5.853  16.192 -2.1286  0.8727 -3.3261
 4756TIP3    H235684   6.760   5.768  16.193  0.9858  5.1068 -1.1810
 4757TIP3   OH235685   0.918   2.438  14.935  0.3632 -1.0213 -0.8868
 4757TIP3    H135686   0.907   2.384  14.857 -0.0933  0.4493 -1.8772
 4757TIP3    H235687   0.883   2.523  14.910  0.5100 -0.4289  0.8300
 4758TIP3   OH235688   6.011   4.394  13.524  0.1236 -0.5036 -0.1750
 4758TIP3    H135689   6.041   4.484  13.536  2.1416 -1.3567  1.8007
 4758TIP3    H235690   6.023   4.353  13.609  0.8457 -3.1002 -1.4210
 4759TIP3   OH235691   0.147   4.376  11.660 -0.0440 -0.3516  0.5410
 4759TIP3    H135692   0.162   4.469  11.681 -0.5183 -0.0026 -0.5745
 4759TIP3    H235693   0.123   4.377  11.567  0.7419 -1.6794  0.3021
 4760TIP3   OH235694   6.272   4.809  12.995 -0.1828  0.6837  0.2896
 4760TIP3    H135695   6.267   4.833  12.903  2.1889 -2.3360 -0.8293
 4760TIP3    H235696   6.182   4.811  13.026 -1.7789 -2.1993 -3.3634
 4761TIP3   OH235697   4.038   5.908  10.356 -0.0668 -0.0768 -0.1312
 4761TIP3    H135698   4.063   5.819  10.333 -0.2213 -0.0522 -0.3970
 4761TIP3    H235699   3.943   5.903  10.372 -0.3891  0.3631 -1.7613
 4762TIP3   OH235700   6.457   4.290   2.652 -0.0683 -0.1041 -0.3600
 4762TIP3    H135701   6.481   4.313   2.562  0.3160  0.2902 -0.1611
 4762TIP3    H235702   6.539   4.260   2.691  0.2099  1.5377  0.4222
 4763TIP3   OH235703   2.084   2.323   0.053  0.4430  0.5767  0.5185
 4763TIP3    H135704   2.174   2.357   0.048  0.1466  1.2275 -1.2262
 4763TIP3    H235705   2.029   2.401   0.058 -0.1497  0.3415 -1.4765
 4764TIP3   OH235706   1.863   0.253  15.425  0.2524  0.7076  0.1307
 4764TIP3    H135707   1.850   0.337  15.470  1.1340  0.0316  1.7483
 4764TIP3    H235708   1.777   0.231  15.390 -0.1289  1.9870  0.2057
 4765TIP3   OH235709   1.957   0.717   5.530  0.1310 -0.7431  0.3928
 4765TIP3    H135710   1.864   0.703   5.545 -0.3553 -0.5808 -2.0901
 4765TIP3    H235711   1.970   0.811   5.541 -0.2219 -0.6182 -0.2027
 4766TIP3   OH235712   0.081   3.198  15.169  0.5613  0.8473 -0.1617
 4766TIP3    H135713   0.071   3.241  15.254  2.2652 -0.9873  1.0457
 4766TIP3    H235714  -0.000   3.149  15.158  0.4962  0.7577  0.6307
 4767TIP3   OH235715   5.871   2.543  14.769  0.2345 -0.0384 -0.2566
 4767TIP3    H135716   5.917   2.579  14.845  1.5641  2.0576 -1.9229
 4767TIP3    H235717   5.900   2.598  14.696 -1.2190 -1.7647 -2.2400
 4768TIP3   OH235718   0.606   2.658   2.546 -0.2354 -0.1680 -0.3148
 4768TIP3    H135719   0.515   2.651   2.576 -0.2052 -1.7446 -0.4906
 4768TIP3    H235720   0.604   2.726   2.479 -0.9935  0.8359  0.6927
 4769TIP3   OH235721   1.363   0.977  16.672 -0.6048 -0.0086 -0.1679
 4769TIP3    H135722   1.363   0.986  16.767  1.2416 -0.0525 -0.1180
 4769TIP3    H235723   1.383   0.885  16.656  0.6362  0.3153 -0.5713
 4770TIP3   OH235724   6.507   2.086  15.462 -0.3974 -0.3906  0.2012
 4770TIP3    H135725   6.463   2.157  15.417  1.8077 -0.0702 -1.6422
 4770TIP3    H235726   6.447   2.012  15.456 -1.6544  0.6333 -0.0896
 4771TIP3   OH235727   0.975   5.225   3.562 -0.2007 -0.2668  0.2074
 4771TIP3    H135728   1.005   5.316   3.559 -2.4505  0.6942  2.8216
 4771TIP3    H235729   1.043   5.180   3.612  0.8632 -0.0437 -0.9843
 4772TIP3   OH235730   2.476   2.078  15.421  0.6456 -0.2707 -0.6268
 4772TIP3    H135731   2.445   2.075  15.331 -0.6353 -1.1351 -0.1898
 4772TIP3    H235732   2.488   1.987  15.446 -1.2154 -0.2122  0.7563
 4773TIP3   OH235733   0.682   6.651   1.149 -0.5314  0.3836  0.0662
 4773TIP3    H135734   0.771   6.677   1.125 -1.0331  2.1459 -0.0315
 4773TIP3    H235735   0.688   6.631   1.243 -0.6500  3.9794  0.9996
 4774TIP3   OH235736   4.162   4.458  11.952  0.5849  0.2420 -0.1285
 4774TIP3    H135737   4.122   4.371  11.951  0.9988  0.0451  0.0722
 4774TIP3    H235738   4.111   4.507  12.016  0.5680  0.0385  0.0136
 4775TIP3   OH235739   1.349   1.963  16.825 -0.2062 -0.3472 -0.4004
 4775TIP3    H135740   1.423   1.966  16.765 -1.4962  0.2356 -2.0427
 4775TIP3    H235741   1.290   2.032  16.794 -1.0313 -0.1688  1.4240
 4776TIP3   OH235742   3.882   5.088  11.721 -0.4380  0.0913 -0.6145
 4776TIP3    H135743   3.919   5.174  11.741 -0.6096  0.4179 -1.6446
 4776TIP3    H235744   3.854   5.094  11.629 -0.3647 -1.0870 -0.7367
 4777TIP3   OH235745   5.817   6.661   1.909 -0.5508  0.1993  0.0783
 4777TIP3    H135746   5.890   6.723   1.912  0.7166 -1.1202 -1.7337
 4777TIP3    H235747   5.859   6.575   1.901 -2.2888 -0.5894 -1.1304
 4778TIP3   OH235748   3.728   4.295   0.830  0.0911  0.2645  0.5290
 4778TIP3    H135749   3.665   4.223   0.836  2.1673 -1.9098 -1.6376
 4778TIP3    H235750   3.780   4.288   0.909 -0.7449  0.4703  1.1139
 4779TIP3   OH235751   4.996   2.882   5.492  0.3096 -0.0791  0.1956
 4779TIP3    H135752   4.974   2.809   5.434  1.2592 -0.7773  0.6961
 4779TIP3    H235753   4.916   2.898   5.542  0.2212 -1.0525  0.3730
 4780TIP3   OH235754   1.093   2.771  17.187 -0.4617  0.0350 -0.6700
 4780TIP3    H135755   1.037   2.714  17.135 -0.6777 -1.0700  0.7083
 4780TIP3    H235756   1.143   2.712  17.243 -0.0015  1.1458  0.1455
 4781TIP3   OH235757   3.866   3.562   2.053  0.1937  0.2260  0.1413
 4781TIP3    H135758   3.868   3.571   1.958 -0.0781  1.1570  0.2167
 4781TIP3    H235759   3.957   3.574   2.080  0.1456  0.8157  0.0621
 4782TIP3   OH235760   4.009   6.392  13.242 -0.2050 -0.0208 -0.2605
 4782TIP3    H135761   3.931   6.374  13.294  0.3537 -2.4311 -0.1551
 4782TIP3    H235762   4.082   6.365  13.298  0.7226  1.7638 -0.5356
 4783TIP3   OH235763   4.420   2.729   4.459  0.3274 -0.1003  0.1202
 4783TIP3    H135764   4.355   2.731   4.529  0.0158 -0.2078 -0.1610
 4783TIP3    H235765   4.372   2.756   4.381  0.4159 -0.9889 -0.2562
 4784TIP3   OH235766   4.890   5.828   3.583 -0.1363  0.5335 -0.3828
 4784TIP3    H135767   4.853   5.745   3.613  0.6400 -0.2660 -1.5307
 4784TIP3    H235768   4.832   5.855   3.511  1.3185 -0.6186 -2.0512
 4785TIP3   OH235769   2.606   0.391  17.018 -1.0477 -0.1940 -0.1646
 4785TIP3    H135770   2.626   0.485  17.018  0.1135 -0.4197 -0.8456
 4785TIP3    H235771   2.692   0.348  17.019 -1.5667 -1.2626  1.1756
 4786TIP3   OH235772   3.035   0.874   5.246 -0.1157 -0.4704  0.6457
 4786TIP3    H135773   3.050   0.816   5.171 -0.9697 -2.4624  1.9251
 4786TIP3    H235774   3.082   0.954   5.224  2.5074 -2.1943 -0.5588
 4787TIP3   OH235775   2.285   3.485   4.631 -0.0320 -0.1030 -0.2005
 4787TIP3    H135776   2.379   3.478   4.619 -0.2276 -1.5236 -1.1850
 4787TIP3    H235777   2.274   3.550   4.700  1.7092 -0.6944  0.6918
 4788TIP3   OH235778   1.566   2.727  15.794 -0.3154  0.1782 -0.6573
 4788TIP3    H135779   1.631   2.684  15.739  1.3422  1.3421  0.2955
 4788TIP3    H235780   1.617   2.787  15.849 -2.3725  2.5485 -1.1524
 4789TIP3   OH235781   1.173   4.025   3.975  0.2962 -0.2449 -0.3049
 4789TIP3    H135782   1.133   4.002   3.891  2.9529 -0.7322 -1.5204
 4789TIP3    H235783   1.225   4.103   3.956  1.0217 -0.4280  0.8663
 4790TIP3   OH235784   5.077   1.591  14.065  0.3843  0.7068 -0.7286
 4790TIP3    H135785   4.996   1.630  14.096  0.2418  0.2727 -0.5515
 4790TIP3    H235786   5.096   1.522  14.128 -0.1473 -0.4878 -1.8363
 4791TIP3   OH235787   6.040   0.645   0.070 -0.1293  0.2452  0.4080
 4791TIP3    H135788   6.102   0.595   0.123 -0.2524 -0.3924 -0.0386
 4791TIP3    H235789   6.091   0.719   0.037  0.1099  0.3064  0.9016
 4792TIP3   OH235790   5.380   5.041  11.863  0.3138 -0.2139 -0.2544
 4792TIP3    H135791   5.397   5.000  11.947  0.0293  1.9825  0.9493
 4792TIP3    H235792   5.286   5.061  11.865  0.6651  1.5909 -0.2227
 4793TIP3   OH235793   2.900   6.298   2.685 -0.5245 -0.2015  0.1198
 4793TIP3    H135794   2.903   6.330   2.595 -1.7777 -1.0514 -0.2356
 4793TIP3    H235795   2.807   6.294   2.707 -0.2816 -1.0165  1.0875
 4794TIP3   OH235796   0.605   0.369  17.280 -0.3098  0.1906 -0.6501
 4794TIP3    H135797   0.519   0.329  17.291  1.1453 -2.7674  1.3623
 4794TIP3    H235798   0.659   0.301  17.238  1.2083  1.7847 -1.4559
 4795TIP3   OH235799   1.529   5.471  16.620  0.9944  0.0498  0.0409
 4795TIP3    H135800   1.520   5.493  16.712 -1.1281 -1.0296  0.1424
 4795TIP3    H235801   1.615   5.428  16.614  0.7694 -0.7099  1.7004
 4796TIP3   OH235802   4.782   6.220  15.023  0.0506  0.0291  0.7586
 4796TIP3    H135803   4.744   6.274  15.092 -0.3671  2.7752 -1.4152
 4796TIP3    H235804   4.876   6.241  15.025 -0.2531  1.8013 -0.7384
 4797TIP3   OH235805   1.282   4.882   0.858  0.0743 -0.2301  0.5828
 4797TIP3    H135806   1.305   4.940   0.786 -2.4444 -1.3970 -1.3206
 4797TIP3    H235807   1.321   4.798   0.834 -1.9978 -1.0083 -0.3015
 4798TIP3   OH235808   6.169   1.155   0.848 -0.0633 -0.2065  0.3224
 4798TIP3    H135809   6.222   1.080   0.821  1.0216  0.7990 -0.4603
 4798TIP3    H235810   6.083   1.117   0.869 -0.1369 -1.4452 -1.8724
 4799TIP3   OH235811   2.328   4.576   2.596  0.4369 -0.1120 -0.2137
 4799TIP3    H135812   2.359   4.654   2.643 -0.7868 -0.3085  0.9717
 4799TIP3    H235813   2.397   4.558   2.532  2.3340  0.0356  1.6555
 4800TIP3   OH235814   5.862   3.871  14.601  0.4277  0.1526  0.1985
 4800TIP3    H135815   5.832   3.946  14.551  2.5439  2.7837  2.5503
 4800TIP3    H235816   5.918   3.822  14.539 -2.3998 -0.7088 -1.9084
 4801TIP3   OH235817   0.159   3.398   4.015  0.0573 -0.0003  0.3673
 4801TIP3    H135818   0.097   3.462   4.050  0.7026  1.5933 -1.2265
 4801TIP3    H235819   0.105   3.337   3.964 -0.1802  2.3340 -2.4133
 4802TIP3   OH235820   4.624   0.621   3.662 -0.2208  0.0564  0.7506
 4802TIP3    H135821   4.589   0.580   3.583  0.0084 -1.9399  1.6431
 4802TIP3    H235822   4.719   0.623   3.648 -0.1595 -0.5045  1.0422
 4803TIP3   OH235823   5.209   2.765   3.062 -0.1457 -0.1563  0.1344
 4803TIP3    H135824   5.264   2.828   3.016 -2.1384  1.5673 -0.0110
 4803TIP3    H235825   5.198   2.693   3.000  0.6044  0.2116 -0.4462
 4804TIP3   OH235826   4.722   2.761   1.366  0.1549  0.4293 -0.3617
 4804TIP3    H135827   4.634   2.796   1.362 -0.6002 -1.1674  0.9501
 4804TIP3    H235828   4.736   2.720   1.280 -0.5963  0.2397 -0.3983
 4805TIP3   OH235829   6.130   1.905  12.094 -0.1795  0.1633 -0.6815
 4805TIP3    H135830   6.050   1.956  12.102 -0.4402 -0.4204  0.6607
 4805TIP3    H235831   6.172   1.940  12.016 -0.3568  2.3949  0.1432
 4806TIP3   OH235832   1.106   2.425   3.556 -0.0373  0.4406 -0.0266
 4806TIP3    H135833   1.012   2.442   3.545 -0.2562  0.5159  1.7172
 4806TIP3    H235834   1.139   2.501   3.604  0.9126  0.3656 -0.5370
 4807TIP3   OH235835   1.445   3.221  15.021 -0.1580  0.1036  0.0322
 4807TIP3    H135836   1.453   3.249  14.930 -1.0707  0.3377  0.0166
 4807TIP3    H235837   1.374   3.275  15.056 -0.4755 -0.6778  0.6066
 4808TIP3   OH235838   5.727   6.144   2.149  0.0247  0.2158  0.2912
 4808TIP3    H135839   5.742   6.163   2.057 -1.2080 -0.6102 -0.1038
 4808TIP3    H235840   5.654   6.200   2.174 -1.2595 -1.2929  0.0764
 4809TIP3   OH235841   2.443   4.643  15.345  0.2460  0.1138  0.8304
 4809TIP3    H135842   2.444   4.736  15.365  2.0333  0.0144  1.4099
 4809TIP3    H235843   2.499   4.635  15.268  0.7346 -0.5539  1.2421
 4810TIP3   OH235844   3.230   4.601  16.162  0.4013  0.4731  0.0147
 4810TIP3    H135845   3.222   4.508  16.186 -0.8267  0.6997  0.5959
 4810TIP3    H235846   3.306   4.632  16.212  0.0844  0.0557  0.7848
 4811TIP3   OH235847   2.337   1.220  16.308  0.0100  0.7582 -0.2205
 4811TIP3    H135848   2.408   1.164  16.337  0.2859  1.5499  0.7172
 4811TIP3    H235849   2.257   1.175  16.338  0.1778  0.4390 -0.2509
 4812TIP3   OH235850   6.678   3.556   0.451  0.1974 -0.6402  0.1569
 4812TIP3    H135851   6.686   3.642   0.410  1.2703 -0.5247  0.5867
 4812TIP3    H235852   6.728   3.498   0.393 -0.2242 -0.9179  0.0642
 4813TIP3   OH235853   0.199   3.932  14.815  0.3222 -0.8227 -0.1842
 4813TIP3    H135854   0.122   3.878  14.830  0.6162 -1.1214  0.2822
 4813TIP3    H235855   0.247   3.888  14.745 -0.0656 -0.4852 -0.6690
 4814TIP3   OH235856   1.558   5.520  14.394  0.1442 -0.0353 -0.0187
 4814TIP3    H135857   1.605   5.563  14.466  1.5591 -0.3802 -0.7080
 4814TIP3    H235858   1.529   5.592  14.338  1.9755  0.1132 -0.8458
 4815TIP3   OH235859   0.919   0.222  10.482  0.6610 -0.2581  0.4116
 4815TIP3    H135860   0.981   0.211  10.554  2.8827 -0.0412 -1.3358
 4815TIP3    H235861   0.895   0.315  10.485 -0.1451 -0.4868  1.5012
 4816TIP3   OH235862   1.159   4.800  13.761  0.6181 -0.3481 -0.1657
 4816TIP3    H135863   1.084   4.857  13.742  1.5007  0.2439 -2.1076
 4816TIP3    H235864   1.138   4.718  13.716  0.9526 -0.3236 -0.3643
 4817TIP3   OH235865   5.089   1.885   1.815  0.6121  0.0904  0.1857
 4817TIP3    H135866   5.041   1.966   1.800  1.0721  0.1493 -1.0335
 4817TIP3    H235867   5.179   1.905   1.790  0.9580 -0.4837  0.9339
 4818TIP3   OH235868   2.763   2.021  16.979 -0.2516 -0.9096  0.6595
 4818TIP3    H135869   2.848   2.043  17.016 -0.7628 -0.1480  1.4262
 4818TIP3    H235870   2.730   1.950  17.034 -0.6552 -0.3355  1.1710
 4819TIP3   OH235871   1.839   6.304  13.871  0.1347 -0.3800 -0.1081
 4819TIP3    H135872   1.870   6.272  13.786 -2.4579 -1.9554 -0.5933
 4819TIP3    H235873   1.864   6.235  13.933  1.7834  0.6408  0.4241
 4820TIP3   OH235874   4.579   1.094   2.763  0.1528 -0.7901 -0.1633
 4820TIP3    H135875   4.517   1.110   2.692  2.3459 -2.3677 -2.6077
 4820TIP3    H235876   4.556   1.006   2.795  0.0479 -0.6491  0.1575
 4821TIP3   OH235877   1.532   2.230   3.139  0.1979 -0.3742  0.0027
 4821TIP3    H135878   1.548   2.170   3.212  1.5914  0.4829  0.4513
 4821TIP3    H235879   1.506   2.312   3.180 -0.7767 -0.3834 -0.5645
 4822TIP3   OH235880   4.324   1.681  13.542 -0.4595 -0.1408 -0.5524
 4822TIP3    H135881   4.248   1.704  13.489 -0.5074  1.2488  0.0564
 4822TIP3    H235882   4.310   1.590  13.568 -1.2180 -0.3260 -1.5911
 4823TIP3   OH235883   3.989   1.086  14.607  0.1550  0.1776  0.5126
 4823TIP3    H135884   3.991   1.152  14.675  0.8579  0.2452  0.4356
 4823TIP3    H235885   4.071   1.038  14.617  0.1457  0.0134 -0.1083
 4824TIP3   OH235886   6.730   0.594   2.397  0.2088 -0.8519  0.0608
 4824TIP3    H135887   6.656   0.537   2.377 -0.9472  0.9326 -0.9761
 4824TIP3    H235888   6.706   0.637   2.479 -0.2099  0.1912 -0.5976
 4825TIP3   OH235889   2.244   1.455   3.965  0.2433 -0.2117 -0.1099
 4825TIP3    H135890   2.228   1.524   3.901 -0.3130 -0.7474 -0.5624
 4825TIP3    H235891   2.327   1.479   4.006  0.1963  0.5745 -0.4514
 4826TIP3   OH235892   6.417   0.372   3.923 -0.2908 -0.6285  0.3707
 4826TIP3    H135893   6.475   0.445   3.945 -0.1426 -0.1974 -1.2852
 4826TIP3    H235894   6.427   0.310   3.996  0.5383  0.4366  1.1927
 4827TIP3   OH235895   5.988   2.358  14.546 -0.4226 -0.0730  0.3030
 4827TIP3    H135896   5.967   2.391  14.633 -1.3385  2.0641 -0.6593
 4827TIP3    H235897   5.903   2.336  14.507 -0.0877 -0.2772 -0.3301
 4828TIP3   OH235898   4.551   4.908  15.993 -0.5311  0.0896  0.5027
 4828TIP3    H135899   4.499   4.829  16.007  1.0629 -0.9132  1.0729
 4828TIP3    H235900   4.564   4.944  16.081 -1.1570  0.9302  0.2547
 4829TIP3   OH235901   6.001   1.296   5.062 -0.2024  0.2188  0.3390
 4829TIP3    H135902   6.064   1.292   5.134 -0.9855  0.0024  1.0316
 4829TIP3    H235903   6.038   1.238   4.995 -0.2518 -0.8602  1.2190
 4830TIP3   OH235904   4.479   3.497  15.654  0.2022 -0.0981  0.5882
 4830TIP3    H135905   4.530   3.520  15.576  0.3588  1.2891  1.0673
 4830TIP3    H235906   4.420   3.427  15.625  1.4692 -0.8313 -0.3106
 4831TIP3   OH235907   4.888   1.350   3.435  0.3649  0.4551  0.4101
 4831TIP3    H135908   4.898   1.283   3.367  1.4802 -1.9071  2.7264
 4831TIP3    H235909   4.973   1.395   3.436  0.9765 -0.6585  1.2946
 4832TIP3   OH235910   0.757   2.314  16.367 -0.1580 -0.0464 -0.3197
 4832TIP3    H135911   0.789   2.369  16.296  1.7771 -0.5041  0.1563
 4832TIP3    H235912   0.777   2.225  16.339  2.2256 -0.1573  1.4927
 4833TIP3   OH235913   3.675   1.521  10.989  0.0738 -0.1240  0.0867
 4833TIP3    H135914   3.712   1.543  11.074 -1.8551  0.1993  0.8814
 4833TIP3    H235915   3.580   1.521  11.003 -0.2417 -2.6904 -1.4076
 4834TIP3   OH235916   0.687   6.727  15.497  0.0329  0.5315  0.4987
 4834TIP3    H135917   0.616   6.663  15.504  0.5046 -0.0491  0.0735
 4834TIP3    H235918   0.762   6.684  15.537  0.7497  0.2130 -1.1180
 4835TIP3   OH235919   5.920   4.971  15.756  0.3748  0.2510  0.0572
 4835TIP3    H135920   5.946   4.977  15.664  4.5940  1.6601  1.0953
 4835TIP3    H235921   5.872   5.052  15.773 -0.4008 -0.0021 -0.8478
 4836TIP3   OH235922   4.189   2.754   3.800 -0.1460  0.3057  0.5430
 4836TIP3    H135923   4.258   2.751   3.733  1.2150 -0.5759  1.9039
 4836TIP3    H235924   4.155   2.664   3.804 -0.7346  0.5258  0.5150
 4837TIP3   OH235925   5.443   3.613  11.460 -0.9674 -0.8400  0.1898
 4837TIP3    H135926   5.453   3.521  11.485  1.4817 -0.6914  0.0174
 4837TIP3    H235927   5.515   3.630  11.399  0.0789  1.7302  1.9411
 4838TIP3   OH235928   6.751   1.045  17.254  0.6562  0.4934  0.4131
 4838TIP3    H135929   6.706   1.101  17.190  1.7191 -0.7239 -1.4910
 4838TIP3    H235930   6.843   1.047  17.226  1.0524 -0.5637  1.5659
 4839TIP3   OH235931   3.554   2.229   2.069 -0.0021 -0.1473 -0.8140
 4839TIP3    H135932   3.522   2.182   2.146  1.1529 -1.3404 -1.0139
 4839TIP3    H235933   3.612   2.297   2.104 -1.6937  1.2209 -0.5220
 4840TIP3   OH235934   0.423   2.263  17.174 -0.5492  0.5627 -0.0836
 4840TIP3    H135935   0.412   2.177  17.132 -0.2958  0.1946  0.5857
 4840TIP3    H235936   0.481   2.311  17.115 -0.4070  0.1454 -0.2910
 4841TIP3   OH235937   2.893   5.503  11.958  0.4687  0.4416 -0.5430
 4841TIP3    H135938   2.883   5.537  11.869  1.8752 -1.7534 -1.6170
 4841TIP3    H235939   2.807   5.466  11.979  0.6719 -0.8728 -1.8647
 4842TIP3   OH235940   6.358   5.601  14.023  0.0115  0.8817  0.3325
 4842TIP3    H135941   6.401   5.523  14.058 -2.1459  0.3582  2.0275
 4842TIP3    H235942   6.315   5.571  13.943  1.4825  1.0576 -0.5558
 4843TIP3   OH235943   3.960   1.273  16.328  0.5430  0.1831  0.2400
 4843TIP3    H135944   3.961   1.367  16.313  0.7378  0.0416 -0.7132
 4843TIP3    H235945   3.898   1.261  16.401  0.6100  1.0483  0.4516
 4844TIP3   OH235946   4.776   5.329  15.463  0.4237 -0.0872 -0.1318
 4844TIP3    H135947   4.807   5.240  15.481  1.0569  0.4024  1.3625
 4844TIP3    H235948   4.687   5.330  15.498  0.2867 -0.2402 -0.4769
 4845TIP3   OH235949   6.126   1.955  16.944 -0.1453  0.3322 -0.2616
 4845TIP3    H135950   6.144   1.962  17.038  1.1211  2.3145 -0.6020
 4845TIP3    H235951   6.036   1.985  16.934 -0.8724 -1.4526  0.4578
 4846TIP3   OH235952   1.098   2.450  16.951  0.2236  0.0186 -0.4904
 4846TIP3    H135953   1.064   2.445  16.861 -0.4027  1.1591 -0.3438
 4846TIP3    H235954   1.070   2.368  16.991 -0.3568 -0.0765 -1.0602
 4847TIP3   OH235955   4.632   5.655   1.315 -0.6048 -0.4537 -0.0058
 4847TIP3    H135956   4.568   5.726   1.316  0.7380  0.9658 -2.6430
 4847TIP3    H235957   4.708   5.692   1.360 -0.5976 -0.9962  0.4265
 4848TIP3   OH235958   2.759   6.189   4.573  0.6533 -0.3342  0.1451
 4848TIP3    H135959   2.693   6.205   4.506  1.3125  0.2272 -0.3967
 4848TIP3    H235960   2.828   6.253   4.553  0.4849  0.4274  1.8839
 4849TIP3   OH235961   4.677   4.266   2.418 -0.3245  0.1869 -0.1440
 4849TIP3    H135962   4.683   4.358   2.393 -2.4784  0.2297 -0.7935
 4849TIP3    H235963   4.686   4.265   2.513  0.3602  0.9756 -0.1969
 4850TIP3   OH235964   5.537   2.670   6.625 -0.3739 -0.1840  0.2389
 4850TIP3    H135965   5.622   2.706   6.600 -0.1638  0.2354  1.4953
 4850TIP3    H235966   5.475   2.710   6.563  0.1440  0.6855  0.2572
 4851TIP3   OH235967   6.376   2.067   3.336 -0.1418  0.5405  0.8720
 4851TIP3    H135968   6.282   2.061   3.321 -0.0199 -0.2507  0.3870
 4851TIP3    H235969   6.402   1.981   3.369  0.3423  0.8914  1.4392
 4852TIP3   OH235970   1.100   3.581   2.194  0.8743 -0.3689  0.2003
 4852TIP3    H135971   1.120   3.541   2.278 -1.0798 -0.3136  0.7388
 4852TIP3    H235972   1.070   3.508   2.139  0.7751 -0.1877  0.0108
 4853TIP3   OH235973   1.965   6.023   1.314 -0.1224  0.0801  0.5043
 4853TIP3    H135974   1.948   6.103   1.264  0.5498  1.2690  2.0851
 4853TIP3    H235975   1.879   5.988   1.333 -0.4016 -0.9327 -2.2022
 4854TIP3   OH235976   4.130   2.998  11.414  0.5811 -0.2805 -0.4157
 4854TIP3    H135977   4.119   3.077  11.466 -2.2417  0.8788 -2.4954
 4854TIP3    H235978   4.221   2.971  11.429  1.8035  3.5719  0.1059
 4855TIP3   OH235979   5.063   6.180  13.925  0.7239 -0.5640  0.0360
 4855TIP3    H135980   4.971   6.154  13.929  1.2654 -2.9281 -1.2088
 4855TIP3    H235981   5.103   6.119  13.862  2.3953  2.7701 -2.4814
 4856TIP3   OH235982   4.885   3.616   2.293  0.0149  0.1656  0.0295
 4856TIP3    H135983   4.906   3.525   2.275  0.4934  0.0892  0.9161
 4856TIP3    H235984   4.946   3.642   2.362  0.3380  1.3616 -0.6714
 4857TIP3   OH235985   3.891   2.906   6.566  0.0193 -0.6173 -0.4570
 4857TIP3    H135986   3.917   2.992   6.534 -1.3352  0.1020  0.2977
 4857TIP3    H235987   3.796   2.910   6.571  0.0225 -1.6452  0.9895
 4858TIP3   OH235988   5.281   6.670  12.039  0.4334  0.9336 -0.5608
 4858TIP3    H135989   5.243   6.636  12.120 -1.2269  1.1892 -1.1711
 4858TIP3    H235990   5.322   6.593  11.998  1.0824  0.7608  0.4060
 4859TIP3   OH235991   4.140   2.307  11.134 -0.5684  0.2104  0.1534
 4859TIP3    H135992   4.189   2.295  11.053  0.2301  0.9475  0.5077
 4859TIP3    H235993   4.106   2.220  11.155 -0.7562  0.0078 -0.9458
 4860TIP3   OH235994   3.260   1.596   5.325  0.7125 -0.6525  0.0090
 4860TIP3    H135995   3.266   1.513   5.278 -0.3887 -0.8335  0.1583
 4860TIP3    H235996   3.270   1.663   5.258 -2.7598 -0.8734 -0.9025
 4861TIP3   OH235997   3.382   4.762   3.562 -0.7973 -1.2087  0.2186
 4861TIP3    H135998   3.400   4.728   3.474  0.8291  0.3726 -0.1360
 4861TIP3    H235999   3.467   4.758   3.607 -1.1936 -0.3175  1.0869
 4862TIP3   OH236000   1.978   4.979  12.290 -0.4987 -0.0708  0.3528
 4862TIP3    H136001   1.901   4.969  12.347 -0.5193  0.3241  0.3989
 4862TIP3    H236002   2.052   4.959  12.348 -0.4446  1.4336  0.8381
 4863TIP3   OH236003   3.615   3.557  15.447 -0.9872 -0.4281  0.1515
 4863TIP3    H136004   3.619   3.580  15.540 -1.1467  0.5979 -0.0858
 4863TIP3    H236005   3.557   3.481  15.444 -1.2400 -0.2709  0.8555
 4864TIP3   OH236006   4.023   4.376   0.653  0.3197 -0.0454  0.5424
 4864TIP3    H136007   3.951   4.313   0.647  1.0063 -0.7189 -1.2611
 4864TIP3    H236008   4.101   4.327   0.629  0.9667  1.3399 -0.3689
 4865TIP3   OH236009   3.857   3.701   5.003  0.2621 -0.2059  0.5725
 4865TIP3    H136010   3.773   3.743   5.020  0.4025 -0.2523  1.4557
 4865TIP3    H236011   3.838   3.633   4.939 -0.1936  0.4143  0.0452
 4866TIP3   OH236012   1.128   5.574   5.399 -1.1250 -0.3997  0.5179
 4866TIP3    H136013   1.097   5.597   5.486 -0.5286  1.5263  0.2630
 4866TIP3    H236014   1.112   5.652   5.346  0.0156 -0.9446 -0.7020
 4867TIP3   OH236015   1.789   6.410  16.573  0.5639 -0.0402 -0.1066
 4867TIP3    H136016   1.767   6.376  16.486 -0.0204 -0.0694  0.0460
 4867TIP3    H236017   1.881   6.387  16.585  0.5254 -0.4436 -0.5316
 4868TIP3   OH236018   1.396   3.558   2.560 -0.2375  0.1251 -0.3740
 4868TIP3    H136019   1.474   3.611   2.578  0.8471 -1.8926  1.2932
 4868TIP3    H236020   1.423   3.468   2.576 -2.8688 -0.6913  0.0422
 4869TIP3   OH236021   3.762   4.845   5.738  0.5662 -0.2738  0.0035
 4869TIP3    H136022   3.822   4.884   5.674  0.3837  0.3496  0.2117
 4869TIP3    H236023   3.810   4.849   5.821 -0.0624  0.9495  0.3207
 4870TIP3   OH236024   3.903   5.867  15.706  0.1389  0.0633 -0.3045
 4870TIP3    H136025   3.853   5.785  15.708 -0.4377  0.3401 -1.7836
 4870TIP3    H236026   3.840   5.933  15.735 -0.1252  0.3024 -1.4018
 4871TIP3   OH236027   4.427   4.596   3.299  0.0449  0.0607 -0.1088
 4871TIP3    H136028   4.497   4.632   3.353 -0.2546 -0.6410  0.7722
 4871TIP3    H236029   4.457   4.607   3.209  0.3103  1.7629  0.1605
 4872TIP3   OH236030   4.202   5.907   1.512 -0.3057 -0.1712  0.0990
 4872TIP3    H136031   4.222   5.952   1.594 -0.6150  0.6575 -0.2696
 4872TIP3    H236032   4.150   5.969   1.463  0.4441 -0.3888 -1.0130
 4873TIP3   OH236033   0.794   2.672  14.852 -0.4992  0.1181 -0.3880
 4873TIP3    H136034   0.841   2.721  14.920  1.0290 -1.2480 -0.3792
 4873TIP3    H236035   0.702   2.689  14.869 -0.0625  2.8549 -0.3246
 4874TIP3   OH236036   1.833   0.918  14.261  0.5657  0.2121  0.4519
 4874TIP3    H136037   1.796   0.830  14.254 -0.0514  0.3492  1.6850
 4874TIP3    H236038   1.914   0.914  14.210  0.5508 -1.0751  0.4933
 4875TIP3   OH236039   5.197   4.332  11.622 -0.4596 -0.3929  0.4995
 4875TIP3    H136040   5.107   4.354  11.646 -1.0383 -0.5205 -1.3891
 4875TIP3    H236041   5.233   4.413  11.587 -0.3662 -0.7004 -0.1508
 4876TIP3   OH236042   4.670   4.606   1.139  0.0667 -0.3237  0.5644
 4876TIP3    H136043   4.738   4.549   1.104  1.0205 -0.4360  2.4793
 4876TIP3    H236044   4.717   4.687   1.163 -1.2540  1.3986 -2.1595
 4877TIP3   OH236045   1.732   0.181   1.052 -0.3655  0.3504 -0.3408
 4877TIP3    H136046   1.781   0.200   0.972 -1.5440  0.0539 -1.1611
 4877TIP3    H236047   1.750   0.255   1.110 -0.0003  0.8863 -1.1183
 4878TIP3   OH236048   4.883   6.432  14.626  0.1222  1.3498 -0.0024
 4878TIP3    H136049   4.810   6.380  14.660  1.2186 -0.1439  0.1817
 4878TIP3    H236050   4.873   6.517  14.669 -1.0508  0.9230  0.6319
 4879TIP3   OH236051   3.660   3.693  14.810  0.2500 -0.2415  0.3330
 4879TIP3    H136052   3.695   3.608  14.837  1.4761 -0.4321 -1.6837
 4879TIP3    H236053   3.665   3.693  14.715  0.2240  2.0722  0.2649
 4880TIP3   OH236054   2.988   3.748   1.458 -0.5675  0.0888 -0.5434
 4880TIP3    H136055   3.002   3.783   1.546  0.5282 -2.0082  0.1913
 4880TIP3    H236056   2.979   3.826   1.402 -0.8854  1.4751  1.3387
 4881TIP3   OH236057   2.044   0.451  16.461  0.0613 -0.1409 -0.2593
 4881TIP3    H136058   2.105   0.389  16.501  0.0661 -0.3659 -0.6149
 4881TIP3    H236059   2.094   0.493  16.391  0.9898  2.3181  1.7094
 4882TIP3   OH236060   0.215   3.954  15.492  0.3297 -0.1677 -0.0150
 4882TIP3    H136061   0.193   4.026  15.433 -1.0983 -1.0259 -0.5942
 4882TIP3    H236062   0.292   3.913  15.452  2.1348  1.8933  1.1381
 4883TIP3   OH236063   5.181   0.027  12.301  0.4830 -0.3222 -0.1483
 4883TIP3    H136064   5.196  -0.050  12.357 -3.3295 -0.1714  1.4013
 4883TIP3    H236065   5.097   0.009  12.258  0.5448  2.0772 -1.4232
 4884TIP3   OH236066   2.586   3.462  13.260 -0.1574 -0.4326  0.0384
 4884TIP3    H136067   2.665   3.426  13.301 -0.8853  0.2078  2.1221
 4884TIP3    H236068   2.548   3.518  13.327 -0.6581  1.9040 -2.0781
 4885TIP3   OH236069   1.337   4.174  12.731  0.2347  0.5454  0.7549
 4885TIP3    H136070   1.331   4.169  12.827  1.3957  0.2033  0.8267
 4885TIP3    H236071   1.410   4.116  12.709 -2.0606 -1.9691 -0.6440
 4886TIP3   OH236072   2.081   3.548  14.085 -0.3635  0.6380 -0.7382
 4886TIP3    H136073   2.051   3.577  13.999  1.4042 -1.0523 -2.0232
 4886TIP3    H236074   2.146   3.613  14.111 -0.6298  0.9529 -0.8477
 4887TIP3   OH236075   4.993   2.789  14.854 -0.2074 -0.9777 -0.8197
 4887TIP3    H136076   5.052   2.854  14.816  0.6463  0.2062  2.2504
 4887TIP3    H236077   4.912   2.798  14.804  0.6399  0.8314 -1.9533
 4888TIP3   OH236078   5.939   0.841   0.659  0.2122  0.6292  0.0481
 4888TIP3    H136079   5.903   0.917   0.613 -1.6445 -0.5446 -0.5759
 4888TIP3    H236080   5.944   0.773   0.591 -0.7756 -0.5860  1.1517
 4889TIP3   OH236081   3.079   5.624  16.939  0.7294 -0.7475  0.0175
 4889TIP3    H136082   3.043   5.700  16.984  1.8832  0.5489 -1.1723
 4889TIP3    H236083   3.174   5.634  16.948  0.8958 -2.2810  0.1925
 4890TIP3   OH236084   5.986   2.600   3.906  0.1997 -0.1582 -0.3507
 4890TIP3    H136085   6.032   2.567   3.829  2.3269 -2.1111  1.5797
 4890TIP3    H236086   6.047   2.663   3.945  1.1305 -2.3560  1.9547
 4891TIP3   OH236087   5.604   5.425   2.490 -0.1879  0.1607 -0.2488
 4891TIP3    H136088   5.554   5.352   2.526 -0.5395  0.3537 -0.3350
 4891TIP3    H236089   5.599   5.494   2.556 -3.1300  1.5258 -1.6884
 4892TIP3   OH236090   4.772   4.703  11.403 -0.1267  0.2206 -0.6163
 4892TIP3    H136091   4.742   4.725  11.314 -1.7878 -1.1248 -0.4546
 4892TIP3    H236092   4.733   4.771  11.458 -2.5177 -1.1172 -0.4981
 4893TIP3   OH236093   2.761   1.801  14.747  0.1069 -0.3793 -0.8006
 4893TIP3    H136094   2.776   1.743  14.672 -0.5988 -0.7436 -0.6675
 4893TIP3    H236095   2.666   1.807  14.754  0.1712 -0.0419 -0.1654
 4894TIP3   OH236096   6.232   0.579   2.752 -0.1087 -0.1743  0.4085
 4894TIP3    H136097   6.311   0.563   2.803 -0.6769  0.8558  1.6697
 4894TIP3    H236098   6.246   0.666   2.713  0.2552 -0.8834 -1.1181
 4895TIP3   OH236099   4.293   3.586   1.796  0.0874 -0.3151  0.1901
 4895TIP3    H136100   4.293   3.533   1.716  0.1317 -1.1751  0.7411
 4895TIP3    H236101   4.321   3.673   1.768 -2.3468  0.1210 -1.1669
 4896TIP3   OH236102   4.490   2.526   2.148  0.0333 -0.1531  0.2492
 4896TIP3    H136103   4.526   2.441   2.171  0.4913 -0.4211 -1.3591
 4896TIP3    H236104   4.508   2.536   2.054 -0.8376  1.3053  0.1993
 4897TIP3   OH236105   2.595   5.761   1.936 -0.5526 -0.5692  0.1500
 4897TIP3    H136106   2.545   5.774   1.855 -0.1526 -0.4154 -0.0707
 4897TIP3    H236107   2.647   5.841   1.945 -0.4654 -0.6611  0.4688
 4898TIP3   OH236108   1.526   2.622  11.700  0.3606 -0.3966  0.2548
 4898TIP3    H136109   1.450   2.564  11.690  1.0594 -1.2047 -0.5814
 4898TIP3    H236110   1.500   2.684  11.768 -2.2672  1.3178 -2.0879
 4899TIP3   OH236111   4.497   3.400   5.341 -0.5355  0.8303  0.1320
 4899TIP3    H136112   4.401   3.398   5.349 -0.4633 -1.1676  0.8779
 4899TIP3    H236113   4.526   3.438   5.424 -0.6427  0.8594  0.1574
 4900TIP3   OH236114   1.861   4.282  15.680 -0.4121 -0.3259 -0.0463
 4900TIP3    H136115   1.774   4.290  15.720 -0.8189 -0.4200 -0.8935
 4900TIP3    H236116   1.852   4.211  15.617  0.8025 -1.6320  1.1849
 4901TIP3   OH236117   6.481   5.231  13.759  0.3496 -0.1132  0.4462
 4901TIP3    H136118   6.408   5.242  13.698  0.0916 -2.5498  0.2228
 4901TIP3    H236119   6.550   5.288  13.724 -0.3314 -0.2591 -1.2306
 4902TIP3   OH236120   2.938   1.195  11.697  0.2048  0.1382  0.3886
 4902TIP3    H136121   2.997   1.163  11.765 -0.1044  0.1735  0.6779
 4902TIP3    H236122   2.851   1.167  11.726  0.1795 -0.7824 -0.5303
 4903TIP3   OH236123   5.147   5.824   4.895 -0.5021 -0.0133 -0.3245
 4903TIP3    H136124   5.175   5.879   4.968  1.2519 -1.2533  0.0005
 4903TIP3    H236125   5.195   5.860   4.820 -0.3372 -0.2990 -0.3569
 4904TIP3   OH236126   1.395   0.260   3.604 -0.0336  0.6915  0.3052
 4904TIP3    H136127   1.309   0.291   3.631 -0.0896  0.3137  0.5768
 4904TIP3    H236128   1.379   0.214   3.521 -0.1378  0.3952  0.4882
 4905TIP3   OH236129   0.722   2.507   6.246 -0.1234 -0.2111 -0.5778
 4905TIP3    H136130   0.706   2.456   6.166 -0.5731 -0.4286 -0.3544
 4905TIP3    H236131   0.654   2.477   6.307  1.2708 -1.3247  0.4948
 4906TIP3   OH236132   6.078   0.380   6.295  0.5479  0.1149 -0.2993
 4906TIP3    H136133   6.121   0.336   6.369  0.4643  0.6892  0.0966
 4906TIP3    H236134   5.989   0.398   6.326 -1.1323 -3.8248 -2.1440
 4907TIP3   OH236135   3.609   2.517   1.930  0.1558  0.2916  0.1390
 4907TIP3    H136136   3.636   2.480   2.014 -1.4323  2.2381  1.5985
 4907TIP3    H236137   3.583   2.607   1.950 -1.9123  0.3018 -2.1026
 4908TIP3   OH236138   1.570   4.493  13.029 -0.3196  0.0492  0.0345
 4908TIP3    H136139   1.625   4.451  12.964 -0.6019 -0.0746 -0.1278
 4908TIP3    H236140   1.483   4.496  12.989 -1.0104 -1.9763  1.2310
 4909TIP3   OH236141   2.474   4.490   3.920  0.2430 -0.4620  0.9671
 4909TIP3    H136142   2.519   4.528   3.995  2.9259 -1.9071  0.2180
 4909TIP3    H236143   2.509   4.401   3.912  0.3568 -0.2657 -2.1466
 4910TIP3   OH236144   0.947   0.974  14.339  0.3488  0.5357 -0.7585
 4910TIP3    H136145   1.026   1.010  14.379 -0.1931  1.2362 -0.2993
 4910TIP3    H236146   0.958   0.993  14.245  1.2040 -0.3135 -0.8428
 4911TIP3   OH236147   1.494   2.198   2.262 -0.1835 -0.3237 -0.7878
 4911TIP3    H136148   1.537   2.180   2.178 -0.5450  1.9728 -1.5611
 4911TIP3    H236149   1.415   2.145   2.261  0.8212 -1.8677 -0.9579
 4912TIP3   OH236150   0.338   2.159   3.978 -0.2899  0.3629 -0.2276
 4912TIP3    H136151   0.300   2.132   3.895  0.4841 -0.6421 -0.2796
 4912TIP3    H236152   0.372   2.078   4.017 -0.1721  0.8922  0.8219
 4913TIP3   OH236153   0.779   4.479   3.674  0.0734 -0.2453 -0.2824
 4913TIP3    H136154   0.859   4.428   3.660  1.5642  2.3537 -2.0621
 4913TIP3    H236155   0.723   4.456   3.600  0.4905  0.2278 -0.7506
 4914TIP3   OH236156   6.138   0.265   2.225  0.2607  0.0079  0.0574
 4914TIP3    H136157   6.086   0.324   2.280 -0.4986 -1.4120  0.9272
 4914TIP3    H236158   6.224   0.307   2.221  0.1142  0.5576  1.7016
 4915TIP3   OH236159   5.131   2.375   3.034 -0.1014 -0.4060 -0.2425
 4915TIP3    H136160   5.054   2.317   3.038 -0.5064  0.0776 -0.7987
 4915TIP3    H236161   5.117   2.439   3.103  0.4980 -1.1363  0.5755
 4916TIP3   OH236162   5.371   0.318   2.443  0.0703  0.6637 -0.2590
 4916TIP3    H136163   5.308   0.249   2.422  1.2076 -0.3623 -0.4494
 4916TIP3    H236164   5.364   0.330   2.537 -0.9040  1.0842 -0.3737
 4917TIP3   OH236165   1.872   1.911   2.490 -0.2842  0.4418 -0.4457
 4917TIP3    H136166   1.904   1.940   2.404  1.7730  0.8067  0.3774
 4917TIP3    H236167   1.802   1.973   2.512  0.1793  1.2706 -1.2165
 4918TIP3   OH236168   1.129   4.945  17.075  0.0088 -0.0837 -0.2017
 4918TIP3    H136169   1.041   4.966  17.107  0.3578  0.5152  0.3690
 4918TIP3    H236170   1.163   4.881  17.137 -0.9009 -2.1576 -1.7197
 4919TIP3   OH236171   2.313   1.548  12.787  0.7409  0.2588 -0.0389
 4919TIP3    H136172   2.407   1.534  12.788  0.7693  0.3086  2.3235
 4919TIP3    H236173   2.298   1.604  12.711  2.8453  1.5813  0.4534
 4920TIP3   OH236174   4.303   3.952  15.312  0.2269 -0.4838 -0.0597
 4920TIP3    H136175   4.236   3.900  15.267 -0.8234 -0.6507  1.6265
 4920TIP3    H236176   4.341   3.892  15.375  0.6312  0.1587  0.3061
 4921TIP3   OH236177   1.117   2.353  10.779 -0.0948  0.3278  0.0197
 4921TIP3    H136178   1.043   2.297  10.757 -0.2211 -0.3056  1.8480
 4921TIP3    H236179   1.186   2.292  10.805  0.5467  0.9568 -0.1809
 4922TIP3   OH236180   0.047   5.698   0.232  0.4135 -0.1889 -0.4033
 4922TIP3    H136181   0.047   5.658   0.319 -0.9521 -0.3964 -0.4768
 4922TIP3    H236182  -0.045   5.718   0.214  0.8126  1.0126 -1.2785
 4923TIP3   OH236183   5.304   1.330   3.797 -0.0260 -0.7517  1.0851
 4923TIP3    H136184   5.218   1.371   3.786  0.3053 -0.2815  0.1647
 4923TIP3    H236185   5.340   1.369   3.876  0.8134  1.7270 -0.4343
 4924TIP3   OH236186   2.707   5.183  16.075 -0.3361  0.4491 -0.1425
 4924TIP3    H136187   2.785   5.171  16.130 -0.3001 -1.3995 -0.5137
 4924TIP3    H236188   2.677   5.094  16.058 -1.2431  1.0440 -1.8438
 4925TIP3   OH236189   6.738   4.435  17.388  0.3082  0.3478  0.1153
 4925TIP3    H136190   6.784   4.471  17.465  0.2380  1.2925 -0.2742
 4925TIP3    H236191   6.646   4.448  17.408  0.3018  0.9827 -0.3054
 4926TIP3   OH236192   1.882   2.706   1.535 -0.0433  0.7893  0.6548
 4926TIP3    H136193   1.806   2.724   1.590 -0.6624 -1.0605  0.4736
 4926TIP3    H236194   1.927   2.633   1.578 -0.5097 -0.6705 -1.2016
 4927TIP3   OH236195   4.229   0.399  15.038  0.0531  0.0762 -0.5818
 4927TIP3    H136196   4.139   0.372  15.058  0.7216 -1.3940  0.6307
 4927TIP3    H236197   4.245   0.364  14.950 -0.1052 -0.9212 -0.2278
 4928TIP3   OH236198   4.383   5.905  12.180  0.0343  0.3934 -0.2453
 4928TIP3    H136199   4.380   5.816  12.145  1.1384  0.7437 -1.2963
 4928TIP3    H236200   4.330   5.957  12.120 -1.0575  0.3772  0.6685
 4929TIP3   OH236201   4.558   5.113  10.613 -0.0490 -0.1244  0.0533
 4929TIP3    H136202   4.633   5.113  10.671  1.6072 -1.4767 -1.9347
 4929TIP3    H236203   4.541   5.206  10.595  1.2721  0.1955  0.4006
 4930TIP3   OH236204   1.403   4.141  15.345 -0.6669 -0.3348 -0.3353
 4930TIP3    H136205   1.421   4.167  15.255  1.6053 -1.2481 -0.2202
 4930TIP3    H236206   1.467   4.190  15.398 -1.4789 -0.3565  0.7017
 4931TIP3   OH236207   4.511   4.153   0.877  0.2646 -0.0832  0.2369
 4931TIP3    H136208   4.477   4.144   0.966 -0.1831  0.8882  0.1756
 4931TIP3    H236209   4.533   4.064   0.851 -1.4732 -0.6661  0.5850
 4932TIP3   OH236210   1.962   3.153   6.053 -0.5644 -0.2130  0.3480
 4932TIP3    H136211   1.910   3.218   6.007  0.1039  0.2169  0.1952
 4932TIP3    H236212   1.900   3.082   6.072 -0.6080 -0.9552 -2.2389
 4933TIP3   OH236213   5.885   2.510   1.211 -0.2645 -0.7836 -0.0682
 4933TIP3    H136214   5.860   2.430   1.257 -0.0338 -2.3533 -2.4938
 4933TIP3    H236215   5.804   2.562   1.208 -0.7176 -1.4349  0.5492
 4934TIP3   OH236216   3.340   1.838  14.164 -0.2093  0.5325 -0.0281
 4934TIP3    H136217   3.334   1.809  14.255  0.1520 -0.6458 -0.3575
 4934TIP3    H236218   3.427   1.878  14.157  0.0981 -0.1202 -0.0445
 4935TIP3   OH236219   6.112   5.884   0.765 -0.3936 -0.1574  0.1470
 4935TIP3    H136220   6.156   5.961   0.801  1.2123 -0.3647 -1.2139
 4935TIP3    H236221   6.049   5.919   0.703  1.7110  0.1438 -1.9860
 4936TIP3   OH236222   3.457   3.583  11.484  0.2055 -0.2652  0.1686
 4936TIP3    H136223   3.457   3.533  11.565  2.4579 -0.4696  0.0970
 4936TIP3    H236224   3.423   3.669  11.509  0.3305 -0.5029  1.2088
 4937TIP3   OH236225   6.672   5.601  14.559  0.5783 -0.3600 -0.0924
 4937TIP3    H136226   6.705   5.527  14.610  1.8659 -0.6746 -1.3377
 4937TIP3    H236227   6.704   5.678  14.606  1.5159 -0.6387 -0.2718
 4938TIP3   OH236228   2.716   0.974   3.853  0.1186 -0.9245 -0.3233
 4938TIP3    H136229   2.793   0.925   3.882  0.2626 -1.2354 -1.2083
 4938TIP3    H236230   2.653   0.965   3.925  0.5036 -1.5737 -0.0613
 4939TIP3   OH236231   5.578   1.178  13.852  0.6831 -0.3418 -0.0779
 4939TIP3    H136232   5.671   1.159  13.844  0.7581 -0.6235  1.3046
 4939TIP3    H236233   5.544   1.109  13.909 -0.3644 -0.1858 -0.4900
 4940TIP3   OH236234   6.394   5.298  11.951 -0.3921  1.1502 -0.4488
 4940TIP3    H136235   6.466   5.361  11.950  1.0270 -0.3540  0.7617
 4940TIP3    H236236   6.355   5.308  12.038 -0.7603  1.0007 -0.5960
 4941TIP3   OH236237   2.905   0.515  12.090 -0.1996 -0.0717  0.1960
 4941TIP3    H136238   2.876   0.557  12.009 -1.3223  0.2958  0.7623
 4941TIP3    H236239   2.852   0.435  12.095  1.6010 -1.3809 -0.6478
 4942TIP3   OH236240   0.585   0.509   0.947  0.0677  0.0063  0.1079
 4942TIP3    H136241   0.582   0.473   1.035 -0.1760 -0.8346 -0.2347
 4942TIP3    H236242   0.646   0.452   0.900 -0.0105  0.2832 -0.3350
 4943TIP3   OH236243   0.850   4.331   0.319  0.1783  0.6072 -0.0088
 4943TIP3    H136244   0.760   4.362   0.332 -0.2416  0.1025 -1.4803
 4943TIP3    H236245   0.840   4.254   0.262  1.5806  0.8487 -0.6149
 4944TIP3   OH236246   1.185   2.190  14.812  0.0403  0.0638  0.0329
 4944TIP3    H136247   1.098   2.188  14.774 -0.1370  0.0718  0.4309
 4944TIP3    H236248   1.191   2.110  14.864 -0.3029  0.8015  1.2406
 4945TIP3   OH236249   5.404   6.637  12.460 -0.1677 -0.6621  0.0217
 4945TIP3    H136250   5.384   6.631  12.553  0.7096 -1.3162  0.1669
 4945TIP3    H236251   5.465   6.566  12.443  2.7218  1.6730 -0.2391
 4946TIP3   OH236252   1.507   2.986  15.172  0.7120 -0.0829 -0.3765
 4946TIP3    H136253   1.477   3.067  15.130 -1.0622  0.2586  1.3945
 4946TIP3    H236254   1.437   2.964  15.234  2.2585 -1.6713  0.8968
 4947TIP3   OH236255   1.391   6.280  16.925  0.1625 -0.1003  0.3134
 4947TIP3    H136256   1.465   6.272  16.864 -1.3397  0.8912 -1.7249
 4947TIP3    H236257   1.342   6.199  16.913  0.1666 -0.1573  0.6649
 4948TIP3   OH236258   5.096   0.417  13.286  0.3946 -0.1672 -0.3751
 4948TIP3    H136259   5.181   0.448  13.315 -0.2249  1.0474  0.2016
 4948TIP3    H236260   5.076   0.343  13.344  0.7804 -0.0644 -0.1117
 4949TIP3   OH236261   2.488   4.193  16.282  0.0075  0.4797 -0.5539
 4949TIP3    H136262   2.555   4.242  16.234  0.6474 -2.2147 -2.6682
 4949TIP3    H236263   2.523   4.182  16.370  1.4571  0.7773 -1.0754
 4950TIP3   OH236264   5.489   4.933   0.023  0.1587  0.2054 -0.3672
 4950TIP3    H136265   5.541   5.011   0.004 -1.0484  0.9365 -0.7369
 4950TIP3    H236266   5.483   4.887  -0.061 -1.3571  1.1005 -0.7755
 4951TIP3   OH236267   0.707   0.077  14.384  0.2795 -0.1025 -0.2494
 4951TIP3    H136268   0.739   0.066  14.295  0.2804  0.8757 -0.3831
 4951TIP3    H236269   0.686   0.170  14.391  1.7262  0.1804  1.2213
 4952TIP3   OH236270   1.589   0.731  12.459  0.4839  0.0477 -0.3869
 4952TIP3    H136271   1.582   0.791  12.532 -0.1400 -0.1154 -0.3054
 4952TIP3    H236272   1.649   0.663  12.489  0.5383  0.1913 -0.1711
 4953TIP3   OH236273   2.298   3.169   1.052 -0.4393  0.2514 -0.0083
 4953TIP3    H136274   2.382   3.189   1.092 -0.2895 -0.6028  0.1093
 4953TIP3    H236275   2.252   3.115   1.116 -1.8190  2.1520  0.7064
 4954TIP3   OH236276   3.976   6.074  17.137  0.2413 -0.0334  0.3048
 4954TIP3    H136277   3.932   6.158  17.151 -0.4991 -0.0972 -1.3321
 4954TIP3    H236278   4.069   6.096  17.132  0.2027  0.4453  1.4552
 4955TIP3   OH236279   5.587   4.246  15.765 -0.1479 -0.2932  0.1607
 4955TIP3    H136280   5.563   4.316  15.825 -0.7471 -0.4213  0.0752
 4955TIP3    H236281   5.581   4.286  15.678 -1.8734 -0.8231  0.0143
 4956TIP3   OH236282   5.152   2.672   2.200  0.1508 -0.0754  0.1591
 4956TIP3    H136283   5.185   2.596   2.249  1.3007 -0.5002 -1.1940
 4956TIP3    H236284   5.138   2.638   2.112 -3.6350  0.1776  0.4795
 4957TIP3   OH236285   4.262   4.140  15.084 -0.2684 -0.4654 -0.1260
 4957TIP3    H136286   4.297   4.119  15.170  1.6427  0.9127 -0.4906
 4957TIP3    H236287   4.197   4.208  15.101  2.7569  2.6898  0.1125
 4958TIP3   OH236288   4.060   5.430  13.462  0.1304 -0.0214  0.4216
 4958TIP3    H136289   4.047   5.475  13.546  2.2792 -0.2883  0.9460
 4958TIP3    H236290   4.124   5.484  13.416  0.3077 -0.8419 -0.3041
 4959TIP3   OH236291   3.703   6.351   2.241 -0.4554  0.7844  0.1427
 4959TIP3    H136292   3.656   6.340   2.324  1.0482  1.6111  1.1427
 4959TIP3    H236293   3.721   6.445   2.236  0.4020  0.5908 -0.5796
 4960TIP3   OH236294   1.248   6.295  11.739  0.0883 -0.7138  0.3174
 4960TIP3    H136295   1.191   6.328  11.669  0.0957 -0.3560  0.4736
 4960TIP3    H236296   1.206   6.214  11.768  0.1121 -0.8900 -0.1334
 4961TIP3   OH236297   6.725   3.516  16.644 -0.5725 -0.2752  0.0652
 4961TIP3    H136298   6.802   3.571  16.658 -0.1887 -0.8111  0.0904
 4961TIP3    H236299   6.689   3.501  16.731 -1.7079  1.3605 -0.0647
 4962TIP3   OH236300   2.204   0.901   0.251  0.5809 -0.5844  0.0246
 4962TIP3    H136301   2.179   0.809   0.247  1.1905 -0.9762  2.8811
 4962TIP3    H236302   2.297   0.902   0.229  0.9069 -0.8962  1.2920
 4963TIP3   OH236303   6.163   5.861  13.403 -0.1806  0.0924  0.1464
 4963TIP3    H136304   6.176   5.954  13.385 -1.5181  0.6639  1.8482
 4963TIP3    H236305   6.069   5.852  13.419 -0.2629 -1.7839 -1.0451
 4964TIP3   OH236306   4.494   0.876  14.233 -0.3675  0.2421 -0.1036
 4964TIP3    H136307   4.507   0.905  14.323  1.1191 -1.4967  0.3104
 4964TIP3    H236308   4.422   0.812  14.239  0.1162 -0.3068 -0.0212
 4965TIP3   OH236309   5.013   3.317   0.002 -0.8232 -0.3005 -0.3327
 4965TIP3    H136310   4.937   3.374  -0.009 -0.4326  0.2122 -0.3705
 4965TIP3    H236311   5.004   3.282   0.091 -1.1788 -0.3627 -0.3885
 4966TIP3   OH236312   5.215   0.574   3.739 -0.1586  0.2721  0.4288
 4966TIP3    H136313   5.285   0.519   3.775 -0.8616 -0.6534  0.4168
 4966TIP3    H236314   5.225   0.658   3.784  2.2989  0.9188 -1.1074
 4967TIP3   OH236315   1.607   3.470   4.534 -0.0752 -0.1496 -0.0042
 4967TIP3    H136316   1.670   3.524   4.582 -1.0137  0.0734  1.0253
 4967TIP3    H236317   1.640   3.381   4.544  1.2731  0.1357 -1.3879
 4968TIP3   OH236318   2.810   2.044   3.809 -0.2902  0.2643 -0.3013
 4968TIP3    H136319   2.881   2.054   3.873 -1.5187 -0.0830  1.1652
 4968TIP3    H236320   2.779   2.132   3.793 -0.0890  0.3354 -0.3081
 4969TIP3   OH236321   1.333   0.179   5.135 -0.2984 -0.1835 -0.6135
 4969TIP3    H136322   1.241   0.200   5.153 -0.2503 -1.4770  1.3592
 4969TIP3    H236323   1.356   0.112   5.199  1.8977 -0.2609 -1.3975
 4970TIP3   OH236324   3.065   2.632  13.187  0.4237 -0.1429  0.3019
 4970TIP3    H136325   3.123   2.563  13.220 -0.8591 -0.6998  1.5370
 4970TIP3    H236326   3.038   2.602  13.101  1.0612 -0.4310  0.1960
 4971TIP3   OH236327   6.449   5.765  13.789 -0.2414  0.6577 -0.2862
 4971TIP3    H136328   6.471   5.725  13.873 -0.2469 -1.2597 -1.1468
 4971TIP3    H236329   6.508   5.840  13.782  0.8998 -0.1149  0.7234
 4972TIP3   OH236330   0.857   2.769  16.418 -0.0537 -0.1511  0.3610
 4972TIP3    H136331   0.880   2.697  16.360 -1.4628 -1.8967  1.8241
 4972TIP3    H236332   0.897   2.747  16.502  1.9270  2.2954  0.1710
 4973TIP3   OH236333   1.202   2.208   5.067  0.0762 -0.3880 -0.0976
 4973TIP3    H136334   1.240   2.264   5.134 -0.4266 -1.2571  0.9448
 4973TIP3    H236335   1.161   2.268   5.005 -0.8202  0.3831  1.2134
 4974TIP3   OH236336   2.311   3.494   1.191  0.2307  0.0402 -0.2165
 4974TIP3    H136337   2.406   3.483   1.181  0.1634 -1.1981  0.3283
 4974TIP3    H236338   2.286   3.430   1.257 -0.9664  0.4940 -0.2041
 4975TIP3   OH236339   6.363   1.027  14.162  0.2381 -0.2270  0.3703
 4975TIP3    H136340   6.279   1.034  14.115  0.8875 -1.7213 -1.1207
 4975TIP3    H236341   6.424   1.079  14.110  0.3673  0.4773  1.1983
 4976TIP3   OH236342   4.593   3.817   1.715  0.1456 -0.3387  0.3870
 4976TIP3    H136343   4.625   3.739   1.761 -2.2684 -0.6341  1.7741
 4976TIP3    H236344   4.658   3.834   1.647  1.5999 -2.5614  1.1191
 4977TIP3   OH236345   2.457   0.245   6.526  0.3204 -0.4649 -0.0521
 4977TIP3    H136346   2.518   0.174   6.543  2.3654  1.1343 -0.3578
 4977TIP3    H236347   2.486   0.316   6.584 -1.4051  0.2935 -0.0381
 4978TIP3   OH236348   3.646   4.835  11.246  0.6306 -0.0227 -0.2541
 4978TIP3    H136349   3.630   4.842  11.152  1.6694  0.5816 -0.4044
 4978TIP3    H236350   3.560   4.844  11.286  0.3977  1.8406 -1.0553
 4979TIP3   OH236351   2.563   4.268   2.454  0.1295 -0.4084 -0.0299
 4979TIP3    H136352   2.575   4.362   2.467  0.2509 -0.3042 -0.8649
 4979TIP3    H236353   2.471   4.252   2.479 -0.0260  0.0135 -0.3313
 4980TIP3   OH236354   2.227   3.084  11.286 -0.2209 -0.2155  0.0426
 4980TIP3    H136355   2.188   3.171  11.281 -0.4325 -0.3147 -0.0568
 4980TIP3    H236356   2.169   3.035  11.344  0.7151  0.1355  1.3239
 4981TIP3   OH236357   3.622   2.642   0.527  0.4799 -0.0205  0.4087
 4981TIP3    H136358   3.593   2.632   0.437 -0.1655 -0.5272  0.6598
 4981TIP3    H236359   3.667   2.560   0.547 -0.0127 -0.2172  0.7594
 4982TIP3   OH236360   0.892   0.502   5.408 -0.0373  0.1742  0.2621
 4982TIP3    H136361   0.968   0.555   5.431 -1.3048  1.2335  2.4246
 4982TIP3    H236362   0.872   0.454   5.488 -0.9763 -0.9300 -0.6108
 4983TIP3   OH236363   2.372   4.379  12.516 -0.2426  0.1159 -0.3142
 4983TIP3    H136364   2.403   4.292  12.489  0.4361  0.6394 -1.2987
 4983TIP3    H236365   2.453   4.428  12.532 -0.5738  1.1180 -1.6147
 4984TIP3   OH236366   3.369   0.696  13.020  0.1769  1.0066 -0.2109
 4984TIP3    H136367   3.335   0.670  13.105 -0.6675  1.4606 -0.4014
 4984TIP3    H236368   3.382   0.613  12.974 -0.5244  0.8067 -0.0687
 4985TIP3   OH236369   3.185   5.820  13.114 -0.4109  0.5760  0.2362
 4985TIP3    H136370   3.241   5.843  13.040  1.4596  0.0287  1.4216
 4985TIP3    H236371   3.100   5.860  13.093 -0.3294 -0.5733 -2.7431
 4986TIP3   OH236372   4.788   5.323   4.625  0.3053 -0.0882 -0.6385
 4986TIP3    H136373   4.862   5.287   4.674  0.4646  1.0476 -0.0087
 4986TIP3    H236374   4.722   5.254   4.628  1.1899 -0.9675 -0.8867
 4987TIP3   OH236375   1.046   4.674   2.300 -1.0282  0.1577  0.1890
 4987TIP3    H136376   0.961   4.633   2.286  0.0799 -1.2805 -3.4143
 4987TIP3    H236377   1.050   4.745   2.235  0.8047 -0.3564 -0.3228
 4988TIP3   OH236378   6.119   1.963   0.724  0.0583  0.3574  0.0115
 4988TIP3    H136379   6.083   1.978   0.811  0.3777 -2.0274  0.6094
 4988TIP3    H236380   6.070   1.887   0.690 -0.4189  1.5286 -2.1234
 4989TIP3   OH236381   1.702   5.789  14.988  0.3351  0.2937  0.1500
 4989TIP3    H136382   1.701   5.884  15.003 -1.0730  0.5414 -1.1237
 4989TIP3    H236383   1.651   5.778  14.907  1.9379 -1.4047 -0.6917
 4990TIP3   OH236384   6.058   5.447   2.530 -0.6479  0.0405  0.1204
 4990TIP3    H136385   6.000   5.502   2.477  0.2006  0.7805 -0.0710
 4990TIP3    H236386   6.107   5.510   2.584  1.8162 -0.2949 -1.5538
 4991TIP3   OH236387   5.645   4.577   4.272 -0.7440  0.1524  0.0106
 4991TIP3    H136388   5.703   4.531   4.333  1.2976 -0.3548 -2.1702
 4991TIP3    H236389   5.566   4.524   4.270 -0.5313 -0.2790  1.5278
 4992TIP3   OH236390   1.636   1.351  13.690 -0.3590  0.1314  0.1684
 4992TIP3    H136391   1.666   1.439  13.710  2.3437 -0.7130  0.1297
 4992TIP3    H236392   1.569   1.332  13.757 -0.5628  1.9541  0.5170
 4993TIP3   OH236393   1.690   3.790  15.618 -0.0919  0.1368 -0.3971
 4993TIP3    H136394   1.652   3.867  15.660  1.0938  0.2699  0.4610
 4993TIP3    H236395   1.616   3.730  15.608 -0.6911  0.7084  0.4901
 4994TIP3   OH236396   5.266   0.024  16.355 -0.3576  0.1321 -0.4725
 4994TIP3    H136397   5.323   0.077  16.411 -0.1565 -1.5612  0.9894
 4994TIP3    H236398   5.179   0.034  16.394 -0.3885 -0.2804 -0.4327
 4995TIP3   OH236399   0.310   1.278  14.900  0.0643  0.1821 -0.3624
 4995TIP3    H136400   0.353   1.269  14.815 -1.6540 -0.0898 -1.2516
 4995TIP3    H236401   0.380   1.302  14.960  1.5262 -0.7303 -1.6297
 4996TIP3   OH236402   1.646   2.144  17.176 -0.0771  0.3766  0.0303
 4996TIP3    H136403   1.672   2.060  17.214 -2.0072  0.2254  1.1488
 4996TIP3    H236404   1.724   2.199  17.184 -0.0266  0.0297  3.3482
 4997TIP3   OH236405   3.327   6.231  12.614 -0.1318  0.8730  0.3362
 4997TIP3    H136406   3.371   6.296  12.668  0.3133  1.3923 -0.6329
 4997TIP3    H236407   3.291   6.280  12.540  0.5974 -0.0274 -0.6476
 4998TIP3   OH236408   5.670   6.117   0.460 -0.0086 -0.1774 -0.0547
 4998TIP3    H136409   5.719   6.036   0.470  1.0983  0.3905 -0.6230
 4998TIP3    H236410   5.703   6.155   0.379 -0.6263  0.7658  0.1129
 4999TIP3   OH236411   1.498   5.308  12.979  0.4086 -0.0286  0.0985
 4999TIP3    H136412   1.511   5.398  13.010  0.9482 -0.1364  0.1771
 4999TIP3    H236413   1.406   5.307  12.950  0.2954  0.4478  0.4217
 5000TIP3   OH236414   6.283   2.397   6.212  0.1526  0.0258 -1.2618
 5000TIP3    H136415   6.372   2.433   6.212  0.2968 -0.3292 -1.1764
 5000TIP3    H236416   6.295   2.303   6.206 -0.2119 -0.0389 -1.0091
 5001TIP3   OH236417   3.333   5.161   3.419  0.1977  0.2996  0.7656
 5001TIP3    H136418   3.308   5.100   3.349 -0.0409  0.6675  0.5221
 5001TIP3    H236419   3.408   5.208   3.383 -2.3061  3.4214 -1.0507
 5002TIP3   OH236420   3.268   6.364   2.503 -0.1220 -0.2769  0.3418
 5002TIP3    H136421   3.230   6.443   2.542 -1.2414 -0.4425 -0.3755
 5002TIP3    H236422   3.287   6.307   2.578 -3.8619 -1.3223  0.6854
 5003TIP3   OH236423   3.901   3.622   4.151  0.1362  0.2601 -0.3806
 5003TIP3    H136424   3.892   3.530   4.174  0.8201  0.5604  1.2648
 5003TIP3    H236425   3.826   3.641   4.094  0.0866 -1.3320 -0.8846
 5004TIP3   OH236426   1.714   2.434   3.429 -0.2230  0.0805 -0.2518
 5004TIP3    H136427   1.786   2.464   3.373 -0.5669  0.8354 -0.3049
 5004TIP3    H236428   1.723   2.485   3.509 -1.0027  0.5555 -0.4613
 5005TIP3   OH236429   2.384   1.432  12.526  0.4627  0.6305  0.1777
 5005TIP3    H136430   2.469   1.460  12.489 -0.2014  3.0521  0.3029
 5005TIP3    H236431   2.322   1.499  12.496 -1.0745 -0.1163  1.5474
 5006TIP3   OH236432   0.361   4.185  16.416 -0.2145 -0.2281  0.1872
 5006TIP3    H136433   0.410   4.142  16.487  1.8409  0.8389 -0.5031
 5006TIP3    H236434   0.361   4.120  16.345 -0.8363 -0.6728  0.5842
 5007TIP3   OH236435   4.458   6.134   5.752  0.3594  0.0797  0.1151
 5007TIP3    H136436   4.369   6.119   5.782  0.3750 -0.2016  0.0236
 5007TIP3    H236437   4.511   6.072   5.802  1.0012  2.5698  2.7665
 5008TIP3   OH236438   5.489   6.599   4.836 -0.5083  0.3053 -0.3837
 5008TIP3    H136439   5.513   6.506   4.829  0.7661  0.5106  0.8933
 5008TIP3    H236440   5.569   6.646   4.811 -0.8508  1.0415 -0.1129
 5009TIP3   OH236441   0.810   1.938   2.633 -0.0384 -0.1266 -0.1077
 5009TIP3    H136442   0.801   2.020   2.584  1.2405 -0.2620 -0.6314
 5009TIP3    H236443   0.806   1.964   2.725 -2.3394  0.1555 -0.2240
 5010TIP3   OH236444   2.433   3.872  13.466 -0.0979  0.2210 -0.1966
 5010TIP3    H136445   2.493   3.804  13.496 -0.7632  0.3588  1.5902
 5010TIP3    H236446   2.443   3.873  13.371  2.1123 -0.3024 -0.0206
 5011TIP3   OH236447   4.895   6.181   5.602 -0.2767 -0.0366 -0.2139
 5011TIP3    H136448   4.975   6.207   5.557  1.4116 -1.2483  1.8812
 5011TIP3    H236449   4.874   6.255   5.659  0.2498 -0.2850  0.3188
 5012TIP3   OH236450   5.652   2.880  15.220 -0.0631  0.6414 -0.4997
 5012TIP3    H136451   5.621   2.878  15.311  0.0221  0.4415 -0.4749
 5012TIP3    H236452   5.594   2.821  15.173  0.8630 -0.4881 -0.2662
 5013TIP3   OH236453   1.344   6.720  11.631 -0.8026 -0.1160  0.3938
 5013TIP3    H136454   1.291   6.702  11.708  0.8815 -1.1007  1.3954
 5013TIP3    H236455   1.427   6.676  11.649  0.9427  2.5880 -0.3939
 5014TIP3   OH236456   4.988   5.922   3.856 -0.6180 -0.2040  0.4280
 5014TIP3    H136457   4.970   5.856   3.923 -1.0753 -0.0922  0.4201
 5014TIP3    H236458   4.958   5.883   3.774 -1.6841  0.3384  0.5446
 5015TIP3   OH236459   1.440   2.107  12.562  0.0614  0.3469  0.5518
 5015TIP3    H136460   1.494   2.183  12.540 -1.5564  1.4197  0.1584
 5015TIP3    H236461   1.406   2.078  12.478  0.1302 -0.4159  0.7827
 5016TIP3   OH236462   0.569   2.021   4.493 -0.8865  0.5281  0.3553
 5016TIP3    H136463   0.636   1.955   4.478 -1.9235 -0.8443  1.4995
 5016TIP3    H236464   0.526   2.032   4.408  0.1096  0.6855 -0.1431
 5017TIP3   OH236465   1.105   2.862   2.736  0.5205 -0.1356 -0.1366
 5017TIP3    H136466   1.068   2.911   2.809  0.3729 -0.1478 -0.2030
 5017TIP3    H236467   1.029   2.833   2.685  0.6456  0.5664 -0.7461
 5018TIP3   OH236468   0.852   1.938  11.930 -0.0193  0.0202  0.0987
 5018TIP3    H136469   0.845   1.879  11.855  2.8890  0.4921 -0.6532
 5018TIP3    H236470   0.877   2.022  11.893 -1.1868  0.9983  1.4106
 5019TIP3   OH236471   6.018   4.307  10.228 -0.0386  0.1985  0.3667
 5019TIP3    H136472   6.021   4.230  10.284  1.2556  0.2574  0.4043
 5019TIP3    H236473   6.109   4.328  10.210 -0.3787 -0.6092 -2.8699
 5020TIP3   OH236474   0.926   2.294  14.713 -0.5515  0.1935 -0.1590
 5020TIP3    H136475   0.849   2.247  14.682  1.0365 -0.0379 -4.5245
 5020TIP3    H236476   0.949   2.352  14.641  2.7300  1.0567  1.3832
 5021TIP3   OH236477   5.457   0.020   5.389  0.3983 -0.3653  0.1906
 5021TIP3    H136478   5.548   0.021   5.419  0.4346 -0.6364  0.0935
 5021TIP3    H236479   5.457  -0.037   5.313  0.4176  0.8044 -0.7160
 5022TIP3   OH236480   0.307   4.609  15.584 -0.2897  0.1583 -0.2073
 5022TIP3    H136481   0.373   4.675  15.562 -1.4595  2.3570  2.2824
 5022TIP3    H236482   0.327   4.585  15.674 -1.8500 -0.4193  0.0142
 5023TIP3   OH236483   5.012   2.616   5.959 -0.2846 -0.0761 -0.0481
 5023TIP3    H136484   4.995   2.546   6.021  0.7564  0.0901  0.4338
 5023TIP3    H236485   5.079   2.582   5.901  0.7196  0.7410  0.5998
 5024TIP3   OH236486   6.067   4.332   1.108 -0.1448 -0.3843  0.8728
 5024TIP3    H136487   6.075   4.415   1.155 -0.7934 -0.0828  0.4725
 5024TIP3    H236488   6.064   4.265   1.177 -2.5904  0.1575  1.4024
 5025TIP3   OH236489   0.905   3.267  12.263 -0.0105  0.7613  0.0526
 5025TIP3    H136490   0.978   3.205  12.267 -0.7281 -0.1550 -0.5307
 5025TIP3    H236491   0.864   3.260  12.349  0.0906  0.6381  0.0912
 5026TIP3   OH236492   4.436   1.549   1.323  0.0998  0.2504  0.0346
 5026TIP3    H136493   4.523   1.514   1.301  0.2459  1.1963 -0.9892
 5026TIP3    H236494   4.389   1.551   1.240  0.1825  2.6653 -0.0263
 5027TIP3   OH236495   1.709   0.392  13.686  0.6178  0.1745  0.4966
 5027TIP3    H136496   1.648   0.321  13.667  0.3267  0.4822  0.2725
 5027TIP3    H236497   1.661   0.472  13.662  0.0602  0.6248  2.9058
 5028TIP3   OH236498   3.587   2.242   0.047  0.2985 -0.1853 -0.3685
 5028TIP3    H136499   3.653   2.275  -0.014  1.0615 -0.9739  0.0115
 5028TIP3    H236500   3.620   2.157   0.075 -1.0893 -0.8080 -0.4944
 5029TIP3   OH236501   1.687   0.527  13.286  0.2572 -0.3978  0.2081
 5029TIP3    H136502   1.715   0.587  13.356  1.4557  0.2014 -0.7403
 5029TIP3    H236503   1.664   0.585  13.214  0.6321 -1.0500 -0.4437
 5030TIP3   OH236504   2.406   4.913   1.564 -0.4481 -0.0688 -0.2906
 5030TIP3    H136505   2.352   4.980   1.606 -0.5379  0.4865 -1.2509
 5030TIP3    H236506   2.496   4.936   1.588 -0.4243  0.8001 -1.1272
 5031TIP3   OH236507   0.180   2.889   4.916 -0.5579 -0.0171 -0.0147
 5031TIP3    H136508   0.124   2.831   4.968 -3.7603  2.4195 -0.4354
 5031TIP3    H236509   0.192   2.843   4.833 -1.3830 -0.9284  0.3519
 5032TIP3   OH236510   2.637   5.562  13.873  0.0829  0.9817 -0.2447
 5032TIP3    H136511   2.643   5.497  13.803  0.7051  1.9463 -1.1207
 5032TIP3    H236512   2.647   5.512  13.954 -1.6504 -0.2944 -0.7646
 5033TIP3   OH236513   0.069   6.502   5.920  0.2263 -0.0463 -0.4716
 5033TIP3    H136514   0.154   6.540   5.945 -0.2882  0.8446 -0.0142
 5033TIP3    H236515   0.079   6.408   5.936  0.2283  0.3396  2.3493
 5034TIP3   OH236516   0.419   3.714  15.578  0.0563  0.7069  0.6031
 5034TIP3    H136517   0.389   3.629  15.547  0.0680  0.7167  0.5642
 5034TIP3    H236518   0.399   3.774  15.506 -0.5671  0.8583  0.9003
 5035TIP3   OH236519   0.739   5.088   3.676  0.1694 -0.1444  0.3337
 5035TIP3    H136520   0.797   5.020   3.709  1.0480 -1.0284 -2.7504
 5035TIP3    H236521   0.792   5.168   3.678 -0.6517  0.4587  3.3210
 5036TIP3   OH236522   0.398   2.137   2.511  0.2016 -0.2191 -0.2185
 5036TIP3    H136523   0.385   2.192   2.434 -0.1329  0.5715  0.3961
 5036TIP3    H236524   0.386   2.195   2.585  1.3014 -0.8010  0.4423
 5037TIP3   OH236525   5.845   1.959   3.850 -0.0895 -0.2895  0.0266
 5037TIP3    H136526   5.824   2.038   3.801 -0.8241  0.3086  1.2653
 5037TIP3    H236527   5.939   1.948   3.838 -0.1820  0.0406 -1.1905
 5038TIP3   OH236528   4.329   2.796   5.870  0.2321 -0.7337 -0.2191
 5038TIP3    H136529   4.395   2.826   5.931  0.1073 -1.4761  0.2912
 5038TIP3    H236530   4.364   2.819   5.784  0.9511 -0.7326  0.0649
 5039TIP3   OH236531   0.788   6.092  12.872  0.0857  0.5714  0.3884
 5039TIP3    H136532   0.777   6.009  12.917 -0.1801  0.7568  0.6678
 5039TIP3    H236533   0.700   6.129  12.867  0.1404  0.6508 -0.1008
 5040TIP3   OH236534   2.893   4.731  17.016 -0.1402 -0.2392 -0.7017
 5040TIP3    H136535   2.964   4.771  17.067  0.1202 -0.0316 -1.2270
 5040TIP3    H236536   2.935   4.698  16.937 -0.5431 -0.5801 -0.7797
 5041TIP3   OH236537   5.632   0.867  16.950  0.2310  0.7505 -0.5006
 5041TIP3    H136538   5.567   0.803  16.922  0.9324  0.1537 -0.8058
 5041TIP3    H236539   5.586   0.923  17.012 -0.2959 -0.2832  0.0648
 5042TIP3   OH236540   2.549   5.812  12.298  0.2395  0.3551  0.0335
 5042TIP3    H136541   2.505   5.786  12.217  0.7022  1.1825 -0.5029
 5042TIP3    H236542   2.486   5.794  12.368 -0.6824  0.8947 -0.6438
 5043TIP3   OH236543   3.872   2.664   1.976 -0.1174 -0.5135 -0.7474
 5043TIP3    H136544   3.841   2.735   1.921  2.0090  0.0803 -1.2681
 5043TIP3    H236545   3.848   2.690   2.065 -0.9483 -0.0428 -1.0964
 5044TIP3   OH236546   2.894   2.677   4.366 -0.4326  0.0135 -0.5057
 5044TIP3    H136547   2.814   2.727   4.350  0.4431  1.2601 -1.1659
 5044TIP3    H236548   2.870   2.587   4.347 -2.1266  0.1003  0.9646
 5045TIP3   OH236549   4.775   3.685   3.651 -0.5632  0.2656 -0.2664
 5045TIP3    H136550   4.850   3.637   3.614  0.3265  1.8884 -0.6747
 5045TIP3    H236551   4.766   3.761   3.594 -2.4479  0.1893 -0.1124
 5046TIP3   OH236552   3.851   5.606   1.068 -0.1377 -0.0115  0.5555
 5046TIP3    H136553   3.757   5.624   1.063 -0.3520 -1.3864 -2.2312
 5046TIP3    H236554   3.888   5.653   0.993  1.3579  0.1629  1.3783
 5047TIP3   OH236555   2.500   2.618   5.578  0.0116  0.0154 -0.7441
 5047TIP3    H136556   2.485   2.582   5.665  3.1227  2.9824  1.2944
 5047TIP3    H236557   2.548   2.549   5.532  0.0127 -0.9300  0.5970
 5048TIP3   OH236558   5.691   1.452  12.828  0.3225 -0.1077  0.0013
 5048TIP3    H136559   5.745   1.498  12.763  1.8414  0.0330  1.3079
 5048TIP3    H236560   5.699   1.504  12.908  1.6476 -2.2699  1.3698
 5049TIP3   OH236561   6.671   0.097  12.681  0.5742 -0.2224 -0.2197
 5049TIP3    H136562   6.607   0.166  12.701  2.4071  1.2250  0.9243
 5049TIP3    H236563   6.639   0.021  12.730 -0.1458  0.5320  0.5204
 5050TIP3   OH236564   5.387   3.418   2.594  0.5310 -0.2702 -0.3450
 5050TIP3    H136565   5.334   3.339   2.582 -1.2357  0.9110 -0.7230
 5050TIP3    H236566   5.371   3.470   2.515 -0.0335  1.3711  0.7709
 5051TIP3   OH236567   1.189   2.147  12.671  0.2314 -0.2856 -0.4716
 5051TIP3    H136568   1.280   2.178  12.671 -0.6982  3.1008 -2.8805
 5051TIP3    H236569   1.190   2.071  12.612  1.4002  0.2063 -1.1354
 5052TIP3   OH236570   2.529   2.165  14.425 -0.0132  0.1746 -0.4173
 5052TIP3    H136571   2.559   2.075  14.417 -1.8896 -0.5667  0.3592
 5052TIP3    H236572   2.573   2.198  14.504  0.7095 -0.0285 -0.7269
 5053TIP3   OH236573   3.089   4.065  13.306  0.2364  0.9328 -0.3993
 5053TIP3    H136574   3.169   4.021  13.278 -1.0195 -2.0963  0.3274
 5053TIP3    H236575   3.097   4.070  13.401 -0.3590  0.7700 -0.3386
 5054TIP3   OH236576   5.420   6.364   0.215  0.6973 -0.4910  0.5533
 5054TIP3    H136577   5.467   6.287   0.183  0.1936  0.0708 -1.6764
 5054TIP3    H236578   5.481   6.437   0.203  0.2064 -0.1450  0.1164
 5055TIP3   OH236579   0.219   0.382  11.208 -0.2950 -0.7658 -0.0414
 5055TIP3    H136580   0.159   0.439  11.160  1.0959 -0.5401 -1.6444
 5055TIP3    H236581   0.257   0.438  11.276 -0.1325 -0.2213 -0.5719
 5056TIP3   OH236582   6.515   3.185   5.439  0.8009  0.0780  0.1085
 5056TIP3    H136583   6.469   3.112   5.397  0.6292  1.0716 -1.4731
 5056TIP3    H236584   6.444   3.239   5.476  0.9692 -1.1556  2.4063
 5057TIP3   OH236585   4.752   1.525  11.449 -0.4616 -0.6091  0.1263
 5057TIP3    H136586   4.731   1.434  11.468 -0.9073 -0.9380 -1.7538
 5057TIP3    H236587   4.760   1.566  11.535 -0.8159 -2.2835  1.0038
 5058TIP3   OH236588   1.676   4.921   1.946  0.1990 -0.2125 -0.0355
 5058TIP3    H136589   1.728   4.841   1.943 -1.0643 -1.1592  1.6580
 5058TIP3    H236590   1.659   4.935   2.039 -0.5463  1.4071 -0.3827
 5059TIP3   OH236591   4.422   5.624  14.316  0.0287  0.4337 -0.2170
 5059TIP3    H136592   4.456   5.580  14.238  0.4330  0.1871  0.0912
 5059TIP3    H236593   4.440   5.563  14.388  0.3562  0.9772  0.1776
 5060TIP3   OH236594   2.056   0.930   0.483  0.2400  0.3744 -0.1685
 5060TIP3    H136595   2.094   0.882   0.410  1.0796 -3.0226  2.2623
 5060TIP3    H236596   1.965   0.945   0.457 -0.2126 -2.9967 -1.0391
 5061TIP3   OH236597   5.695   6.481   4.297  0.1326  0.2820 -0.2172
 5061TIP3    H136598   5.782   6.520   4.289  0.2626  0.3726  1.3701
 5061TIP3    H236599   5.680   6.475   4.391 -2.4214  2.1679 -0.4134
 5062TIP3   OH236600   6.433   4.530  15.633 -0.2152  0.5239 -0.0613
 5062TIP3    H136601   6.513   4.478  15.644  0.2505  0.9133 -1.4365
 5062TIP3    H236602   6.393   4.531  15.720 -0.1776 -1.9954  0.0567
 5063TIP3   OH236603   3.234   2.702  15.556 -0.2040 -0.2726  0.4068
 5063TIP3    H136604   3.166   2.683  15.492 -1.6939  1.1086  1.4862
 5063TIP3    H236605   3.188   2.747  15.628  1.8960  1.1111  0.9999
 5064TIP3   OH236606   3.682   0.790  16.923  0.0734  0.3260 -0.0935
 5064TIP3    H136607   3.706   0.737  16.846  3.8542 -2.2275  2.5026
 5064TIP3    H236608   3.609   0.743  16.962  0.3484 -0.3017 -0.3228
 5065TIP3   OH236609   6.560   6.468   1.427  0.2254  0.3023  0.4662
 5065TIP3    H136610   6.473   6.467   1.387  0.2530 -0.8528  0.4067
 5065TIP3    H236611   6.551   6.526   1.502  0.3273  3.0649 -1.5086
 5066TIP3   OH236612   6.637   1.420   5.437  0.2807 -0.1686 -0.3351
 5066TIP3    H136613   6.681   1.468   5.366 -1.7464  2.0059 -0.2785
 5066TIP3    H236614   6.658   1.470   5.516 -3.1304  1.8162 -0.4807
 5067TIP3   OH236615   4.229   5.325  17.038  0.6893 -0.6796  0.8127
 5067TIP3    H136616   4.224   5.415  17.005  3.6334 -0.0396  1.8070
 5067TIP3    H236617   4.173   5.326  17.116  0.7687  0.3336  0.8738
 5068TIP3   OH236618   6.201   2.761   1.003  0.0071 -0.5929  0.4136
 5068TIP3    H136619   6.181   2.679   0.957  0.4471 -0.1194 -0.6536
 5068TIP3    H236620   6.288   2.785   0.972  1.1013 -1.1457  2.8405
 5069TIP3   OH236621   3.974   1.998   3.777 -0.2813  0.4677  0.2131
 5069TIP3    H136622   3.888   1.996   3.820  0.3223 -0.2616  1.4380
 5069TIP3    H236623   3.956   2.030   3.689 -1.8642 -0.0173  0.3333
 5070TIP3   OH236624   0.324   0.637  14.931 -0.4561  0.9675  0.0392
 5070TIP3    H136625   0.373   0.606  14.854 -0.1796 -1.4395  1.0895
 5070TIP3    H236626   0.272   0.710  14.898 -0.2219  0.1340 -2.4035
 5071TIP3   OH236627   0.296   4.398  16.040 -0.5704 -0.4825  0.3257
 5071TIP3    H136628   0.369   4.343  16.009 -0.8518  0.3540 -2.0547
 5071TIP3    H236629   0.333   4.447  16.113  0.7434 -1.2773  0.2439
 5072TIP3   OH236630   2.553   2.169   5.573 -0.1966  0.3273  0.1712
 5072TIP3    H136631   2.481   2.215   5.529 -0.5394  0.7563  1.1550
 5072TIP3    H236632   2.576   2.226   5.646  1.0105  0.0893  0.0041
 5073TIP3   OH236633   2.103   3.871  17.146  0.4993 -0.4008  0.2130
 5073TIP3    H136634   2.049   3.884  17.224 -1.3184  2.0387 -1.3339
 5073TIP3    H236635   2.063   3.796  17.102 -0.0162 -0.2390  0.3967
 5074TIP3   OH236636   6.555   5.264  15.098 -0.6395  0.3505  0.0095
 5074TIP3    H136637   6.615   5.266  15.173 -0.7830 -0.8055  0.1681
 5074TIP3    H236638   6.469   5.249  15.137 -0.8418  0.6115 -0.3309
 5075TIP3   OH236639   3.979   2.045  12.181 -0.3401  0.0996 -0.5315
 5075TIP3    H136640   3.941   2.122  12.138 -2.2182 -0.7144 -0.4371
 5075TIP3    H236641   3.911   1.978  12.173  0.7881 -1.1929  0.4193
 5076TIP3   OH236642   0.358   4.171   1.385  0.6680  0.0882 -0.5951
 5076TIP3    H136643   0.368   4.226   1.463 -0.2500 -2.8944  1.8209
 5076TIP3    H236644   0.441   4.124   1.379  0.3847 -0.3908 -0.8223
 5077TIP3   OH236645   2.349   4.916   4.090  0.0373 -0.3030  0.2105
 5077TIP3    H136646   2.377   5.007   4.082 -1.5802  0.1465 -0.8951
 5077TIP3    H236647   2.311   4.910   4.178 -2.5806  0.9760 -0.7230
 5078TIP3   OH236648   4.398   5.400  11.567  1.0762  0.7077  0.1486
 5078TIP3    H136649   4.480   5.376  11.525  0.7614  0.6500 -0.4411
 5078TIP3    H236650   4.330   5.361  11.512  0.6604  0.4752  0.8085
 5079TIP3   OH236651   1.740   3.616  16.494 -0.8329  0.0706 -0.2857
 5079TIP3    H136652   1.833   3.609  16.513 -1.2130 -0.6033  1.6297
 5079TIP3    H236653   1.719   3.537  16.444 -0.5141 -0.1559 -0.0614
 5080TIP3   OH236654   3.299   4.042  11.432  0.5396  0.3849 -0.0968
 5080TIP3    H136655   3.258   4.110  11.379  0.3993  0.2752 -0.1291
 5080TIP3    H236656   3.364   4.089  11.485 -0.4810  0.7551  0.8686
 5081TIP3   OH236657   3.711   3.560  16.021 -0.2351  0.0134  0.2974
 5081TIP3    H136658   3.631   3.562  16.073 -0.0123 -1.9197  0.8230
 5081TIP3    H236659   3.712   3.472  15.983  2.3723 -0.6031  1.5735
 5082TIP3   OH236660   4.933   6.639   5.668 -0.2976  0.1182  0.1245
 5082TIP3    H136661   4.993   6.568   5.692 -0.1424 -0.2174 -1.2014
 5082TIP3    H236662   4.988   6.716   5.658 -0.2533  0.0804  0.0763
 5083TIP3   OH236663   4.794   2.060  11.827  0.3096 -0.4820 -0.5129
 5083TIP3    H136664   4.791   1.989  11.892  0.3474 -1.3646 -1.4505
 5083TIP3    H236665   4.847   2.024  11.755  2.3670  1.3493 -0.0297
 5084TIP3   OH236666   6.228   4.129  13.874 -0.0336  0.1161  0.0045
 5084TIP3    H136667   6.285   4.202  13.851  1.8114 -0.7102  1.6560
 5084TIP3    H236668   6.227   4.128  13.969 -0.8096 -1.4331  0.0159
 5085TIP3   OH236669   6.295   1.600   1.859  0.0039  0.2971  0.4536
 5085TIP3    H136670   6.238   1.527   1.883 -0.3860  0.8590  1.2929
 5085TIP3    H236671   6.320   1.582   1.768 -0.2933 -0.7387  0.5610
 5086TIP3   OH236672   3.290   2.299   3.180 -0.3385  0.0600 -0.5039
 5086TIP3    H136673   3.281   2.242   3.256  0.7000  1.9311  1.1086
 5086TIP3    H236674   3.376   2.275   3.143  0.4314  0.9841  0.5987
 5087TIP3   OH236675   1.764   1.656  13.264 -0.1569 -0.8116 -0.3103
 5087TIP3    H136676   1.736   1.596  13.195 -0.9521  0.3148 -1.0147
 5087TIP3    H236677   1.792   1.735  13.217 -0.5653 -0.0873  0.6263
 5088TIP3   OH236678   5.799   5.017  10.165 -0.2302  0.2359  0.1511
 5088TIP3    H136679   5.710   5.004  10.195 -0.2631  0.0634 -0.0205
 5088TIP3    H236680   5.832   5.090  10.218 -0.6652  0.6873 -0.1947
 5089TIP3   OH236681   1.403   4.907  12.457 -0.2785 -0.1828  0.5771
 5089TIP3    H136682   1.339   4.847  12.495 -1.8755  1.1939  0.2100
 5089TIP3    H236683   1.463   4.927  12.529 -0.0589 -1.7117  0.8558
 5090TIP3   OH236684   1.713   0.104  14.806  0.0125  0.0660  0.1956
 5090TIP3    H136685   1.700   0.130  14.897  1.2478 -1.1236  0.7335
 5090TIP3    H236686   1.647   0.154  14.758  0.1370  1.6413  1.5740
 5091TIP3   OH236687   2.419   4.455   2.881 -0.0186 -0.1237 -0.1225
 5091TIP3    H136688   2.373   4.487   2.803  2.2411 -1.1978 -2.0377
 5091TIP3    H236689   2.438   4.534   2.931 -1.6202  0.5884 -0.5638
 5092TIP3   OH236690   0.431   1.120  16.645  0.5267 -0.5392  0.3833
 5092TIP3    H136691   0.412   1.109  16.737 -0.1840  2.2838  0.6865
 5092TIP3    H236692   0.348   1.147  16.606  0.7007 -2.1298 -1.2075
 5093TIP3   OH236693   0.481   4.874   4.069 -0.7189  0.4289 -0.1142
 5093TIP3    H136694   0.522   4.790   4.049 -1.0893  0.0662  0.5894
 5093TIP3    H236695   0.526   4.905   4.147  0.7935  1.8844 -1.4915
 5094TIP3   OH236696   0.640   6.042  11.933 -0.0455 -0.1028 -0.5119
 5094TIP3    H136697   0.704   6.103  11.895  0.0348 -1.0966 -2.0505
 5094TIP3    H236698   0.687   5.999  12.004  0.2086  0.8754 -0.0619
 5095TIP3   OH236699   3.590   0.123  12.000 -0.2795  0.0810  0.4794
 5095TIP3    H136700   3.574   0.156  12.088 -1.0531  0.0860  0.3408
 5095TIP3    H236701   3.510   0.077  11.976  0.2082 -0.5781  0.0701
 5096TIP3   OH236702   3.355   5.023  13.106  0.3281 -0.0198 -0.3413
 5096TIP3    H136703   3.380   5.052  13.194 -0.3774 -1.1590  0.2661
 5096TIP3    H236704   3.290   4.954  13.121 -0.7363  0.5998 -1.7821
 5097TIP3   OH236705   1.634   5.989   4.382  0.3243 -0.4120  0.5422
 5097TIP3    H136706   1.668   6.078   4.390  0.0013 -0.3126  0.8411
 5097TIP3    H236707   1.661   5.946   4.463  0.3071 -0.5255  0.4870
 5098TIP3   OH236708   4.576   4.361  17.371 -0.3240 -0.2995  0.3506
 5098TIP3    H136709   4.507   4.295  17.380 -0.4955 -0.5482 -2.2432
 5098TIP3    H236710   4.569   4.392  17.281  0.5897  2.3813  1.1072
 5099TIP3   OH236711   0.454   4.909  13.737  0.6346 -0.2278  0.1510
 5099TIP3    H136712   0.499   4.993  13.729  0.0725  0.0491 -0.1558
 5099TIP3    H236713   0.464   4.868  13.651  0.4723 -0.2447  0.1387
 5100TIP3   OH236714   5.324   2.019  17.055  0.2071  0.2855 -0.0080
 5100TIP3    H136715   5.325   1.958  17.129 -0.3444 -0.9623 -0.9963
 5100TIP3    H236716   5.274   2.094  17.087 -1.1829 -0.8017  0.4659
 5101TIP3   OH236717   1.283   4.000  14.544  0.1066 -0.2417 -0.2150
 5101TIP3    H136718   1.212   4.028  14.601 -0.2605  0.1295 -0.8489
 5101TIP3    H236719   1.247   3.929  14.492 -0.5056  1.3399 -2.0496
 5102TIP3   OH236720   0.318   0.043  13.719 -0.3013  0.2786  0.0449
 5102TIP3    H136721   0.375   0.106  13.762  1.6219 -0.9645 -0.5650
 5102TIP3    H236722   0.308   0.077  13.630  1.3213 -0.5910 -0.4983
 5103TIP3   OH236723   6.286   1.876   0.462  0.4053 -0.3068  0.4250
 5103TIP3    H136724   6.307   1.788   0.431  0.0234 -0.3194  0.1873
 5103TIP3    H236725   6.252   1.864   0.551 -0.9733 -0.5675 -0.0991
 5104TIP3   OH236726   5.937   5.518   2.970 -0.1463  0.3243  0.1917
 5104TIP3    H136727   5.920   5.424   2.966 -0.0485  0.2445  1.2999
 5104TIP3    H236728   6.029   5.526   2.943  0.2508 -0.0662  1.3278
 5105TIP3   OH236729   4.440   2.889   1.484  0.4025 -0.4729 -0.1376
 5105TIP3    H136730   4.371   2.952   1.465  2.1964  1.1363 -1.9075
 5105TIP3    H236731   4.472   2.913   1.571 -0.3784 -0.3704  0.1245
 5106TIP3   OH236732   6.337   1.602   0.409  0.3447 -0.0826  0.3219
 5106TIP3    H136733   6.402   1.574   0.473  0.7495  1.0477  0.4253
 5106TIP3    H236734   6.253   1.573   0.445  0.8167 -2.3812 -0.2468
 5107TIP3   OH236735   0.099   6.722   5.581 -0.8823  0.0637  0.2757
 5107TIP3    H136736   0.125   6.814   5.577 -2.4021  0.5215 -3.2478
 5107TIP3    H236737   0.016   6.722   5.630 -1.9600  0.9772 -1.4617
 5108TIP3   OH236738   2.978   0.044  12.597  0.1347 -0.2363  0.1189
 5108TIP3    H136739   3.058   0.078  12.556 -0.8587 -1.5758 -3.3359
 5108TIP3    H236740   2.932   0.122  12.629  1.0171  0.9786 -1.4330
 5109TIP3   OH236741   0.928   0.165   3.431 -0.1716  0.7338  0.4846
 5109TIP3    H136742   0.929   0.169   3.335 -0.2810  0.6669  0.4812
 5109TIP3    H236743   0.836   0.161   3.454 -0.1436  0.7132  0.5922
 5110TIP3   OH236744   6.627   5.147  12.730  0.5305  0.4277  0.7678
 5110TIP3    H136745   6.673   5.175  12.810  0.2916  4.0071 -0.1739
 5110TIP3    H236746   6.535   5.146  12.755  0.4865  1.1894  0.6608
 5111TIP3   OH236747   3.775   2.896   0.605  0.6261 -0.3770 -0.9384
 5111TIP3    H136748   3.770   2.826   0.540  0.4177 -1.1286 -0.1293
 5111TIP3    H236749   3.737   2.859   0.684  1.9514  0.1133 -0.0377
 5112TIP3   OH236750   3.180   0.653   0.478  0.0041  0.4241  0.0547
 5112TIP3    H136751   3.267   0.650   0.518  0.3872  0.8063 -0.7220
 5112TIP3    H236752   3.198   0.657   0.384 -0.8655 -0.0116 -0.1328
 5113TIP3   OH236753   0.138   4.165   0.917 -0.3387  0.4716 -0.3179
 5113TIP3    H136754   0.088   4.090   0.886  0.5895 -0.0475 -0.5805
 5113TIP3    H236755   0.074   4.218   0.965 -0.8099 -0.9556  0.6996
 5114TIP3   OH236756   0.434   4.930  14.006 -0.4319 -0.0310  0.5550
 5114TIP3    H136757   0.351   4.953  14.048 -0.7172 -0.6639  0.3411
 5114TIP3    H236758   0.411   4.910  13.915 -0.2456 -1.3900  0.7820
 5115TIP3   OH236759   1.849   3.827   1.801 -0.5037  0.3877  1.2807
 5115TIP3    H136760   1.912   3.881   1.753 -0.4967 -0.1030  0.7267
 5115TIP3    H236761   1.779   3.888   1.825 -1.5318  0.2841 -1.1568
 5116TIP3   OH236762   4.712   4.208   1.273  0.2668 -0.5546 -0.1826
 5116TIP3    H136763   4.621   4.234   1.282  0.4989  0.3682 -0.3862
 5116TIP3    H236764   4.709   4.113   1.260 -0.6411 -0.5650  0.0430
 5117TIP3   OH236765   1.435   4.575   3.916  0.3699  0.1852 -0.0134
 5117TIP3    H136766   1.526   4.546   3.929 -0.4791 -2.6369  0.3323
 5117TIP3    H236767   1.419   4.638   3.986  1.2216 -1.5122  1.8114
 5118TIP3   OH236768   2.200   5.864   2.520 -0.5907  0.0039  0.6098
 5118TIP3    H136769   2.181   5.810   2.597  3.1773 -1.1171  0.9667
 5118TIP3    H236770   2.180   5.808   2.446 -2.0645  0.2502  0.8005
 5119TIP3   OH236771   2.086   3.846   3.007  0.9321  0.0803  0.5798
 5119TIP3    H136772   2.169   3.825   2.964  0.6593  0.0178  0.0758
 5119TIP3    H236773   2.029   3.772   2.987  0.2737  0.8303 -0.3837
 5120TIP3   OH236774   3.085   0.210   4.808  0.1122 -0.1398 -0.1036
 5120TIP3    H136775   3.018   0.278   4.801 -1.6094 -1.8674 -1.6776
 5120TIP3    H236776   3.090   0.190   4.901  0.4733  1.9083  0.3568
 5121TIP3   OH236777   0.520   2.866   3.831  0.1424  0.0065  0.1017
 5121TIP3    H136778   0.477   2.951   3.838 -0.9342 -0.5409  0.3842
 5121TIP3    H236779   0.500   2.822   3.913 -0.6532 -1.1187 -0.6712
 5122TIP3   OH236780   5.174   1.162   1.528 -0.4718 -0.1435  0.5696
 5122TIP3    H136781   5.113   1.200   1.592 -2.1973 -2.1829  0.2527
 5122TIP3    H236782   5.158   1.211   1.448 -1.2582 -0.2329  0.6613
 5123TIP3   OH236783   4.939   2.141   3.946  0.4783  0.5128  0.2530
 5123TIP3    H136784   4.917   2.070   4.007 -0.6626  0.7436  0.1341
 5123TIP3    H236785   4.861   2.150   3.892  0.4509  2.1352  0.5213
 5124TIP3   OH236786   3.393   4.020  10.308  0.0153 -0.0047 -0.3454
 5124TIP3    H136787   3.443   4.100  10.327  0.3971 -0.5271  0.9166
 5124TIP3    H236788   3.403   3.966  10.386  1.1601 -2.0147 -1.7919
 5125TIP3   OH236789   0.756   4.306   5.790 -0.0527  0.2403 -0.1798
 5125TIP3    H136790   0.661   4.309   5.802 -0.5272 -2.5022 -2.2201
 5125TIP3    H236791   0.774   4.371   5.723 -0.7935 -0.3784 -1.0041
 5126TIP3   OH236792   1.582   4.612   3.475  0.0394  0.0222 -0.4165
 5126TIP3    H136793   1.607   4.700   3.506 -0.9920  0.7249 -1.4850
 5126TIP3    H236794   1.665   4.564   3.472  0.6326  0.9517  0.1919
 5127TIP3   OH236795   5.577   2.810   4.654  0.1798  0.1590  0.6401
 5127TIP3    H136796   5.573   2.860   4.735 -3.6661  2.1093 -0.5036
 5127TIP3    H236797   5.499   2.754   4.657  1.1375 -1.3387 -0.7823
 5128TIP3   OH236798   5.971   5.046   4.655 -0.5865  0.0938 -0.0245
 5128TIP3    H136799   6.009   5.122   4.611  0.7806  0.3360  1.4601
 5128TIP3    H236800   6.001   4.971   4.604  0.5067  0.3921  0.1538
 5129TIP3   OH236801   6.417   6.004  13.592 -0.6872 -0.2219 -0.0086
 5129TIP3    H136802   6.356   6.076  13.578 -0.1351  0.1984 -0.3041
 5129TIP3    H236803   6.453   6.020  13.680  0.6453  0.8036 -0.7079
 5130TIP3   OH236804   3.736   6.162  16.736  0.2574 -0.1768  0.0222
 5130TIP3    H136805   3.716   6.252  16.711 -1.1875 -1.4020 -4.0093
 5130TIP3    H236806   3.831   6.158  16.737  0.3627  0.9837 -1.7565
 5131TIP3   OH236807   0.594   2.190   5.109 -0.1381  0.2494  0.1761
 5131TIP3    H136808   0.572   2.260   5.047 -0.7232 -0.4996 -0.4835
 5131TIP3    H236809   0.600   2.111   5.055 -0.1800 -0.3371  1.0057
 5132TIP3   OH236810   4.161   3.928   2.717  0.2109  0.1239 -0.1234
 5132TIP3    H136811   4.066   3.932   2.729  0.3432  1.1873  0.6474
 5132TIP3    H236812   4.191   3.871   2.789 -0.0599 -2.3985 -1.8673
 5133TIP3   OH236813   0.272   5.822   0.594 -0.5853 -0.3354 -0.4687
 5133TIP3    H136814   0.250   5.863   0.677  2.2016 -0.9512  0.6842
 5133TIP3    H236815   0.271   5.728   0.612  0.8951 -0.4486 -0.8400
 5134TIP3   OH236816   3.502   0.121  14.365 -0.2307  0.3908  0.0731
 5134TIP3    H136817   3.447   0.177  14.421  0.9311  0.1205  1.5542
 5134TIP3    H236818   3.472   0.140  14.276 -0.4214  2.8056  0.5736
 5135TIP3   OH236819   4.237   2.917   4.937  0.0280  0.8219 -0.3257
 5135TIP3    H136820   4.272   2.997   4.976  2.0291  0.1561 -0.6450
 5135TIP3    H236821   4.313   2.862   4.921 -1.3679 -1.5935  0.7717
 5136TIP3   OH236822   6.339   2.366  12.958  0.1057 -0.8746 -0.3740
 5136TIP3    H136823   6.402   2.321  13.014  0.2261 -0.2105  0.0319
 5136TIP3    H236824   6.345   2.458  12.983 -0.0949 -0.6126 -1.2335
 5137TIP3   OH236825   1.530   5.318   0.378 -0.3188 -0.0054 -0.4880
 5137TIP3    H136826   1.542   5.227   0.354  0.4367  0.3012 -1.3465
 5137TIP3    H236827   1.618   5.357   0.369 -0.2323  0.4147  1.6191
 5138TIP3   OH236828   6.596   5.729   5.655  0.4401 -0.0032  0.4417
 5138TIP3    H136829   6.682   5.689   5.638 -0.4811 -1.9856  0.1046
 5138TIP3    H236830   6.557   5.737   5.569 -0.0876 -0.0487  0.6752
 5139TIP3   OH236831   1.826   4.179  13.512  0.7888  0.4703  0.0515
 5139TIP3    H136832   1.761   4.190  13.582  0.0379  0.6128 -0.6512
 5139TIP3    H236833   1.859   4.090  13.524 -0.9147 -0.3021 -0.6996
 5140TIP3   OH236834   4.846   2.349  14.398  0.1913  0.4473 -0.4647
 5140TIP3    H136835   4.916   2.336  14.334  1.1781  0.8941  0.4941
 5140TIP3    H236836   4.803   2.429  14.370  0.7250  0.7317 -0.4820
 5141TIP3   OH236837   2.965   0.083   2.704 -0.9120 -0.3590  0.1312
 5141TIP3    H136838   2.973   0.155   2.767  2.6747  0.1120 -0.6517
 5141TIP3    H236839   2.937   0.008   2.757  1.6250  0.0976  2.3458
 5142TIP3   OH236840   2.996   5.085   3.404  0.2279 -0.2779 -0.1762
 5142TIP3    H136841   2.954   5.021   3.345  0.1704 -0.5536  0.1613
 5142TIP3    H236842   3.065   5.034   3.448  1.3976  0.3283 -1.2329
 5143TIP3   OH236843   5.273   5.390  16.256 -0.1445  0.4855  0.2307
 5143TIP3    H136844   5.210   5.342  16.309 -0.7733  0.6259 -0.3703
 5143TIP3    H236845   5.344   5.412  16.316  0.4941 -1.7868  0.3676
 5144TIP3   OH236846   3.603   1.434  12.882  0.1408 -0.4287  0.6954
 5144TIP3    H136847   3.615   1.345  12.848 -2.1136 -0.2468 -0.8031
 5144TIP3    H236848   3.558   1.422  12.966  0.8957 -0.7138  1.0694
 5145TIP3   OH236849   3.754   6.625  12.349  0.6360 -0.3493 -0.4565
 5145TIP3    H136850   3.659   6.632  12.350  0.7673  1.7333  0.3432
 5145TIP3    H236851   3.772   6.542  12.393 -0.7504  0.3726  1.6230
 5146TIP3   OH236852   3.753   5.686  10.787  0.1298  0.3976 -0.1207
 5146TIP3    H136853   3.745   5.709  10.879 -1.9530 -1.8933  0.3698
 5146TIP3    H236854   3.757   5.771  10.742 -0.4746  1.5936  1.9409
 5147TIP3   OH236855   4.250   3.744   2.903 -0.1535 -0.1337  0.2035
 5147TIP3    H136856   4.340   3.729   2.875 -0.3933 -1.1066 -0.0726
 5147TIP3    H236857   4.240   3.692   2.983 -0.6973 -0.6431 -0.1920
 5148TIP3   OH236858   1.044   0.009  15.056  0.8179  0.0579  0.0362
 5148TIP3    H136859   1.127   0.002  15.008  3.9246  3.0216  4.2168
 5148TIP3    H236860   1.057  -0.045  15.134 -2.1331 -1.0066 -0.0900
 5149TIP3   OH236861   3.747   5.561   3.514  0.9098 -0.6375 -0.1607
 5149TIP3    H136862   3.798   5.483   3.495  0.7481 -1.2093  1.6228
 5149TIP3    H236863   3.805   5.617   3.565 -0.0713 -1.1719  1.6449
 5150TIP3   OH236864   5.532   2.893  13.347  0.3042  0.4717  0.3841
 5150TIP3    H136865   5.519   2.830  13.276 -0.1928 -0.6758  1.4547
 5150TIP3    H236866   5.627   2.909  13.347  1.1873 -3.5498  2.6879
 5151TIP3   OH236867   6.752   1.525  15.230  0.1726  0.0219  0.1243
 5151TIP3    H136868   6.704   1.553  15.152 -0.6604  0.9064  0.9255
 5151TIP3    H236869   6.829   1.581  15.232 -0.8251  1.4303  1.0021
 5152TIP3   OH236870   3.041   3.098   3.916  0.0671  0.6250 -0.1623
 5152TIP3    H136871   3.021   3.017   3.869 -0.0643  1.3084 -1.3061
 5152TIP3    H236872   3.134   3.089   3.939 -0.5480 -0.9869  2.0617
 5153TIP3   OH236873   3.734   4.099   1.919 -0.2667  0.1954 -0.0681
 5153TIP3    H136874   3.651   4.098   1.966 -0.2654  1.6274  0.0238
 5153TIP3    H236875   3.758   4.007   1.909 -1.4811 -0.2066  0.5715
 5154TIP3   OH236876   2.916   2.251  16.255  0.1816 -0.4535 -0.4601
 5154TIP3    H136877   2.822   2.236  16.248 -0.2705  1.9462 -0.1778
 5154TIP3    H236878   2.940   2.292  16.172  1.2931 -2.2754 -1.0975
 5155TIP3   OH236879   6.642   2.156  13.554  0.2977  0.3740 -0.3932
 5155TIP3    H136880   6.732   2.136  13.526  1.1786 -0.7350  2.8704
 5155TIP3    H236881   6.601   2.071  13.564 -0.1386  0.7356  1.0210
 5156TIP3   OH236882   4.811   1.167   3.926  0.3734  0.3388 -0.5191
 5156TIP3    H136883   4.720   1.152   3.953  0.8458  1.2712  1.8612
 5156TIP3    H236884   4.814   1.260   3.905  1.1821  0.8154  1.4849
 5157TIP3   OH236885   5.012   4.405  17.322  0.0417 -0.5792  0.1047
 5157TIP3    H136886   5.078   4.474  17.324  0.8503 -1.3292 -0.0161
 5157TIP3    H236887   4.928   4.451  17.315  0.6051  0.3706 -0.5732
 5158TIP3   OH236888   3.576   6.361  16.337  0.3551  0.0530  0.2824
 5158TIP3    H136889   3.481   6.367  16.335  0.2883 -1.0122 -0.5193
 5158TIP3    H236890   3.596   6.279  16.292  1.5656 -0.5750  1.8719
 5159TIP3   OH236891   5.781   1.248  13.103 -0.1464  0.0366  0.3882
 5159TIP3    H136892   5.777   1.170  13.048 -0.0345  0.5130 -0.3126
 5159TIP3    H236893   5.691   1.278  13.109 -0.1289  0.1206  0.2510
 5160TIP3   OH236894   3.351   5.115  12.421 -0.7083 -0.4225  0.3155
 5160TIP3    H136895   3.396   5.091  12.502  3.1283 -0.3566 -1.5843
 5160TIP3    H236896   3.336   5.209  12.429 -2.8507 -0.8158  1.9286
 5161TIP3   OH236897   6.133   5.495  16.893  0.2222  0.2174  0.2264
 5161TIP3    H136898   6.104   5.423  16.949 -0.9473  0.6179  0.1556
 5161TIP3    H236899   6.194   5.544  16.948 -0.9365  0.6232  1.1821
 5162TIP3   OH236900   0.207   2.634  16.628  0.3106  0.4665  0.2541
 5162TIP3    H136901   0.218   2.687  16.549 -1.3827  0.6483  0.0945
 5162TIP3    H236902   0.114   2.644  16.650  0.2352 -1.4295  0.9506
 5163TIP3   OH236903   3.104   0.826   1.190 -0.0490  0.3462 -0.2367
 5163TIP3    H136904   3.038   0.858   1.252  1.1926  1.6421  0.4579
 5163TIP3    H236905   3.058   0.757   1.141 -1.6354  0.5758  0.8303
 5164TIP3   OH236906   1.005   0.608   0.812  0.0143  0.2213 -0.9292
 5164TIP3    H136907   0.937   0.662   0.773  0.0842  0.3662 -0.8526
 5164TIP3    H236908   1.059   0.580   0.738 -0.5746 -0.5309 -1.0803
 5165TIP3   OH236909   3.503   3.316  14.731  0.2833  0.2306 -0.6590
 5165TIP3    H136910   3.483   3.226  14.704  1.3839  0.2923 -1.7034
 5165TIP3    H236911   3.457   3.371  14.667 -0.9036  0.4562  0.3362
 5166TIP3   OH236912   4.718   3.046  12.538 -0.2237 -0.3442  0.1182
 5166TIP3    H136913   4.667   3.126  12.540  0.1274  0.1971 -4.0750
 5166TIP3    H236914   4.700   3.007  12.452  2.3935 -2.8532  0.5337
 5167TIP3   OH236915   4.621   4.325   5.060  0.1845 -0.0420 -0.2010
 5167TIP3    H136916   4.713   4.316   5.083  0.0180 -0.0559  0.4732
 5167TIP3    H236917   4.594   4.236   5.036  0.5440  0.1018 -1.1884
 5168TIP3   OH236918   2.539   3.277   1.142 -0.0023 -0.0276 -0.1082
 5168TIP3    H136919   2.596   3.232   1.080  0.1353 -1.1219  0.7718
 5168TIP3    H236920   2.592   3.349   1.176 -0.0244  0.4803 -1.1089
 5169TIP3   OH236921   4.149   0.374   1.886  0.3418  0.0359 -0.4717
 5169TIP3    H136922   4.230   0.355   1.840  1.6310 -0.4104  1.8547
 5169TIP3    H236923   4.166   0.457   1.931  0.5580 -1.3905  2.2173
 5170TIP3   OH236924   2.858   4.301   2.925 -0.2985  0.0647  0.0293
 5170TIP3    H136925   2.896   4.291   3.012  1.6437 -1.1880 -0.8778
 5170TIP3    H236926   2.765   4.286   2.937 -0.0847  0.0067  1.8989
 5171TIP3   OH236927   6.758   1.261  15.293 -0.1149 -0.3477 -0.1622
 5171TIP3    H136928   6.767   1.352  15.264  3.5454 -1.5115 -3.4768
 5171TIP3    H236929   6.724   1.268  15.383  1.5756  4.3614  0.3959
 5172TIP3   OH236930   2.048   3.313  12.349  0.2705  0.7073 -0.1239
 5172TIP3    H136931   2.138   3.282  12.356 -0.3586 -1.2339 -0.0909
 5172TIP3    H236932   2.006   3.286  12.431 -1.0775 -1.1513 -1.3403
 5173TIP3   OH236933   2.680   5.752  11.110 -0.6040 -0.1022 -0.6229
 5173TIP3    H136934   2.702   5.820  11.175 -2.7920 -0.9415  1.1458
 5173TIP3    H236935   2.615   5.794  11.054 -0.5504 -0.1444 -0.7152
 5174TIP3   OH236936   0.810   2.458   0.443 -0.0016  0.3681  0.5624
 5174TIP3    H136937   0.822   2.389   0.509  0.5378  0.8745  1.0046
 5174TIP3    H236938   0.726   2.437   0.402 -0.2325 -0.0957  1.2445
 5175TIP3   OH236939   6.256   5.341   0.709 -0.5997  0.4477  0.3269
 5175TIP3    H136940   6.271   5.264   0.655 -0.7430  0.3037  0.4929
 5175TIP3    H236941   6.229   5.306   0.794  0.0121  0.6581  0.6169
 5176TIP3   OH236942   1.916   6.138  14.453  0.1073 -0.0037  0.0190
 5176TIP3    H136943   1.930   6.174  14.540  0.7932  0.6920 -0.3655
 5176TIP3    H236944   1.917   6.214  14.395  0.0131 -0.4922 -0.6326
 5177TIP3   OH236945   0.634   6.391  15.007 -0.2674 -0.1713 -0.1064
 5177TIP3    H136946   0.540   6.401  15.021 -0.0868  0.2901  0.8581
 5177TIP3    H236947   0.642   6.363  14.916 -1.2385  1.7045 -0.8311
 5178TIP3   OH236948   0.068   4.614   3.970  0.2296 -0.4836  0.0092
 5178TIP3    H136949   0.147   4.622   3.916 -0.5499  0.5603 -1.0363
 5178TIP3    H236950   0.015   4.690   3.946 -0.5473 -0.4789  1.6305
 5179TIP3   OH236951   0.970   1.383  13.374 -0.1525 -0.3510 -0.2038
 5179TIP3    H136952   0.964   1.407  13.467  0.3343 -0.4544 -0.1457
 5179TIP3    H236953   0.879   1.382  13.344 -0.2700  0.3242  0.1093
 5180TIP3   OH236954   2.753   6.654   5.304  0.0568 -0.3817  0.0378
 5180TIP3    H136955   2.791   6.587   5.248 -0.6570 -0.4202 -0.4155
 5180TIP3    H236956   2.813   6.729   5.296  1.7658 -1.4564  1.8303
 5181TIP3   OH236957   0.923   1.919   2.200  0.6802  0.3247 -0.5409
 5181TIP3    H136958   0.955   1.975   2.271  2.0737 -0.3726 -0.6018
 5181TIP3    H236959   0.997   1.863   2.178 -0.1503 -0.3617 -1.6688
 5182TIP3   OH236960   3.190   4.859  14.393  0.5078  0.6189  0.3689
 5182TIP3    H136961   3.131   4.786  14.374  0.2363  0.7131  0.8471
 5182TIP3    H236962   3.165   4.927  14.331 -0.7610  1.1374  1.4178
 5183TIP3   OH236963   3.595   5.229  15.036  0.3240 -0.2071 -0.1242
 5183TIP3    H136964   3.652   5.295  14.998 -0.2386  0.2591 -0.1665
 5183TIP3    H236965   3.577   5.260  15.124 -1.6923  0.8589 -0.8378
 5184TIP3   OH236966   5.064   0.857   4.372  0.2390 -0.0359  0.5936
 5184TIP3    H136967   5.097   0.882   4.458 -2.5634  0.6963  1.5534
 5184TIP3    H236968   5.059   0.939   4.323  1.1396 -0.3464 -0.0526
 5185TIP3   OH236969   3.687   1.349  11.788 -0.2002 -0.2743 -0.4336
 5185TIP3    H136970   3.680   1.272  11.844  0.0141  0.9022  1.2783
 5185TIP3    H236971   3.779   1.374  11.791 -0.4369  0.6178 -0.1534
 5186TIP3   OH236972   4.595   5.852   3.195  0.0419 -0.8330 -0.3880
 5186TIP3    H136973   4.587   5.757   3.195 -1.3593 -0.7455 -0.5072
 5186TIP3    H236974   4.614   5.875   3.286  1.9430 -1.2946 -0.6229
 5187TIP3   OH236975   0.599   6.392  16.667 -0.5369 -0.3864 -0.4881
 5187TIP3    H136976   0.556   6.446  16.601  1.0775  0.7164 -0.7037
 5187TIP3    H236977   0.648   6.327  16.618  1.3588  0.9626 -0.4973
 5188TIP3   OH236978   4.529   1.359   2.726  0.7869 -0.1465  0.1422
 5188TIP3    H136979   4.570   1.277   2.757 -2.8207 -1.2909  2.4864
 5188TIP3    H236980   4.457   1.331   2.671 -1.0783  1.3114  1.6881
 5189TIP3   OH236981   6.741   6.596   3.761 -0.2392 -0.7544 -0.1521
 5189TIP3    H136982   6.796   6.533   3.716  0.8906  0.2416 -0.2106
 5189TIP3    H236983   6.708   6.653   3.692 -0.4629 -0.6818  0.0123
 5190TIP3   OH236984   0.513   2.232   3.563  0.0348 -0.0268 -0.1505
 5190TIP3    H136985   0.548   2.198   3.646 -1.0674 -0.1458  0.2856
 5190TIP3    H236986   0.584   2.219   3.500  0.3034 -1.4650  0.4074
 5191TIP3   OH236987   4.021   0.747   3.470 -0.3568  0.1509 -0.3419
 5191TIP3    H136988   3.977   0.826   3.439  0.1001  0.6092  0.1425
 5191TIP3    H236989   3.976   0.725   3.552 -0.4758 -0.0836 -0.4706
 5192TIP3   OH236990   0.822   6.170  11.778  0.7731  0.4048 -0.3059
 5192TIP3    H136991   0.807   6.106  11.708  0.2372  0.0119  0.1576
 5192TIP3    H236992   0.916   6.186  11.776  1.4307 -2.4589  1.3051
 5193TIP3   OH236993   6.511   0.468   5.630  0.6291 -0.0748 -0.3232
 5193TIP3    H136994   6.599   0.444   5.658  0.3912  0.4630  0.9577
 5193TIP3    H236995   6.494   0.413   5.554  1.8133 -0.6659 -0.1800
 5194TIP3   OH236996   6.658   3.459   1.958  0.2249  0.0568 -0.0898
 5194TIP3    H136997   6.745   3.432   1.932  0.8325 -0.1111  1.9409
 5194TIP3    H236998   6.639   3.409   2.038  0.3510  3.5054  2.3631
 5195TIP3   OH236999   5.404   0.889   4.503 -0.0645  0.3359  0.5822
 5195TIP3    H137000   5.407   0.901   4.408 -0.6867 -0.1188  0.4976
 5195TIP3    H237001   5.318   0.921   4.529  0.2435  0.7924  1.0480
 5196TIP3   OH237002   0.400   1.174  16.914 -0.0259 -0.1735  0.4248
 5196TIP3    H137003   0.469   1.217  16.965 -0.1744 -0.3152  0.7493
 5196TIP3    H237004   0.328   1.164  16.975  0.1699 -1.2999  0.4932
 5197TIP3   OH237005   6.553   1.328   1.593 -0.1075 -0.0807  0.5506
 5197TIP3    H137006   6.477   1.387   1.597 -0.2938 -0.3637  2.3916
 5197TIP3    H237007   6.517   1.245   1.564 -0.3093  0.0577  0.3989
 5198TIP3   OH237008   2.457   0.613  15.468 -0.2995 -0.4686 -0.4496
 5198TIP3    H137009   2.427   0.573  15.549  0.6672 -2.0539 -0.8428
 5198TIP3    H237010   2.545   0.644  15.488 -0.5152  0.2441 -0.5625
 5199TIP3   OH237011   2.230   0.660  13.785 -0.3477 -0.3648  0.1276
 5199TIP3    H137012   2.305   0.677  13.843 -1.0525 -0.3243  1.0606
 5199TIP3    H237013   2.155   0.655  13.845 -1.7666  3.4144 -1.0472
 5200TIP3   OH237014   5.582   5.210  13.117 -0.1343  0.3029  0.2488
 5200TIP3    H137015   5.569   5.184  13.208 -0.9097 -0.5538 -0.0873
 5200TIP3    H237016   5.632   5.292  13.122  1.9730 -0.9380  1.3879
 5201TIP3   OH237017   2.754   0.250   0.471  0.2708  0.7355  0.0210
 5201TIP3    H137018   2.831   0.304   0.454  1.5263 -0.4368  1.5945
 5201TIP3    H237019   2.722   0.225   0.384  2.7079 -0.1304 -0.7188
 5202TIP3   OH237020   6.398   4.117  11.634 -0.3049 -0.7554 -0.3948
 5202TIP3    H137021   6.449   4.037  11.650  0.5305 -0.2501 -0.4519
 5202TIP3    H237022   6.320   4.107  11.687  0.7058 -0.7513  1.1592
 5203TIP3   OH237023   3.816   1.923   0.647 -0.1487  0.4400  0.0165
 5203TIP3    H137024   3.872   1.984   0.694 -2.4533  1.8010  1.1814
 5203TIP3    H237025   3.864   1.904   0.566  3.0375 -0.4315  1.9547
 5204TIP3   OH237026   1.991   2.605   3.929  0.4384 -0.0614 -0.0985
 5204TIP3    H137027   2.013   2.534   3.989  0.6570 -1.1568 -1.4195
 5204TIP3    H237028   2.068   2.613   3.873 -0.7655 -0.9959 -2.0147
 5205TIP3   OH237029   5.913   2.644   2.936  0.2438 -0.5205  0.0992
 5205TIP3    H137030   5.843   2.687   2.887  0.1068 -0.4450  0.3606
 5205TIP3    H237031   5.984   2.634   2.872  0.5697  0.7907  0.2333
 5206TIP3   OH237032   6.342   4.186   1.203  0.4914 -0.0694 -0.0491
 5206TIP3    H137033   6.387   4.157   1.123  0.4817  1.9911 -0.8791
 5206TIP3    H237034   6.333   4.281   1.191 -0.5658  0.1102  1.8937
 5207TIP3   OH237035   0.099   0.827   2.208 -0.1407 -0.6397  0.1905
 5207TIP3    H137036   0.073   0.788   2.125 -0.2099 -0.4808  0.1375
 5207TIP3    H237037   0.030   0.802   2.269  0.9005 -2.4644  0.6992
 5208TIP3   OH237038   2.700   3.575  16.788  0.6911  0.5384 -0.0338
 5208TIP3    H137039   2.787   3.538  16.805  1.0986  1.2833 -0.3929
 5208TIP3    H237040   2.682   3.553  16.697  1.0955  1.4830 -0.3623
 5209TIP3   OH237041   0.149   4.371  11.108  0.5392 -0.4684 -0.0466
 5209TIP3    H137042   0.079   4.349  11.046  0.6824 -0.3473 -0.2518
 5209TIP3    H237043   0.193   4.446  11.068  1.1496 -0.9069 -0.1947
 5210TIP3   OH237044   3.755   1.937  14.470  0.2199 -0.2690 -0.3936
 5210TIP3    H137045   3.815   1.871  14.505 -0.1539 -0.4947 -0.1702
 5210TIP3    H237046   3.718   1.979  14.548  1.0422  0.7560 -0.5302
 5211TIP3   OH237047   2.584   3.775   2.571 -0.2557 -0.5565  0.2625
 5211TIP3    H137048   2.638   3.799   2.646  0.3354 -1.5148  0.1635
 5211TIP3    H237049   2.611   3.686   2.549  1.0783  0.3690 -2.3440
 5212TIP3   OH237050   6.077   4.782  13.923  0.1610  0.1425 -0.0706
 5212TIP3    H137051   6.106   4.871  13.941  1.8291 -0.9000  3.2785
 5212TIP3    H237052   6.159   4.731  13.916 -0.7648 -1.3193 -0.9294
 5213TIP3   OH237053   2.460   5.132  16.720  0.7878 -0.0381  0.0213
 5213TIP3    H137054   2.413   5.063  16.673 -0.0543  1.1325 -0.8995
 5213TIP3    H237055   2.536   5.087  16.756  0.0482 -1.5485 -0.1783
 5214TIP3   OH237056   2.043   4.673  13.116  0.0309  0.0335  0.1083
 5214TIP3    H137057   2.025   4.715  13.031 -1.4541  2.8744  1.6999
 5214TIP3    H237058   1.958   4.641  13.145  0.2423  0.3855  1.1445
 5215TIP3   OH237059   2.236   3.390   1.937  0.5532 -0.2215  0.0148
 5215TIP3    H137060   2.223   3.332   2.012 -1.3306  0.8243  0.5548
 5215TIP3    H237061   2.148   3.402   1.901  0.9306  2.0622 -0.2577
 5216TIP3   OH237062   3.286   2.876   5.318 -0.0896  0.4686 -0.5673
 5216TIP3    H137063   3.310   2.967   5.334  0.1414  0.4669 -0.8819
 5216TIP3    H237064   3.276   2.838   5.405 -1.4337  1.1069 -0.4188
 5217TIP3   OH237065   2.269   2.466  16.461 -0.2094  0.4048 -0.1967
 5217TIP3    H137066   2.253   2.487  16.553 -0.3168 -1.4180  0.2267
 5217TIP3    H237067   2.183   2.447  16.424 -0.0079 -0.4680 -0.2423
 5218TIP3   OH237068   1.258   2.470   1.983  0.3674  0.9675  0.5787
 5218TIP3    H137069   1.232   2.507   2.067 -1.1934 -1.8689  1.5028
 5218TIP3    H237070   1.175   2.449   1.940  1.1375  0.0976 -0.5419
 5219TIP3   OH237071   1.166   1.225  16.117  0.3631  0.0664 -0.0093
 5219TIP3    H137072   1.096   1.246  16.179  1.8646 -0.2527  1.8661
 5219TIP3    H237073   1.126   1.161  16.057 -1.0189  0.0714  0.8564
 5220TIP3   OH237074   2.461   1.820  13.129 -0.4713 -0.2006 -0.2531
 5220TIP3    H137075   2.429   1.884  13.193 -2.8682 -1.3394 -0.1808
 5220TIP3    H237076   2.408   1.837  13.051  1.9965  0.7756 -1.8433
 5221TIP3   OH237077   5.414   6.604  14.333 -0.2013 -0.2011 -0.4691
 5221TIP3    H137078   5.366   6.661  14.274 -0.2245 -0.0115 -0.2684
 5221TIP3    H237079   5.498   6.648  14.347 -0.8414  0.6342  0.9943
 5222TIP3   OH237080   4.432   2.519   1.173 -0.0528  0.0594  0.0234
 5222TIP3    H137081   4.346   2.500   1.136  0.3029 -1.3694 -0.1272
 5222TIP3    H237082   4.463   2.434   1.204  0.6970  0.8045  1.3858
 5223TIP3   OH237083   0.472   3.977   2.161 -0.3813 -0.3604 -0.0477
 5223TIP3    H137084   0.505   3.893   2.193 -0.7681 -1.1454 -1.6233
 5223TIP3    H237085   0.419   3.955   2.084 -0.7527  1.3007 -0.3200
 5224TIP3   OH237086   2.895   5.448   2.167 -0.1964 -0.4252  0.0363
 5224TIP3    H137087   2.887   5.409   2.254  1.8387 -0.2073  0.3716
 5224TIP3    H237088   2.849   5.531   2.174  0.6518 -0.0174  1.2023
 5225TIP3   OH237089   3.952   5.375   4.832 -0.0321 -0.7066 -0.4110
 5225TIP3    H137090   3.930   5.298   4.779 -1.9362 -0.0405 -0.6259
 5225TIP3    H237091   3.869   5.405   4.868  0.9801 -0.1104  1.5982
 5226TIP3   OH237092   6.227   1.002  16.442  0.0843  0.1283 -0.0100
 5226TIP3    H137093   6.321   1.014  16.427 -0.1397  0.2875 -1.4213
 5226TIP3    H237094   6.214   0.907  16.435  0.3187 -0.0408  1.4763
 5227TIP3   OH237095   5.276   3.091  10.886  0.6663 -0.1820 -0.9148
 5227TIP3    H137096   5.233   3.162  10.933  0.5213  0.7727 -2.4199
 5227TIP3    H237097   5.253   3.012  10.934 -0.1135  0.6664  0.1373
 5228TIP3   OH237098   1.921   6.612  16.104 -0.0805 -0.0739  0.1660
 5228TIP3    H137099   1.928   6.522  16.072  2.5491  0.5117 -1.1607
 5228TIP3    H237100   1.985   6.661  16.052 -0.8479  2.4183  1.4201
 5229TIP3   OH237101   2.460   5.520   5.334 -0.4058 -0.1948  0.6540
 5229TIP3    H137102   2.510   5.491   5.258 -0.6007  0.9700  0.0638
 5229TIP3    H237103   2.512   5.491   5.409  0.3462 -0.3970  0.0616
 5230TIP3   OH237104   5.313   5.494   0.662 -0.0999  0.0945  0.4011
 5230TIP3    H137105   5.229   5.535   0.683  0.1078 -0.2431  2.0165
 5230TIP3    H237106   5.376   5.536   0.720  0.7226 -0.1761 -0.2743
 5231TIP3   OH237107   1.636   6.503   3.215  0.2025  0.4112 -0.3515
 5231TIP3    H137108   1.600   6.555   3.144  0.2950 -0.8713 -1.3607
 5231TIP3    H237109   1.731   6.513   3.207  0.1932  0.9703  0.1495
 5232TIP3   OH237110   5.111   6.685   0.119 -0.2736  0.2795  0.3533
 5232TIP3    H137111   5.046   6.632   0.165  1.4556 -1.8474  0.5082
 5232TIP3    H237112   5.089   6.676   0.027 -1.3081  1.1880  0.4874
 5233TIP3   OH237113   4.094   4.776   1.495  0.0810 -0.7418 -0.1187
 5233TIP3    H137114   4.088   4.681   1.482 -2.7419 -0.4988 -1.6179
 5233TIP3    H237115   4.052   4.812   1.417 -1.7777  1.6059  1.8206
 5234TIP3   OH237116   3.936   1.246  14.975 -0.5092  0.0013  0.0878
 5234TIP3    H137117   3.908   1.154  14.978 -0.0655 -0.1171  0.8583
 5234TIP3    H237118   3.880   1.290  15.039 -0.4634  0.1909 -0.0028
 5235TIP3   OH237119   4.937   1.871  13.057  0.4786  0.2216  0.4397
 5235TIP3    H137120   4.955   1.817  12.979  0.0212 -0.7662  0.9919
 5235TIP3    H237121   4.851   1.909  13.040  0.3661 -0.0159  0.4766
 5236TIP3   OH237122   6.757   2.938  16.380 -0.4891  0.3869 -0.4463
 5236TIP3    H137123   6.709   3.019  16.365 -0.5957  0.1554 -1.3743
 5236TIP3    H237124   6.722   2.876  16.316 -0.3278 -0.3627  0.1706
 5237TIP3   OH237125   4.260   1.278  12.721 -0.0778 -0.1507  0.0635
 5237TIP3    H137126   4.274   1.255  12.629  0.2096  4.2028 -1.2046
 5237TIP3    H237127   4.298   1.205  12.769  1.2570 -1.8869 -3.2624
 5238TIP3   OH237128   5.240   6.488  15.897  0.2426  0.3315  0.4929
 5238TIP3    H137129   5.276   6.404  15.927  2.8729  1.2919  0.2913
 5238TIP3    H237130   5.189   6.520  15.971 -1.3958 -1.7029  0.3359
 5239TIP3   OH237131   4.632   4.578  13.247 -0.2383 -0.5724 -0.1815
 5239TIP3    H137132   4.626   4.534  13.162 -0.7217 -2.1018  0.6096
 5239TIP3    H237133   4.647   4.670  13.225  0.8719 -1.1109 -1.9071
 5240TIP3   OH237134   3.395   4.093  15.992  0.3573 -0.0869 -0.5476
 5240TIP3    H137135   3.480   4.108  15.951  0.1633 -0.2046 -1.0003
 5240TIP3    H237136   3.408   4.015  16.047  0.7991  0.4713  0.1572
 5241TIP3   OH237137   6.073   1.030   0.128 -0.0853 -0.0310  0.1159
 5241TIP3    H137138   5.993   1.029   0.180  0.4043 -0.3663  0.8814
 5241TIP3    H237139   6.134   1.084   0.179  0.7173 -1.1569  0.3833
 5242TIP3   OH237140   5.781   4.571  17.183  0.1139  0.3261 -0.3653
 5242TIP3    H137141   5.817   4.624  17.254 -0.9521 -0.1865  0.5796
 5242TIP3    H237142   5.821   4.608  17.103  2.2390  0.1624  0.5644
 5243TIP3   OH237143   6.746   5.111   2.820  0.6306  0.4240 -0.0686
 5243TIP3    H137144   6.735   5.196   2.862  0.6399 -0.0584  0.9429
 5243TIP3    H237145   6.817   5.124   2.758  2.8386  0.4187  2.2882
 5244TIP3   OH237146   0.620   4.764   2.557  0.5257 -0.5887 -0.0216
 5244TIP3    H137147   0.571   4.843   2.582  1.6892  0.2500 -0.3076
 5244TIP3    H237148   0.569   4.692   2.593  1.4994  0.4556  3.9085
 5245TIP3   OH237149   1.319   3.729  13.191 -0.3996  0.3526  0.0999
 5245TIP3    H137150   1.324   3.765  13.280 -1.6788  2.1921 -0.5144
 5245TIP3    H237151   1.371   3.789  13.138  0.7145 -0.9718 -0.3647
 5246TIP3   OH237152   2.668   0.271  17.291  0.1936  0.0341 -0.0129
 5246TIP3    H137153   2.722   0.345  17.319  1.2680 -0.2502 -1.2330
 5246TIP3    H237154   2.599   0.310  17.238 -0.2089  0.3053  0.7027
 5247TIP3   OH237155   0.778   6.700   5.358  0.3072  0.2730 -0.4122
 5247TIP3    H137156   0.782   6.661   5.270 -0.3962  0.2098 -0.4245
 5247TIP3    H237157   0.704   6.656   5.400  1.2406 -0.4005  0.5671
 5248TIP3   OH237158   2.383   4.139   1.606  0.4766  0.0209  0.0731
 5248TIP3    H137159   2.404   4.064   1.662 -0.1135 -0.3816 -0.2301
 5248TIP3    H237160   2.357   4.208   1.667  0.0504 -0.3431  0.3135
 5249TIP3   OH237161   1.247   6.166  17.370  0.3031  0.3822 -0.5639
 5249TIP3    H137162   1.184   6.127  17.310 -0.2313 -1.8273  1.3058
 5249TIP3    H237163   1.295   6.229  17.316 -0.7323 -0.8117 -3.0557
 5250TIP3   OH237164   3.970   4.007   4.179 -0.3027  0.1374 -0.2435
 5250TIP3    H137165   4.034   3.937   4.191 -1.4108 -0.7265  0.9548
 5250TIP3    H237166   3.906   3.993   4.249 -1.9282  0.8224 -1.5252
 5251TIP3   OH237167   5.062   2.995  11.495  0.0161  0.4778  0.6506
 5251TIP3    H137168   5.082   3.088  11.483  0.9142 -0.0016 -2.6457
 5251TIP3    H237169   4.967   2.992  11.501 -0.0348  1.6149  0.7180
 5252TIP3   OH237170   0.456   0.811   1.146 -0.2269 -0.2163 -0.2047
 5252TIP3    H137171   0.424   0.898   1.168  1.7165  0.2018  1.2484
 5252TIP3    H237172   0.489   0.819   1.056  1.7188  1.1568  0.5614
 5253TIP3   OH237173   6.411   5.804  11.702  0.2355 -0.2437 -0.2188
 5253TIP3    H137174   6.472   5.739  11.738  0.8462 -0.5559 -1.7305
 5253TIP3    H237175   6.448   5.888  11.727  1.5346 -0.4174 -1.4318
 5254TIP3   OH237176   0.855   2.118   0.415  0.3148  0.0370 -0.4328
 5254TIP3    H137177   0.919   2.115   0.487  0.4813  0.0295 -0.5817
 5254TIP3    H237178   0.774   2.148   0.457  0.2897 -0.4177 -0.1545
 5255TIP3   OH237179   2.980   3.598  13.694  0.3376  0.0372 -0.1461
 5255TIP3    H137180   2.886   3.595  13.679  0.1679 -2.6555  0.8178
 5255TIP3    H237181   3.011   3.670  13.639 -2.1634  0.5101 -1.0737
 5256TIP3   OH237182   1.237   1.496  16.351  0.5683 -0.0978  0.1672
 5256TIP3    H137183   1.332   1.498  16.367  1.0713 -2.4173 -1.9357
 5256TIP3    H237184   1.208   1.412  16.385 -0.1562 -0.6730 -1.7518
 5257TIP3   OH237185   1.305   0.744   4.587 -0.1872 -0.0701 -0.5194
 5257TIP3    H137186   1.398   0.726   4.582 -0.2192 -0.0479 -1.1882
 5257TIP3    H237187   1.286   0.801   4.513 -1.0179 -1.3518 -1.3376
 5258TIP3   OH237188   4.591   1.321  16.545 -0.1052 -0.5590 -0.3609
 5258TIP3    H137189   4.531   1.285  16.610  1.7182 -1.8404  0.7218
 5258TIP3    H237190   4.613   1.246  16.490  1.3490 -0.4178 -0.0131
 5259TIP3   OH237191   4.923   1.545  13.143  0.4702 -0.4220  0.1588
 5259TIP3    H137192   4.830   1.527  13.134  0.2036  0.4647  0.9279
 5259TIP3    H237193   4.947   1.506  13.228  0.5324  0.3272  0.4937
 5260TIP3   OH237194   3.444   1.583   2.857 -0.0948 -0.9971  0.3183
 5260TIP3    H137195   3.446   1.598   2.763  1.0467 -1.5996  0.2268
 5260TIP3    H237196   3.460   1.489   2.867 -2.2172 -1.3460  1.0517
 5261TIP3   OH237197   2.352   4.336  14.749  0.0946  0.1033 -0.5303
 5261TIP3    H137198   2.387   4.370  14.667  0.7135  3.5632  0.9913
 5261TIP3    H237199   2.257   4.331  14.734  0.0316  2.0624 -1.0867
 5262TIP3   OH237200   2.944   0.272   4.078  0.0728 -0.5166 -1.0023
 5262TIP3    H137201   2.858   0.232   4.083 -0.0483 -0.1176  1.9381
 5262TIP3    H237202   2.993   0.217   4.016 -0.8853 -3.6915  0.8318
 5263TIP3   OH237203   2.545   0.877  12.736 -0.1129 -0.0754 -0.3763
 5263TIP3    H137204   2.632   0.843  12.756  0.0171 -0.2077 -1.1337
 5263TIP3    H237205   2.559   0.970  12.717  0.1581 -0.4670 -2.2679
 5264TIP3   OH237206   5.911   6.378  14.587  0.4034 -0.8039 -0.2737
 5264TIP3    H137207   5.903   6.283  14.589  0.2681 -0.7886  0.3266
 5264TIP3    H237208   5.821   6.409  14.575  0.4522 -0.7542 -0.5069
 5265TIP3   OH237209   2.229   2.505   5.424  0.2796 -0.1871  0.1648
 5265TIP3    H137210   2.146   2.550   5.408 -0.3984 -1.1429  0.8791
 5265TIP3    H237211   2.291   2.576   5.443 -0.2833  0.5609 -0.6862
 5266TIP3   OH237212   3.391   1.222   1.848  0.5340 -0.2133  0.2606
 5266TIP3    H137213   3.319   1.160   1.839  0.2907 -0.0105  0.7915
 5266TIP3    H237214   3.386   1.277   1.770  0.2139 -0.3019  0.2209
 5267TIP3   OH237215   2.849   1.079   6.544 -0.3931  0.8162  0.2846
 5267TIP3    H137216   2.885   1.132   6.472 -0.8873 -0.0315 -0.6087
 5267TIP3    H237217   2.863   1.133   6.622  2.1136  0.8580 -0.1062
 5268TIP3   OH237218   1.074   1.776   0.017  0.1190  0.1083  0.3829
 5268TIP3    H137219   1.102   1.703   0.073  0.0417 -0.1337  0.1125
 5268TIP3    H237220   1.033   1.838   0.077 -1.0364 -0.6825  0.4393
 5269TIP3   OH237221   3.923   3.532   1.328 -0.5146  0.0311  0.1639
 5269TIP3    H137222   4.001   3.578   1.359  0.8058 -1.2877 -1.0451
 5269TIP3    H237223   3.908   3.567   1.240 -1.2930  0.2824  0.3948
 5270TIP3   OH237224   5.892   1.503  14.258  0.4280  0.0891  0.3130
 5270TIP3    H137225   5.898   1.595  14.236  2.2745 -0.1029 -0.1543
 5270TIP3    H237226   5.819   1.470  14.205  1.6294  0.6776 -1.8223
 5271TIP3   OH237227   4.064   5.405  17.223 -0.3915 -0.4440  0.6060
 5271TIP3    H137228   4.025   5.474  17.276 -0.6685 -1.2215  1.4475
 5271TIP3    H237229   4.000   5.388  17.154 -0.2961  0.1609  0.3614
 5272TIP3   OH237230   5.670   4.550   5.524  0.6619  0.2177 -0.4941
 5272TIP3    H137231   5.604   4.618   5.512  0.7659  0.3542 -0.3283
 5272TIP3    H237232   5.710   4.539   5.438 -0.6275 -0.9894 -0.9599
 5273TIP3   OH237233   6.418   1.780  16.438  0.2751 -0.4085 -0.0543
 5273TIP3    H137234   6.437   1.828  16.519 -2.0823  1.5942 -0.5514
 5273TIP3    H237235   6.495   1.792  16.383  2.7520 -3.3800  2.4129
 5274TIP3   OH237236   1.277   0.697   0.345 -0.0894 -0.0842  0.2097
 5274TIP3    H137237   1.204   0.708   0.285  0.2180 -0.6839 -0.2790
 5274TIP3    H237238   1.320   0.783   0.347 -2.2672  1.0878  2.4807
 5275TIP3   OH237239   5.248   2.574  14.869  0.3979 -0.3620 -0.2366
 5275TIP3    H137240   5.202   2.619  14.940 -0.1345  0.2704 -0.9685
 5275TIP3    H237241   5.297   2.504  14.912 -0.2126 -0.2143  0.7066
 5276TIP3   OH237242   2.501   0.026   2.377 -0.3668 -0.0138  0.5431
 5276TIP3    H137243   2.548   0.079   2.441  1.1695 -0.6519 -0.0195
 5276TIP3    H237244   2.449  -0.035   2.430  2.7632 -2.2476  1.3662
 5277TIP3   OH237245   2.501   5.097   5.787 -0.3674 -0.4061 -0.0446
 5277TIP3    H137246   2.479   5.142   5.869  0.6574  0.9365 -0.4790
 5277TIP3    H237247   2.475   5.006   5.802  0.7947 -0.4386  2.1978
 5278TIP3   OH237248   4.760   5.624  11.065 -0.4837  0.0417  0.1671
 5278TIP3    H137249   4.809   5.679  11.003 -1.2586 -0.2314 -0.7063
 5278TIP3    H237250   4.810   5.542  11.069  0.8467  0.8620  1.7028
 5279TIP3   OH237251   4.720   2.401   1.978  0.4621 -0.1027 -0.0138
 5279TIP3    H137252   4.785   2.440   1.920 -0.0240  0.4479 -0.1982
 5279TIP3    H237253   4.637   2.414   1.933 -0.0065  0.9187  1.0907
 5280TIP3   OH237254   2.571   5.514   4.631 -0.2440  0.3255 -0.3715
 5280TIP3    H137255   2.664   5.501   4.645 -0.1414  1.6515  0.4125
 5280TIP3    H237256   2.532   5.505   4.718 -1.1393 -2.1238 -0.9641
 5281TIP3   OH237257   4.538   5.415   1.423 -0.1672  0.4721 -0.7945
 5281TIP3    H137258   4.447   5.440   1.438 -0.0206  1.3731 -1.3900
 5281TIP3    H237259   4.579   5.493   1.387  0.8364  0.0567 -0.5745
 5282TIP3   OH237260   5.145   4.634   0.025 -0.2272  0.2173 -0.0413
 5282TIP3    H137261   5.152   4.635   0.121  0.0445 -1.1772 -0.0378
 5282TIP3    H237262   5.226   4.675  -0.005 -0.5143  1.0821  0.3130
 5283TIP3   OH237263   4.405   6.031   2.826 -0.7733 -0.5442 -0.2825
 5283TIP3    H137264   4.461   6.032   2.904 -0.1801  0.8203 -0.6871
 5283TIP3    H237265   4.452   5.977   2.763  0.4286  1.0246 -0.8065
 5284TIP3   OH237266   3.161   0.173   3.109  0.0571 -0.4324  0.0194
 5284TIP3    H137267   3.089   0.230   3.136 -0.2491 -0.1744 -1.2741
 5284TIP3    H237268   3.187   0.129   3.189 -2.2398 -1.3195  0.3654
 5285TIP3   OH237269   6.307   3.852   1.748  0.2146 -0.0012  0.2714
 5285TIP3    H137270   6.311   3.764   1.709 -2.7458  0.5727 -1.6325
 5285TIP3    H237271   6.250   3.842   1.824  1.7018 -0.0700  1.4380
 5286TIP3   OH237272   5.364   0.145  13.898  0.4007 -0.6028  0.3729
 5286TIP3    H137273   5.326   0.232  13.911 -2.0656 -1.5302 -0.0369
 5286TIP3    H237274   5.352   0.127  13.805  0.8757 -1.3863  0.4536
 5287TIP3   OH237275   5.618   4.900  14.995  0.2997 -0.1947  0.2819
 5287TIP3    H137276   5.710   4.891  14.971 -0.0229 -0.3117 -0.9772
 5287TIP3    H237277   5.581   4.956  14.926 -0.4987  0.1606  0.9760
 5288TIP3   OH237278   2.117   0.343   3.980 -0.2578  0.2532  0.3445
 5288TIP3    H137279   2.041   0.379   4.026 -1.0263 -0.6583 -0.1795
 5288TIP3    H237280   2.121   0.252   4.008  0.8014  0.3607  0.5585
 5289TIP3   OH237281   0.073   1.967  14.105 -0.2045 -0.0075  0.2200
 5289TIP3    H137282   0.027   1.987  14.023 -1.9947  0.0810  1.2017
 5289TIP3    H237283   0.017   2.002  14.174  0.6514 -1.1419  1.5663
 5290TIP3   OH237284   5.351   3.037   3.749 -0.6372 -0.3301 -0.4024
 5290TIP3    H137285   5.350   2.977   3.675 -0.1311 -0.5391 -0.2436
 5290TIP3    H237286   5.260   3.068   3.756 -0.8482 -0.8796 -0.6421
 5291TIP3   OH237287   1.240   4.399   1.344  0.6496  0.3620 -0.6204
 5291TIP3    H137288   1.168   4.368   1.399  2.0363  0.8275  1.6061
 5291TIP3    H237289   1.277   4.320   1.305  1.5061 -0.4194  1.6112
 5292TIP3   OH237290   1.561   3.670   2.001  0.2896  0.5984 -0.3845
 5292TIP3    H137291   1.611   3.725   2.061  0.5477  0.1563 -0.1858
 5292TIP3    H237292   1.529   3.730   1.934 -1.4371  1.4146  1.0914
 5293TIP3   OH237293   4.350   2.297   3.390  0.2453 -1.1475 -0.0451
 5293TIP3    H137294   4.434   2.343   3.387 -0.6893  1.0804  2.8045
 5293TIP3    H237295   4.364   2.228   3.456 -0.4060 -0.0241  1.3146
 5294TIP3   OH237296   2.370   0.735   5.150  0.6614  0.1064  0.3597
 5294TIP3    H137297   2.434   0.799   5.117  1.2344 -0.9355 -0.6380
 5294TIP3    H237298   2.415   0.651   5.142 -0.4578 -0.5357  0.6690
 5295TIP3   OH237299   0.979   5.404  12.690 -0.1293  0.7760 -0.2361
 5295TIP3    H137300   1.041   5.436  12.624 -0.3474 -0.1993 -0.9321
 5295TIP3    H237301   0.957   5.481  12.742  2.8225  0.9441  1.0061
 5296TIP3   OH237302   5.634   0.365  15.124  0.0200  0.3836  0.1105
 5296TIP3    H137303   5.558   0.355  15.067  0.8745 -0.4149 -0.9481
 5296TIP3    H237304   5.707   0.326  15.074  0.6206 -1.4272  2.1914
 5297TIP3   OH237305   1.274   4.062  13.314  0.1164  0.3594 -0.3489
 5297TIP3    H137306   1.242   3.978  13.345  2.6685 -0.0173  1.5199
 5297TIP3    H237307   1.368   4.050  13.305  0.4927  2.8908 -0.4407
 5298TIP3   OH237308   0.638   5.507   1.786  0.1036  0.1142 -0.4444
 5298TIP3    H137309   0.573   5.573   1.810  0.8268 -0.7007  5.0760
 5298TIP3    H237310   0.590   5.444   1.732 -1.8500  2.5675 -1.7710
 5299TIP3   OH237311   1.225   5.568   2.973 -0.2609 -0.2692  0.2681
 5299TIP3    H137312   1.309   5.614   2.961 -1.0764  1.2126  0.0732
 5299TIP3    H237313   1.218   5.512   2.896  1.1546 -1.4211  0.9298
 5300TIP3   OH237314   3.335   0.473   5.601 -0.5908  0.1749 -0.1157
 5300TIP3    H137315   3.400   0.524   5.650 -0.9166  2.0184 -1.4958
 5300TIP3    H237316   3.290   0.421   5.668  1.1031  0.1723  1.0939
 5301TIP3   OH237317   3.933   2.902   6.207  0.4410 -0.6718 -0.5991
 5301TIP3    H137318   3.950   2.956   6.284 -0.7875 -0.2191 -0.6034
 5301TIP3    H237319   3.907   2.966   6.140 -1.1232 -1.2311 -0.5814
 5302TIP3   OH237320   3.847   4.082   6.095 -0.2923 -0.0483 -0.5312
 5302TIP3    H137321   3.801   4.043   6.169 -1.5890  1.0579 -0.7049
 5302TIP3    H237322   3.932   4.108   6.130 -0.9376  0.5810  0.6230
 5303TIP3   OH237323   1.918   0.494  15.922  0.6970  0.0813  0.8837
 5303TIP3    H137324   1.953   0.562  15.980  0.5650  1.8395 -0.9564
 5303TIP3    H237325   1.923   0.413  15.973 -0.1745  1.6122  3.6056
 5304TIP3   OH237326   2.059   3.453  12.100 -0.0016 -0.0109 -0.1092
 5304TIP3    H137327   2.017   3.418  12.179  0.4026  1.5759  0.8376
 5304TIP3    H237328   2.147   3.479  12.129 -0.7303  3.0602 -0.4019
 5305TIP3   OH237329   4.720   3.085   2.819 -0.3426  0.5756  0.2432
 5305TIP3    H137330   4.770   3.128   2.749  0.2610  1.2171  1.0516
 5305TIP3    H237331   4.736   3.139   2.896 -2.2926  0.7973  0.5398
 5306TIP3   OH237332   5.234   6.649  11.267  0.0056 -0.3184 -0.0230
 5306TIP3    H137333   5.145   6.675  11.292  0.0380 -0.5070  0.2994
 5306TIP3    H237334   5.277   6.730  11.240  0.5328  0.2273  2.2405
 5307TIP3   OH237335   4.964   0.149  12.639 -0.3690  0.5680  0.5173
 5307TIP3    H137336   4.985   0.206  12.564  0.9513 -0.5592 -0.0219
 5307TIP3    H237337   4.913   0.205  12.698 -1.7401  1.4032 -1.3595
 5308TIP3   OH237338   4.015   6.155  14.609 -0.4900  0.3747  0.5672
 5308TIP3    H137339   4.110   6.163  14.600 -0.5398  1.8027  1.1133
 5308TIP3    H237340   3.994   6.072  14.565  0.8208  0.7442 -0.8466
 5309TIP3   OH237341   5.977   1.316  15.077  0.3989 -0.0230  0.6099
 5309TIP3    H137342   6.067   1.296  15.054  0.2292  1.0836 -1.1641
 5309TIP3    H237343   5.938   1.350  14.997 -1.0493  1.3768  1.8357
 5310TIP3   OH237344   6.665   0.651  11.685 -0.3072 -0.1886  0.3080
 5310TIP3    H137345   6.704   0.590  11.622  0.3596 -0.1754  0.6962
 5310TIP3    H237346   6.577   0.668  11.651  0.2134  0.2025 -0.8942
 5311TIP3   OH237347   5.893   6.303   5.984 -0.1791 -0.4173 -0.4309
 5311TIP3    H137348   5.897   6.311   5.889  0.6252  0.6439 -0.3285
 5311TIP3    H237349   5.974   6.258   6.008  0.5851  1.0835 -0.1055
 5312TIP3   OH237350   5.397   5.555   3.353 -0.4579  0.1186  0.0132
 5312TIP3    H137351   5.400   5.477   3.299  1.4702  0.4684 -0.4760
 5312TIP3    H237352   5.314   5.549   3.400 -0.9245 -1.5651 -0.9480
 5313TIP3   OH237353   6.137   3.449   3.420 -0.2652 -0.0722 -0.1689
 5313TIP3    H137354   6.087   3.420   3.497  0.5463 -0.8161  0.0864
 5313TIP3    H237355   6.087   3.416   3.346 -0.1741 -0.7846  0.0818
 5314TIP3   OH237356   1.315   5.544   6.134  0.1477 -0.6911  0.3300
 5314TIP3    H137357   1.388   5.489   6.103  1.3499  0.7582  0.4839
 5314TIP3    H237358   1.246   5.532   6.069  0.1216 -2.8414  0.6744
 5315TIP3   OH237359   2.174   6.734  16.538 -0.3869 -0.2017  0.2177
 5315TIP3    H137360   2.122   6.695  16.468 -1.2508  2.0535 -0.4825
 5315TIP3    H237361   2.249   6.772  16.494 -0.5258  0.5458  0.5983
 5316TIP3   OH237362   3.903   4.027   3.345 -0.1305  0.3055  0.1765
 5316TIP3    H137363   3.902   3.933   3.327 -0.3229  0.4354 -0.5368
 5316TIP3    H237364   3.810   4.052   3.346 -0.0680  0.5593 -0.0688
 5317TIP3   OH237365   5.072   3.263  14.067 -0.1599  0.0797  0.3702
 5317TIP3    H137366   5.153   3.309  14.047 -1.0754  1.6522  0.1366
 5317TIP3    H237367   5.031   3.247  13.982 -0.5884  0.2328  0.5421
 5318TIP3   OH237368   5.862   5.546   0.361  0.5241  0.2600  0.0970
 5318TIP3    H137369   5.935   5.599   0.395 -1.5346  3.0205  0.5214
 5318TIP3    H237370   5.850   5.477   0.427  3.0414 -0.6708 -0.2880
 5319TIP3   OH237371   5.330   1.329   2.301  0.1124  0.4151 -0.0339
 5319TIP3    H137372   5.410   1.339   2.249  0.6467  0.8366  0.8383
 5319TIP3    H237373   5.353   1.366   2.386 -0.6603 -0.4748  0.5826
 5320TIP3   OH237374   0.425   2.545  16.026  0.0298  0.3376 -0.4785
 5320TIP3    H137375   0.363   2.478  15.997 -1.0814  0.5522  1.2451
 5320TIP3    H237376   0.489   2.551  15.955 -0.8949 -1.1984 -1.5015
 5321TIP3   OH237377   3.922   5.808  15.093 -0.0949 -0.2836  0.1614
 5321TIP3    H137378   3.913   5.883  15.152  1.4298 -0.1739  0.2759
 5321TIP3    H237379   3.868   5.740  15.133 -1.8805  0.8390 -0.1789
 5322TIP3   OH237380   3.891   6.572  14.590 -0.4948 -0.4982  0.3267
 5322TIP3    H137381   3.910   6.518  14.514 -0.1641  1.1407 -0.8186
 5322TIP3    H237382   3.859   6.511  14.656  2.3930 -2.4938  0.0756
 5323TIP3   OH237383   1.920   4.389   1.491  0.0408  0.8084  0.5715
 5323TIP3    H137384   1.860   4.463   1.475 -0.6347  0.3539  0.9513
 5323TIP3    H237385   1.875   4.336   1.556 -0.9846 -1.6069 -1.9115
 5324TIP3   OH237386   1.911   1.256  12.225 -0.4463  1.0470  0.0375
 5324TIP3    H137387   1.836   1.233  12.280  0.1455 -0.2399  0.3491
 5324TIP3    H237388   1.954   1.326  12.273 -0.1001  0.1298  1.1130
 5325TIP3   OH237389   0.352   5.116   4.326  0.3109  0.5560 -0.2173
 5325TIP3    H137390   0.432   5.118   4.274  0.4253  3.2657 -0.0637
 5325TIP3    H237391   0.378   5.075   4.408  1.3532  0.7455 -0.4348
 5326TIP3   OH237392   6.599   4.325  15.797 -0.1201 -0.7157 -0.0958
 5326TIP3    H137393   6.511   4.299  15.827 -0.6250  1.9908  1.0230
 5326TIP3    H237394   6.649   4.335  15.878  0.6241 -0.2500 -0.6110
 5327TIP3   OH237395   6.202   6.505  12.776 -0.7698 -0.6146  0.5688
 5327TIP3    H137396   6.262   6.558  12.724 -1.6157  1.5150  1.6453
 5327TIP3    H237397   6.252   6.482  12.854 -0.8229 -0.2481  0.7125
 5328TIP3   OH237398   4.524   6.314   3.906 -0.4059 -0.8385 -0.0162
 5328TIP3    H137399   4.590   6.314   3.976 -0.9948  2.3135  0.7068
 5328TIP3    H237400   4.506   6.221   3.890  2.0403 -1.7391  1.7964
 5329TIP3   OH237401   2.844   3.274   4.350  0.4010 -0.1144  0.4958
 5329TIP3    H137402   2.760   3.312   4.372 -0.1031 -1.1708  0.4548
 5329TIP3    H237403   2.838   3.255   4.256  0.5529 -0.4996  0.5618
 5330TIP3   OH237404   5.547   4.743   4.595 -0.2564  0.2372  0.0489
 5330TIP3    H137405   5.482   4.812   4.613  0.1211  0.8673 -0.9141
 5330TIP3    H237406   5.554   4.742   4.499  1.8406  0.8448  0.1480
 5331TIP3   OH237407   5.077   3.290  11.467 -0.0567 -0.5212 -0.1028
 5331TIP3    H137408   5.049   3.349  11.536 -0.1213 -0.0025 -0.5652
 5331TIP3    H237409   5.155   3.331  11.430 -0.4129 -0.4397 -0.7839
 5332TIP3   OH237410   4.911   2.922  15.991  0.2954 -0.1114 -0.1914
 5332TIP3    H137411   4.831   2.974  16.002  1.1583  1.2678 -0.1240
 5332TIP3    H237412   4.978   2.987  15.970  1.4364 -1.2170 -0.0524
 5333TIP3   OH237413   2.933   4.961   2.336 -0.1872 -0.0671  0.0870
 5333TIP3    H137414   2.880   5.038   2.358  0.9869  0.5596  0.8054
 5333TIP3    H237415   2.900   4.933   2.250 -1.1814  0.7362  0.1867
 5334TIP3   OH237416   2.080   4.813   3.042  0.4627  0.3950  0.2215
 5334TIP3    H137417   2.157   4.798   3.097  0.0159  0.6494  0.9359
 5334TIP3    H237418   2.109   4.794   2.953  1.7988  2.0030  0.2794
 5335TIP3   OH237419   2.830   5.131  10.724 -0.7669 -0.4596  0.5198
 5335TIP3    H137420   2.838   5.203  10.661 -0.7100  0.3328  1.4092
 5335TIP3    H237421   2.882   5.159  10.800  0.4116 -2.0501  0.3700
 5336TIP3   OH237422   5.688   3.874   2.143  0.2421 -0.3356  0.6911
 5336TIP3    H137423   5.634   3.808   2.187  0.4092 -0.3659  0.8558
 5336TIP3    H237424   5.778   3.848   2.163  0.3557 -0.8615 -0.3941
 5337TIP3   OH237425   1.191   0.201   5.796 -0.7609 -0.4511 -0.2141
 5337TIP3    H137426   1.211   0.285   5.837 -1.3906  0.2222 -1.2655
 5337TIP3    H237427   1.164   0.145   5.870  0.2187  0.0692  0.5683
 5338TIP3   OH237428   6.357   0.852   3.189  0.4601  0.1956  0.0449
 5338TIP3    H137429   6.308   0.849   3.107  0.3470  0.6256  0.0922
 5338TIP3    H237430   6.357   0.945   3.213  1.2732  0.1992  0.0586
 5339TIP3   OH237431   5.730   0.682  13.133 -0.3264 -0.1116  0.4407
 5339TIP3    H137432   5.744   0.624  13.058  0.0173 -0.4555  0.7588
 5339TIP3    H237433   5.635   0.690  13.141 -0.3566  0.4284 -0.4039
 5340TIP3   OH237434   1.113   1.272   1.000 -0.0475 -0.1524 -0.1330
 5340TIP3    H137435   1.118   1.178   1.020 -0.9353  0.0282  1.0695
 5340TIP3    H237436   1.062   1.277   0.919 -1.0308 -0.6655  0.4340
 5341TIP3   OH237437   4.359   6.433   6.728 -0.0570  0.3822  0.0045
 5341TIP3    H137438   4.428   6.386   6.775  0.1929  0.6411 -0.1028
 5341TIP3    H237439   4.353   6.388   6.643 -0.8698 -0.4188  0.4686
 5342TIP3   OH237440   2.198   5.331  15.636 -0.4700 -0.2744  0.3878
 5342TIP3    H137441   2.150   5.384  15.571  0.5246  0.2699  0.0814
 5342TIP3    H237442   2.240   5.396  15.692 -0.8240 -0.7515  1.2137
 5343TIP3   OH237443   3.289   4.181  16.894 -0.2245 -0.6263 -0.3300
 5343TIP3    H137444   3.218   4.243  16.906  0.0844 -0.2479 -0.4531
 5343TIP3    H237445   3.353   4.203  16.962 -0.8546 -1.8848  0.7225
 5344TIP3   OH237446   5.785   3.628  15.600 -0.1478 -0.3435 -0.6051
 5344TIP3    H137447   5.815   3.648  15.688 -2.6592 -0.6337  0.3973
 5344TIP3    H237448   5.776   3.713  15.557 -2.3235  0.1442  0.6772
 5345TIP3   OH237449   1.741   0.069   2.664 -0.3207  0.1038 -0.0976
 5345TIP3    H137450   1.817   0.036   2.712 -0.3381  0.6909  0.3464
 5345TIP3    H237451   1.777   0.130   2.600 -0.4533  0.8434  0.5145
 5346TIP3   OH237452   0.051   6.467  13.888 -0.0800  0.2008  0.2550
 5346TIP3    H137453  -0.029   6.478  13.940  0.2168  1.4282  0.4677
 5346TIP3    H237454   0.022   6.476  13.797 -0.0822  1.3638  0.3616
 5347TIP3   OH237455   6.329   4.261  13.113  0.3975  0.0393 -0.2362
 5347TIP3    H137456   6.337   4.170  13.085  1.4531 -0.4607  1.4997
 5347TIP3    H237457   6.299   4.255  13.204  2.4102  1.3181  0.5669
 5348TIP3   OH237458   0.137   1.904   4.230  0.4501 -0.2988 -0.9518
 5348TIP3    H137459   0.091   1.986   4.247  1.7989  0.2516  0.2518
 5348TIP3    H237460   0.110   1.879   4.141  0.1134  1.5078 -1.3978
 5349TIP3   OH237461   1.818   1.313  16.991 -1.0412 -0.1951 -0.2906
 5349TIP3    H137462   1.881   1.367  17.039 -0.8548  0.7942 -1.5742
 5349TIP3    H237463   1.805   1.360  16.908 -0.6108 -2.3102 -1.6303
 5350TIP3   OH237464   4.818   1.678  12.911 -0.1459  0.5415  0.5985
 5350TIP3    H137465   4.855   1.653  12.995 -0.5028 -0.6192  0.4214
 5350TIP3    H237466   4.723   1.668  12.922 -0.1916  0.2999  0.0349
 5351TIP3   OH237467   4.954   4.504   1.475  0.2527  0.0841 -0.0939
 5351TIP3    H137468   5.014   4.461   1.414 -0.0416 -0.6052  0.0919
 5351TIP3    H237469   4.867   4.485   1.440  0.1175  0.4487  0.0437
 5352TIP3   OH237470   0.874   3.408   4.635 -0.2473 -0.2796  0.5147
 5352TIP3    H137471   0.797   3.463   4.623  0.2818 -0.0007 -2.6916
 5352TIP3    H237472   0.852   3.326   4.591  1.0639 -0.3702 -0.0222
 5353TIP3   OH237473   6.214   3.104   1.534 -0.0359 -0.1467 -0.1599
 5353TIP3    H137474   6.301   3.067   1.547  0.4409  0.6387 -0.9454
 5353TIP3    H237475   6.203   3.165   1.607 -0.6907 -1.5669  0.9514
 5354TIP3   OH237476   2.991   3.535   6.320  0.2086  0.0713  0.7243
 5354TIP3    H137477   2.907   3.490   6.334  0.1094 -0.9001 -2.2162
 5354TIP3    H237478   2.967   3.618   6.278  0.6784 -0.2126 -0.1363
 5355TIP3   OH237479   5.733   6.521  14.866  0.0082 -0.1014 -0.1835
 5355TIP3    H137480   5.806   6.532  14.805 -0.0171  0.3714 -0.1353
 5355TIP3    H237481   5.695   6.608  14.873  0.3867 -0.0116  0.9735
 5356TIP3   OH237482   4.214   4.277   4.520 -0.9374  0.4734  0.2992
 5356TIP3    H137483   4.118   4.285   4.513 -1.0379 -1.1815 -0.7781
 5356TIP3    H237484   4.228   4.238   4.606 -1.0249  2.9098  1.5016
 5357TIP3   OH237485   4.307   4.911   1.113  0.9691  0.5827 -0.4954
 5357TIP3    H137486   4.355   4.828   1.121 -0.1123 -0.0600 -0.4712
 5357TIP3    H237487   4.224   4.895   1.158  0.2411  1.2769 -1.5446
 5358TIP3   OH237488   1.227   2.551   2.237 -0.6346 -0.3711  0.1915
 5358TIP3    H137489   1.181   2.589   2.312  2.0270  1.2140  1.1584
 5358TIP3    H237490   1.303   2.508   2.275 -0.4727 -1.6253 -1.4541
 5359TIP3   OH237491   1.473   1.812   2.883 -0.4946 -0.0144 -0.6103
 5359TIP3    H137492   1.448   1.886   2.940 -0.8813 -2.6101  2.9454
 5359TIP3    H237493   1.392   1.764   2.871  0.4118 -1.9488  0.5868
 5360TIP3   OH237494   0.914   5.618  16.469 -0.1295  0.7183 -0.2218
 5360TIP3    H137495   0.902   5.545  16.530  1.4856  0.0695 -0.6282
 5360TIP3    H237496   0.825   5.651  16.453 -0.7791 -0.4239  0.8505
 5361TIP3   OH237497   3.064   6.054   5.995  0.0813  0.4346  0.0872
 5361TIP3    H137498   3.019   6.128   5.953  0.5234  1.1120  0.7851
 5361TIP3    H237499   3.156   6.080   5.999  0.1482  0.1127  0.8979
 5362TIP3   OH237500   2.159   5.628   1.596 -0.3560  0.6256 -0.1477
 5362TIP3    H137501   2.231   5.654   1.538  0.2473 -0.2707  0.1877
 5362TIP3    H237502   2.090   5.600   1.536 -1.6795  4.3366 -0.6383
 5363TIP3   OH237503   2.597   4.844   5.453 -0.0072  0.1696 -0.4525
 5363TIP3    H137504   2.638   4.925   5.481 -0.0463  0.5734 -1.5409
 5363TIP3    H237505   2.647   4.775   5.497  1.7503  0.6546 -1.6087
 5364TIP3   OH237506   2.272   5.575   4.644  1.0929  0.4242  0.3101
 5364TIP3    H137507   2.328   5.564   4.568  1.7437 -2.2070  1.0565
 5364TIP3    H237508   2.312   5.647   4.693  0.3101  2.5786 -2.0103
 5365TIP3   OH237509   4.195   6.769   1.316  0.2106  0.7018  0.0058
 5365TIP3    H137510   4.241   6.701   1.365  0.2853  0.4649 -0.3863
 5365TIP3    H237511   4.193   6.736   1.226  1.3587  1.8070 -0.4408
 5366TIP3   OH237512   5.446   4.174  12.105 -0.5044  0.1089 -0.3289
 5366TIP3    H137513   5.373   4.111  12.102  0.1399 -0.6182 -1.6064
 5366TIP3    H237514   5.437   4.225  12.025 -1.4686  2.2408  1.0558
 5367TIP3   OH237515   0.384   4.043   5.561  0.3064  0.0832  0.3143
 5367TIP3    H137516   0.297   4.040   5.521 -0.0644  2.0426  0.8467
 5367TIP3    H237517   0.373   4.000   5.645 -0.7748  2.1401  1.3204
 5368TIP3   OH237518   4.966   4.887   0.536 -0.2144  0.2966  0.0543
 5368TIP3    H137519   4.932   4.905   0.449 -0.6699  1.6895  0.5071
 5368TIP3    H237520   4.897   4.837   0.579 -0.4467  0.5642 -0.0084
 5369TIP3   OH237521   1.518   3.507   6.037 -0.2376 -0.8594  0.3345
 5369TIP3    H137522   1.515   3.491   6.131  0.6525  0.0293  0.5265
 5369TIP3    H237523   1.437   3.468   6.004 -0.7347 -0.8723  1.5109
 5370TIP3   OH237524   5.379   5.319  15.431  0.0466 -0.0334  0.0881
 5370TIP3    H137525   5.313   5.366  15.380  1.7122  2.0834 -0.2442
 5370TIP3    H237526   5.395   5.375  15.507  0.5157 -1.1622  0.8434
 5371TIP3   OH237527   3.096   0.203   2.051 -0.4371  0.1760  0.3807
 5371TIP3    H137528   3.075   0.185   2.142  0.9820  1.8280  1.0865
 5371TIP3    H237529   3.090   0.298   2.044  0.9664  0.2011 -0.8544
 5372TIP3   OH237530   2.279   6.384   2.689 -0.1459 -0.6056  0.0094
 5372TIP3    H137531   2.338   6.343   2.753  1.4173 -1.8284 -2.0840
 5372TIP3    H237532   2.237   6.310   2.646 -1.8139  0.2218  0.1633
 5373TIP3   OH237533   2.348   0.731  15.252  0.6292 -0.1741  0.4042
 5373TIP3    H137534   2.396   0.813  15.250 -0.2135  0.3359  0.7429
 5373TIP3    H237535   2.372   0.691  15.336  1.7421 -0.7249 -0.1489
 5374TIP3   OH237536   3.331   4.219   5.910 -0.3001  0.1174  0.0466
 5374TIP3    H137537   3.376   4.147   5.953 -2.1139 -1.5021 -0.6536
 5374TIP3    H237538   3.278   4.259   5.979  0.7562  0.8984  0.4492
 5375TIP3   OH237539   1.770   5.487   2.201 -0.0235  0.1406  0.4292
 5375TIP3    H137540   1.683   5.505   2.237  0.0826  1.0986  0.2416
 5375TIP3    H237541   1.803   5.573   2.175 -0.2703 -0.4854 -2.3200
 5376TIP3   OH237542   3.901   1.004   1.015  0.2901 -0.4931  0.2444
 5376TIP3    H137543   3.806   0.993   1.027 -0.0013 -0.3454 -1.6239
 5376TIP3    H237544   3.919   0.962   0.931  1.2360  2.7115 -1.2966
 5377TIP3   OH237545   2.562   6.557   0.346 -0.2471  0.3388 -0.3773
 5377TIP3    H137546   2.646   6.585   0.309 -0.4492  0.1889 -0.9514
 5377TIP3    H237547   2.559   6.601   0.432  0.9741 -0.6290  0.2061
 5378TIP3   OH237548   0.343   2.343   3.374  0.2861 -0.3366 -0.4280
 5378TIP3    H137549   0.253   2.316   3.356  0.7920 -1.4834 -1.3881
 5378TIP3    H237550   0.369   2.289   3.449  1.1176 -2.2556 -2.0090
 5379TIP3   OH237551   1.673   0.703   2.815 -1.0317 -0.5927  0.7741
 5379TIP3    H137552   1.635   0.692   2.902 -2.7434 -0.6807  0.0606
 5379TIP3    H237553   1.626   0.640   2.760  0.0448 -0.5713 -0.2207
 5380TIP3   OH237554   2.054   4.461   0.299  0.1664  0.4323  0.2138
 5380TIP3    H137555   2.034   4.405   0.224  0.5643  1.0217 -0.3415
 5380TIP3    H237556   2.085   4.543   0.261 -0.1050  0.9280  1.0172
 5381TIP3   OH237557   3.506   3.489  11.798 -0.0684  0.7825 -0.3512
 5381TIP3    H137558   3.491   3.397  11.821  1.3613  0.8892  1.1088
 5381TIP3    H237559   3.561   3.523  11.867  0.5994  2.3954 -1.6101
 5382TIP3   OH237560   2.391   5.672  14.580  0.0941  0.0652  0.5015
 5382TIP3    H137561   2.368   5.687  14.489  2.3128  0.3383 -0.0487
 5382TIP3    H237562   2.471   5.620  14.577 -0.2808 -0.7107  2.3245
 5383TIP3   OH237563   3.164   6.585  12.707 -0.1070  0.2564 -0.0179
 5383TIP3    H137564   3.082   6.571  12.754  0.5943  1.3752  1.6751
 5383TIP3    H237565   3.141   6.646  12.636 -0.5893  1.4058  1.0802
 5384TIP3   OH237566   5.903   3.237  12.983 -0.3006  0.2329 -0.3840
 5384TIP3    H137567   5.990   3.218  12.949 -0.2450 -0.4245  0.1007
 5384TIP3    H237568   5.908   3.216  13.076 -0.9091  0.4211 -0.3031
 5385TIP3   OH237569   5.636   0.884  11.432 -0.0936  0.2876  0.3388
 5385TIP3    H137570   5.708   0.947  11.432  0.3844 -0.2397  1.0177
 5385TIP3    H237571   5.559   0.935  11.406  0.3784  1.0319  0.3784
 5386TIP3   OH237572   1.327   2.581   3.778  0.2881 -0.2891 -0.5396
 5386TIP3    H137573   1.369   2.507   3.822  0.3593  1.2911  2.2599
 5386TIP3    H237574   1.242   2.589   3.821  0.1285  1.0305 -1.0609
 5387TIP3   OH237575   3.250   6.536  14.705  0.0666 -0.5192 -0.4464
 5387TIP3    H137576   3.242   6.610  14.765 -0.6528 -0.3859 -0.6946
 5387TIP3    H237577   3.193   6.469  14.741 -0.9881 -0.1571 -1.3762
 5388TIP3   OH237578   2.090   6.478  10.902  0.5336  0.0662  0.1433
 5388TIP3    H137579   2.152   6.448  10.967  0.1572  0.5690  0.7429
 5388TIP3    H237580   2.079   6.403  10.843  1.5977 -0.0677  0.0976
 5389TIP3   OH237581   6.719   1.586  14.737 -0.4631 -0.4530  0.3857
 5389TIP3    H137582   6.783   1.516  14.746  0.2931  0.3080  1.0570
 5389TIP3    H237583   6.771   1.665  14.725 -1.0661  0.6798  3.9615
 5390TIP3   OH237584   2.828   1.362   2.812 -0.1482 -0.3305 -0.2516
 5390TIP3    H137585   2.830   1.303   2.887 -1.1997 -0.2871 -0.1728
 5390TIP3    H237586   2.781   1.439   2.845 -1.4117 -0.6731 -1.1968
 5391TIP3   OH237587   5.323   1.449   4.050  0.1630  0.2549 -0.7028
 5391TIP3    H137588   5.369   1.396   4.115  1.5547 -0.0088 -1.8518
 5391TIP3    H237589   5.240   1.404   4.036  0.1324 -0.0419  0.4092
 5392TIP3   OH237590   1.765   5.476  15.662  0.2246 -0.1297  0.4212
 5392TIP3    H137591   1.719   5.552  15.699  1.3760  1.1690 -0.6872
 5392TIP3    H237592   1.804   5.510  15.581  0.5648 -1.9985 -0.2309
 5393TIP3   OH237593   5.200   2.156   3.985 -0.4964  0.0161 -0.2395
 5393TIP3    H137594   5.234   2.184   3.900  0.2619 -1.8417 -0.6124
 5393TIP3    H237595   5.108   2.135   3.968  0.3570 -3.4597 -1.5446
 5394TIP3   OH237596   4.604   2.821  15.017 -0.6617  0.1705 -0.5842
 5394TIP3    H137597   4.637   2.874  14.945 -1.3646  0.4926 -0.6788
 5394TIP3    H237598   4.559   2.747  14.975 -0.7376  0.1535 -0.4749
 5395TIP3   OH237599   2.239   1.702   1.063 -0.5685 -0.2261 -0.1671
 5395TIP3    H137600   2.283   1.618   1.078 -0.1048  0.2526  1.3742
 5395TIP3    H237601   2.288   1.743   0.992 -0.4939 -1.0423 -0.5963
 5396TIP3   OH237602   1.321   2.433  11.205  0.1700  0.0902 -0.5266
 5396TIP3    H137603   1.231   2.434  11.174 -0.1128  1.9327  0.2342
 5396TIP3    H237604   1.374   2.424  11.125 -0.6466 -0.3957 -1.0288
 5397TIP3   OH237605   1.243   5.509   0.451  0.2908 -0.6478  0.3703
 5397TIP3    H137606   1.236   5.521   0.545 -1.1114 -0.9050  0.3187
 5397TIP3    H237607   1.252   5.415   0.439  1.2644 -0.5534  0.2711
 5398TIP3   OH237608   0.293   5.498  10.544  0.1833 -0.3074  0.4597
 5398TIP3    H137609   0.237   5.505  10.467 -0.9852 -1.5507  1.1510
 5398TIP3    H237610   0.280   5.408  10.575 -0.3806  0.5047  2.8138
 5399TIP3   OH237611   0.054   5.977  12.177 -0.2580  0.3408 -0.2826
 5399TIP3    H137612  -0.015   6.042  12.194  0.3275  1.3489 -1.6320
 5399TIP3    H237613   0.112   5.983  12.253  0.1780  1.9174 -0.7255
 5400TIP3   OH237614   2.321   6.584   0.034 -0.4420 -0.2896  0.0154
 5400TIP3    H137615   2.265   6.601  -0.041 -0.1637 -1.0676 -0.3774
 5400TIP3    H237616   2.283   6.507   0.076 -0.0419 -0.4384  0.1139
 5401TIP3   OH237617   2.066   3.006   1.909  0.1470 -0.1890  0.3607
 5401TIP3    H137618   2.103   3.032   1.993  1.9782  1.2656 -0.8205
 5401TIP3    H237619   2.131   3.035   1.845 -0.9596 -1.7137 -1.5263
 5402TIP3   OH237620   4.566   2.321   4.636  0.2590  0.1316  0.0807
 5402TIP3    H137621   4.544   2.351   4.724  2.2163 -1.2673  1.1149
 5402TIP3    H237622   4.631   2.385   4.605 -2.0100  1.9381 -1.3658
 5403TIP3   OH237623   1.564   3.761   0.437 -0.2546 -0.6714 -0.2812
 5403TIP3    H137624   1.544   3.803   0.353 -1.0333 -0.5172 -0.0277
 5403TIP3    H237625   1.653   3.790   0.457 -0.7449  0.8393 -0.1357
 5404TIP3   OH237626   5.149   5.379   2.537 -0.2677  0.5336 -0.3279
 5404TIP3    H137627   5.133   5.457   2.590 -2.0764  0.0612 -0.1056
 5404TIP3    H237628   5.102   5.309   2.582 -0.0450 -0.3435 -1.3968
 5405TIP3   OH237629   1.075   5.460   3.448  0.0694 -0.2288  0.5249
 5405TIP3    H137630   1.126   5.384   3.420  0.0962 -0.4650  1.2065
 5405TIP3    H237631   1.124   5.535   3.413 -0.0421 -0.5164 -0.2885
 5406TIP3   OH237632   5.971   3.182   5.628 -0.0063  0.0689 -0.0566
 5406TIP3    H137633   5.938   3.101   5.665 -0.8759  0.9579  1.1891
 5406TIP3    H237634   5.977   3.165   5.534  0.6943 -1.7092  0.2766
 5407TIP3   OH237635   5.826   3.639  16.459 -0.0559 -0.7587  0.8084
 5407TIP3    H137636   5.916   3.631  16.430 -0.3694 -1.5111 -0.0201
 5407TIP3    H237637   5.825   3.601  16.547  0.7404  0.7663  1.5050
 5408TIP3   OH237638   5.807   6.449   5.417 -0.1286  0.1040  0.1031
 5408TIP3    H137639   5.868   6.520   5.401  0.4239 -0.2525  0.5948
 5408TIP3    H237640   5.814   6.393   5.340  1.2421 -0.6908  0.7577
 5409TIP3   OH237641   3.145   1.444   5.971 -0.3827 -0.0526 -0.0146
 5409TIP3    H137642   3.084   1.400   5.912  0.6700 -0.0458 -1.1379
 5409TIP3    H237643   3.196   1.373   6.011 -0.6457 -0.0156  0.3959
 5410TIP3   OH237644   5.351   1.877   1.716 -0.4313  0.0110  0.5716
 5410TIP3    H137645   5.429   1.843   1.760 -0.0166  0.2812  0.0626
 5410TIP3    H237646   5.325   1.808   1.655  0.6181  0.7114 -0.7149
 5411TIP3   OH237647   4.848   3.678  12.428  0.0488 -0.2933  0.4048
 5411TIP3    H137648   4.922   3.644  12.378  0.6781  0.7181  0.6294
 5411TIP3    H237649   4.881   3.759  12.468 -1.4571  0.6839 -0.2598
 5412TIP3   OH237650   4.673   2.024  12.788 -0.6447  0.1877  0.0020
 5412TIP3    H137651   4.733   2.099  12.780 -1.2637  0.8792  1.4782
 5412TIP3    H237652   4.706   1.961  12.724  3.0500 -0.4145  2.1986
 5413TIP3   OH237653   1.106   5.360   1.356  0.0943 -0.1158  0.4567
 5413TIP3    H137654   1.190   5.316   1.344 -0.0693 -0.2586 -0.2018
 5413TIP3    H237655   1.129   5.449   1.382  0.5547  0.6403 -2.1967
 5414TIP3   OH237656   6.658   2.629  12.522 -0.4648  0.6138 -0.4244
 5414TIP3    H137657   6.641   2.544  12.482 -1.8439  0.6966 -0.0402
 5414TIP3    H237658   6.586   2.685  12.494  0.7378  1.8507 -1.1570
 5415TIP3   OH237659   1.236   2.113   2.294 -0.3949  0.9362  0.4096
 5415TIP3    H137660   1.154   2.145   2.256 -0.4121  1.0293  0.5212
 5415TIP3    H237661   1.212   2.086   2.383 -0.5507 -0.1759  0.0418
 5416TIP3   OH237662   5.648   6.436  14.503 -0.2206  0.3822  0.3911
 5416TIP3    H137663   5.562   6.425  14.543  0.3400  2.1519  2.2273
 5416TIP3    H237664   5.646   6.525  14.465  1.1292  0.8882  1.4231
 5417TIP3   OH237665   5.493   3.926   3.023  0.0175  0.1351 -0.2120
 5417TIP3    H137666   5.544   4.001   2.993  2.3180 -1.3327 -0.2258
 5417TIP3    H237667   5.517   3.915   3.115 -1.5245  0.3492  0.2381
 5418TIP3   OH237668   6.678   5.036  15.823 -0.2014 -0.0678  0.2099
 5418TIP3    H137669   6.595   5.013  15.865  0.0572 -0.6221  0.4150
 5418TIP3    H237670   6.745   5.006  15.884  0.1639 -0.2441 -0.2786
 5419TIP3   OH237671   5.807   5.385  16.390  0.1134 -0.3169 -0.1359
 5419TIP3    H137672   5.882   5.359  16.336  1.0214 -1.2660  1.5132
 5419TIP3    H237673   5.846   5.411  16.474 -1.2752  0.8607  0.1783
 5420TIP3   OH237674   0.321   2.707   1.658  0.7389 -0.1315 -0.3538
 5420TIP3    H137675   0.276   2.724   1.740 -0.1709  0.3251 -0.9368
 5420TIP3    H237676   0.287   2.623   1.628  0.4011  0.1286 -0.7060
 5421TIP3   OH237677   6.474   6.402  11.165  0.1560 -0.1229  0.2954
 5421TIP3    H137678   6.488   6.398  11.071  0.1470  0.4743  0.2626
 5421TIP3    H237679   6.481   6.495  11.186 -0.7496 -0.1379  0.7363
 5422TIP3   OH237680   4.844   5.959  13.068  0.0581 -0.1364 -0.3084
 5422TIP3    H137681   4.754   5.963  13.036 -0.1135  0.8027  0.2623
 5422TIP3    H237682   4.892   5.915  12.998 -1.0928 -1.9308 -0.0355
 5423TIP3   OH237683   5.243   1.926   2.411 -0.4063  0.6916 -0.4602
 5423TIP3    H137684   5.198   2.002   2.374 -1.5341  0.5312  0.5095
 5423TIP3    H237685   5.180   1.854   2.401 -0.0079  0.2585  0.1025
 5424TIP3   OH237686   0.090   0.882  10.536 -0.4302  0.0121 -0.1168
 5424TIP3    H137687   0.135   0.882  10.452  1.4508  1.9495  0.7819
 5424TIP3    H237688   0.113   0.966  10.576  0.0900 -1.4444  3.0010
 5425TIP3   OH237689   6.118   4.293   1.541  0.1269  0.2069 -0.1495
 5425TIP3    H137690   6.110   4.256   1.453  0.5862  0.5287 -0.3300
 5425TIP3    H237691   6.115   4.217   1.599  0.9794 -0.1126 -0.5103
 5426TIP3   OH237692   1.105   1.414  11.484  0.0496 -0.2931 -0.1300
 5426TIP3    H137693   1.091   1.465  11.564  0.0999 -0.5800  0.0632
 5426TIP3    H237694   1.079   1.325  11.507  1.0416 -0.5896 -0.1192
 5427TIP3   OH237695   2.421   0.880  11.076  0.5995  0.5592 -0.1562
 5427TIP3    H137696   2.328   0.887  11.098 -0.0492 -0.9647 -2.1397
 5427TIP3    H237697   2.441   0.787  11.089  1.3550  0.5196 -1.5135
 5428TIP3   OH237698   2.535   1.225   0.760 -0.1035  0.5975  0.4999
 5428TIP3    H137699   2.560   1.207   0.670  1.1775  0.3577  0.8883
 5428TIP3    H237700   2.460   1.283   0.753 -0.2358  0.2989 -0.7189
 5429TIP3   OH237701   3.133   3.881  15.171 -0.3900 -0.3992 -0.2886
 5429TIP3    H137702   3.073   3.807  15.171 -0.5919 -0.2472 -1.1878
 5429TIP3    H237703   3.119   3.923  15.086  0.9009 -0.2986 -0.4732
 5430TIP3   OH237704   3.045   2.991  11.852  0.1590 -0.5156  0.5874
 5430TIP3    H137705   2.951   3.004  11.834  0.2856 -1.4818 -1.0056
 5430TIP3    H237706   3.047   2.938  11.931 -0.6840 -1.0493  0.2705
 5431TIP3   OH237707   6.142   4.917   3.370 -0.5688  0.0992 -0.0265
 5431TIP3    H137708   6.181   4.911   3.283 -0.8535  0.5507 -0.1834
 5431TIP3    H237709   6.201   4.865   3.426 -0.6309 -0.5659 -0.5618
 5432TIP3   OH237710   2.183   6.334  11.432 -0.3553 -0.5403  0.4843
 5432TIP3    H137711   2.200   6.343  11.526  0.2862  2.6643  0.1977
 5432TIP3    H237712   2.088   6.341  11.424 -0.3460  0.1141  0.8509
 5433TIP3   OH237713   4.806   1.636  14.285  0.0977 -0.4418  0.0022
 5433TIP3    H137714   4.810   1.564  14.348 -0.9590  0.1912  0.8338
 5433TIP3    H237715   4.744   1.606  14.218  0.5518 -0.7650 -0.2770
 5434TIP3   OH237716   1.087   4.811  16.152  0.3818  0.2846  0.0416
 5434TIP3    H137717   1.061   4.839  16.240  0.2416  0.8186 -0.1702
 5434TIP3    H237718   1.121   4.722  16.165 -0.1680  0.1414  0.5454
 5435TIP3   OH237719   4.844   2.246   0.731 -0.2223  0.3570  0.5721
 5435TIP3    H137720   4.862   2.188   0.657 -1.5203 -1.4051  1.5641
 5435TIP3    H237721   4.903   2.320   0.718  0.6820 -0.6277 -1.3802
 5436TIP3   OH237722   3.430   2.011  14.804 -0.8375 -0.0005 -0.7685
 5436TIP3    H137723   3.352   1.978  14.848 -0.7683  0.8500  0.0298
 5436TIP3    H237724   3.426   1.974  14.716 -0.8182 -2.0213  0.0178
 5437TIP3   OH237725   4.444   2.187  10.333 -0.2107  0.3999 -0.8002
 5437TIP3    H137726   4.397   2.132  10.395  0.8716  0.8534  0.4489
 5437TIP3    H237727   4.492   2.125  10.277 -0.0859  0.0374 -0.2927
 5438TIP3   OH237728   1.344   3.980  13.052 -0.5393 -0.1339  0.2319
 5438TIP3    H137729   1.350   4.067  13.012 -0.6010 -0.4107 -0.3955
 5438TIP3    H237730   1.250   3.961  13.055 -0.4674 -0.9059 -1.2810
 5439TIP3   OH237731   6.581   2.101   1.595 -0.4146 -0.4856 -0.4010
 5439TIP3    H137732   6.601   2.019   1.641 -0.3997  0.1757  0.7845
 5439TIP3    H237733   6.487   2.113   1.606 -0.3310 -0.0789 -0.1477
 5440TIP3   OH237734   3.072   0.689   4.771 -0.1927  0.0729  0.3683
 5440TIP3    H137735   3.070   0.664   4.679 -1.3446 -0.2862  0.4828
 5440TIP3    H237736   3.107   0.613   4.816 -0.4984 -0.0886  0.3328
 5441TIP3   OH237737   3.725   2.556   4.486 -0.3203 -0.1154 -0.0272
 5441TIP3    H137738   3.648   2.610   4.500  0.1379  1.2013 -2.1420
 5441TIP3    H237739   3.726   2.539   4.392  1.6695 -0.5490  0.0239
 5442TIP3   OH237740   5.588   2.170  12.768  0.3011 -0.4963 -0.6177
 5442TIP3    H137741   5.603   2.229  12.694 -1.7783  0.1549 -0.5922
 5442TIP3    H237742   5.517   2.113  12.738 -1.3528  0.4943  1.1928
 5443TIP3   OH237743   0.386   5.800  13.427  0.3751  0.5887 -0.3406
 5443TIP3    H137744   0.454   5.864  13.411  1.1745 -0.1531  0.0092
 5443TIP3    H237745   0.432   5.716  13.430 -0.4928  0.1166  0.2597
 5444TIP3   OH237746   1.463   4.928  13.327 -0.4853 -0.2457  0.5938
 5444TIP3    H137747   1.400   4.874  13.280 -0.9953 -0.2501  1.2803
 5444TIP3    H237748   1.531   4.867  13.355 -1.8381 -0.8661  2.7529
 5445TIP3   OH237749   6.584   3.966   2.533 -0.4175 -0.3675 -0.0150
 5445TIP3    H137750   6.578   3.998   2.623 -0.5311 -0.1425 -0.1029
 5445TIP3    H237751   6.619   3.877   2.542  2.6702  0.7358  0.0779
 5446TIP3   OH237752   1.092   6.617   0.268 -0.2682 -0.7868 -0.0886
 5446TIP3    H137753   1.107   6.673   0.344  0.6936  0.9521 -1.4818
 5446TIP3    H237754   1.100   6.528   0.302 -0.2453 -0.0650  1.9001
 5447TIP3   OH237755   0.825   4.219  12.395  0.1928  0.4943  0.2485
 5447TIP3    H137756   0.797   4.222  12.304  0.6221  0.0172  0.0976
 5447TIP3    H237757   0.800   4.304  12.431 -1.4354  0.0967  0.1182
 5448TIP3   OH237758   5.743   3.774   3.426  0.4158  0.3487 -0.2920
 5448TIP3    H137759   5.788   3.710   3.482  0.0130 -0.1510 -0.5200
 5448TIP3    H237760   5.730   3.728   3.343  0.9864  1.0795 -0.7895
 5449TIP3   OH237761   6.144   6.097   6.462  0.1612  0.3760 -0.3050
 5449TIP3    H137762   6.185   6.182   6.480 -0.3044  0.5786 -0.1880
 5449TIP3    H237763   6.204   6.033   6.501  0.5211  0.6462 -0.4029
 5450TIP3   OH237764   6.436   6.047   3.926 -0.1519  0.3609 -0.5571
 5450TIP3    H137765   6.341   6.039   3.911 -0.6234  0.6610  1.8038
 5450TIP3    H237766   6.456   5.977   3.988  0.9722  0.9014 -0.2827
 5451TIP3   OH237767   2.714   2.007   5.131  0.3598  0.3706  0.0208
 5451TIP3    H137768   2.746   1.918   5.145 -0.3443 -0.1217 -1.3209
 5451TIP3    H237769   2.769   2.061   5.187  0.6446 -0.9243  1.0485
 5452TIP3   OH237770   3.370   6.679   4.761 -0.3247 -0.1560  0.3361
 5452TIP3    H137771   3.278   6.704   4.756 -0.5097 -1.0791 -2.0047
 5452TIP3    H237772   3.417   6.763   4.767 -1.2694  0.3407  0.9964
 5453TIP3   OH237773   3.198   4.365   4.821 -0.0239  0.3829 -0.2234
 5453TIP3    H137774   3.234   4.280   4.796  0.5399 -0.0008  1.7559
 5453TIP3    H237775   3.107   4.363   4.789  1.0560  0.7061 -3.7627
 5454TIP3   OH237776   6.407   0.936   2.568 -0.7480  0.5310  0.1114
 5454TIP3    H137777   6.435   1.027   2.558  0.0229  0.3497  0.5959
 5454TIP3    H237778   6.428   0.913   2.659 -2.4194  0.3640  0.4930
 5455TIP3   OH237779   4.913   2.249   5.674 -0.0471  0.2686  0.1223
 5455TIP3    H137780   4.905   2.233   5.580 -0.3340  1.4561 -0.0738
 5455TIP3    H237781   4.920   2.162   5.713  0.6235 -0.2147 -1.0396
 5456TIP3   OH237782   4.053   2.056   6.227 -0.4544 -0.1769  0.1486
 5456TIP3    H137783   3.976   2.030   6.277 -0.2194 -0.9114  0.1409
 5456TIP3    H237784   4.022   2.127   6.171 -1.0853 -0.3468  0.2742
 5457TIP3   OH237785   1.349   2.975  14.608 -0.4486 -0.3979 -0.0947
 5457TIP3    H137786   1.392   2.896  14.578 -0.5626  0.0088 -1.4132
 5457TIP3    H237787   1.378   3.043  14.546  0.8405  0.9448  1.8661
 5458TIP3   OH237788   1.655   5.872  11.010  1.1766 -0.3006 -0.5234
 5458TIP3    H137789   1.658   5.936  10.938 -0.2747  0.8273  0.3462
 5458TIP3    H237790   1.734   5.889  11.061  0.9083  0.6788 -0.4197
 5459TIP3   OH237791   0.733   2.386  15.228  0.6259 -0.1873  0.0986
 5459TIP3    H137792   0.778   2.457  15.274  1.4920 -0.4019 -0.3964
 5459TIP3    H237793   0.797   2.354  15.164  0.5697 -1.9724  0.8706
 5460TIP3   OH237794   2.898   4.779   5.917 -0.8922 -0.1658  0.2673
 5460TIP3    H137795   2.876   4.854   5.861 -2.2104 -0.0203  0.9388
 5460TIP3    H237796   2.813   4.747   5.948 -0.5717 -3.2063 -1.5893
 5461TIP3   OH237797   5.336   1.498   0.595  0.3421 -0.1889  0.3154
 5461TIP3    H137798   5.313   1.463   0.509  0.1331  0.2668  0.1829
 5461TIP3    H237799   5.253   1.506   0.641  0.5437 -1.3027  0.9004
 5462TIP3   OH237800   4.472   4.709  12.071 -0.2491  0.1147 -0.3145
 5462TIP3    H137801   4.453   4.706  11.977 -0.0738 -0.7949 -0.3296
 5462TIP3    H237802   4.407   4.651  12.110 -1.6096  2.0351  0.3677
 5463TIP3   OH237803   1.980   1.855  15.009 -0.0992 -0.3472  0.0808
 5463TIP3    H137804   1.918   1.884  14.942 -2.6217 -1.2358  1.8963
 5463TIP3    H237805   2.019   1.776  14.972 -0.5355 -0.1647 -0.8062
 5464TIP3   OH237806   2.753   0.091   0.708  0.3850  0.3816  0.2432
 5464TIP3    H137807   2.746  -0.001   0.681  3.4467  0.3788 -1.0040
 5464TIP3    H237808   2.749   0.141   0.626  0.2907  1.2209  0.7484
 5465TIP3   OH237809   5.664   4.535  11.035 -0.0732  0.3530  0.7568
 5465TIP3    H137810   5.648   4.442  11.019  0.1048 -0.0241  2.5118
 5465TIP3    H237811   5.577   4.575  11.036 -0.2722 -0.0796  1.4729
 5466TIP3   OH237812   2.316   2.686   5.187  0.0564 -0.1208 -0.6393
 5466TIP3    H137813   2.390   2.629   5.205 -1.7722 -2.9365 -1.4006
 5466TIP3    H237814   2.296   2.727   5.271  3.1099  1.7658 -0.6440
 5467TIP3   OH237815   5.784   2.977   3.186 -0.6758  0.5407  0.0658
 5467TIP3    H137816   5.688   2.979   3.189 -0.6687  0.4486  0.3447
 5467TIP3    H237817   5.807   2.887   3.210 -0.4554  1.0169  1.7855
 5468TIP3   OH237818   2.673   2.704  14.875 -0.4273  0.5078  0.6101
 5468TIP3    H137819   2.637   2.769  14.935 -0.5953 -0.0575  1.1363
 5468TIP3    H237820   2.608   2.634  14.873  0.0451  0.0574  0.5675
 5469TIP3   OH237821   1.976   4.714   5.006  0.1232 -0.4392 -0.3335
 5469TIP3    H137822   2.049   4.665   4.968 -1.4314 -1.9759 -1.4389
 5469TIP3    H237823   1.898   4.673   4.970 -1.3034  2.1964 -0.4657
 5470TIP3   OH237824   1.908   4.342   4.881 -0.0023  0.2180 -0.1189
 5470TIP3    H137825   1.914   4.325   4.787  2.9362  0.3225 -0.0500
 5470TIP3    H237826   1.867   4.428   4.887  2.0175  1.3805 -1.5273
 5471TIP3   OH237827   6.697   1.396  17.389  0.3109 -0.5651 -0.4073
 5471TIP3    H137828   6.655   1.451  17.455 -0.6599  0.7679 -2.0339
 5471TIP3    H237829   6.643   1.408  17.311  2.1068 -1.0727 -1.7896
 5472TIP3   OH237830   3.371   1.603   4.383 -0.4060 -0.2077 -0.6622
 5472TIP3    H137831   3.393   1.512   4.407 -0.4505  0.2190  1.1136
 5472TIP3    H237832   3.279   1.613   4.407  0.0258  0.7641  0.6790
 5473TIP3   OH237833   5.573   1.348   3.421  0.0007 -0.2867 -0.2348
 5473TIP3    H137834   5.540   1.269   3.378 -1.1972 -0.1607  0.4095
 5473TIP3    H237835   5.589   1.321   3.512 -1.8933  0.5365  0.4049
 5474TIP3   OH237836   2.306   1.473  13.761 -0.4763 -0.3984 -0.8328
 5474TIP3    H137837   2.389   1.429  13.744 -0.1884  0.2361 -1.1141
 5474TIP3    H237838   2.327   1.567  13.757 -0.5187 -0.1497  2.3181
 5475TIP3   OH237839   2.673   6.661  12.005  0.4429  0.3187 -0.4708
 5475TIP3    H137840   2.629   6.668  12.090  0.4463  0.7354 -0.4996
 5475TIP3    H237841   2.757   6.705  12.018  0.1550  1.0190 -0.8781
 5476TIP3   OH237842   6.747   1.156   2.016 -0.4175  0.1215 -0.1775
 5476TIP3    H137843   6.716   1.221   2.079 -0.8552 -0.6595  0.4258
 5476TIP3    H237844   6.823   1.116   2.059 -0.9059 -0.6306 -0.0096
 5477TIP3   OH237845   1.077   5.324  14.667  0.4223 -0.3419  0.1514
 5477TIP3    H137846   1.152   5.348  14.613  0.6608 -0.8366  0.2486
 5477TIP3    H237847   1.005   5.313  14.606  0.7098 -0.9762 -0.0815
 5478TIP3   OH237848   0.860   3.024   3.785 -0.2384  0.0293 -0.0462
 5478TIP3    H137849   0.897   2.948   3.829 -0.5647 -1.0317 -1.5294
 5478TIP3    H237850   0.935   3.079   3.763  0.3482 -1.3015 -1.5596
 5479TIP3   OH237851   3.872   5.995  13.118 -0.6305  0.1048  0.4748
 5479TIP3    H137852   3.932   5.939  13.167  2.0276  1.3041 -1.1960
 5479TIP3    H237853   3.811   5.933  13.076  0.4771 -1.3130  0.8685
 5480TIP3   OH237854   5.888   6.313  11.239 -0.0050  0.0765 -0.5021
 5480TIP3    H137855   5.859   6.357  11.319  1.4334  0.0447  0.0568
 5480TIP3    H237856   5.814   6.323  11.179 -0.3811  1.7875  0.1760
 5481TIP3   OH237857   0.400   2.683  11.350 -0.2180 -0.5081 -0.5775
 5481TIP3    H137858   0.418   2.625  11.424 -1.5495  0.0874  0.2381
 5481TIP3    H237859   0.481   2.732  11.338  0.0691 -0.7186  0.3933
 5482TIP3   OH237860   6.539   6.559  12.053  0.4674 -0.7233  0.4133
 5482TIP3    H137861   6.497   6.527  11.973 -2.1221  2.3971  0.3159
 5482TIP3    H237862   6.632   6.565  12.030  0.3895 -3.3626 -1.0369
 5483TIP3   OH237863   4.194   3.034   0.005  0.4877 -0.3448 -0.3298
 5483TIP3    H137864   4.142   3.041  -0.074 -0.1694  1.8416  0.2394
 5483TIP3    H237865   4.248   3.113   0.006 -0.0628  0.0831  1.7378
 5484TIP3   OH237866   6.353   2.589   2.004  0.0982  0.3045 -0.7047
 5484TIP3    H137867   6.330   2.506   1.961  0.5918  0.4869 -1.3315
 5484TIP3    H237868   6.285   2.650   1.975  0.0864  0.2753 -0.7398
 5485TIP3   OH237869   2.362   2.269  16.297  0.1449  0.1741 -0.4262
 5485TIP3    H137870   2.325   2.340  16.350  1.0400 -0.9618  1.9014
 5485TIP3    H237871   2.288   2.238  16.244 -0.6056  1.9150 -0.4613
 5486TIP3   OH237872   4.807   3.676  11.799 -0.1016 -0.5827 -0.1838
 5486TIP3    H137873   4.768   3.744  11.745  2.5758  1.1228 -0.1253
 5486TIP3    H237874   4.878   3.640  11.746  0.9837 -0.6153  1.2208
 5487TIP3   OH237875   6.607   3.555  16.898 -0.4851  0.7570  0.2887
 5487TIP3    H137876   6.586   3.634  16.949  0.3973  0.6386  0.8491
 5487TIP3    H237877   6.649   3.496  16.961  1.9694  1.1621 -0.8577
 5488TIP3   OH237878   4.648   5.294  10.848 -0.4273  0.3680 -0.1482
 5488TIP3    H137879   4.691   5.346  10.780  1.1237  0.0466  0.5415
 5488TIP3    H237880   4.689   5.323  10.930 -0.5617 -0.9300  0.4018
 5489TIP3   OH237881   6.724   3.711  13.444 -0.1660  0.0186 -0.1428
 5489TIP3    H137882   6.783   3.776  13.483  1.3085 -2.1347  1.4367
 5489TIP3    H237883   6.641   3.725  13.490  1.0738 -1.3304  2.8415
 5490TIP3   OH237884   6.625   2.497   4.506  0.3545  0.0393  0.0258
 5490TIP3    H137885   6.546   2.542   4.477  0.7451  2.1067  1.9020
 5490TIP3    H237886   6.593   2.426   4.561 -0.2178 -1.0344 -1.5997
 5491TIP3   OH237887   1.781   6.092   6.256 -1.2759 -0.6243  0.1571
 5491TIP3    H137888   1.756   6.026   6.321 -1.3617 -1.3632 -0.6086
 5491TIP3    H237889   1.877   6.091   6.257 -1.2765 -0.8759  0.0343
 5492TIP3   OH237890   2.572   0.124  11.060 -0.0819 -0.1747  0.5005
 5492TIP3    H137891   2.594   0.105  10.968  0.4795  2.2021  0.0766
 5492TIP3    H237892   2.647   0.091  11.110  0.9912  1.0478 -0.2182
 5493TIP3   OH237893   5.257   0.759  11.410  0.3911  0.9313  0.3134
 5493TIP3    H137894   5.198   0.801  11.473 -0.0489  1.2920 -0.3244
 5493TIP3    H237895   5.318   0.709  11.464 -0.1139  1.0547  1.0170
 5494TIP3   OH237896   4.935   6.335   4.593 -0.7562 -0.4556  0.1077
 5494TIP3    H137897   4.961   6.264   4.535 -0.6770  0.4929 -1.0452
 5494TIP3    H237898   5.017   6.382   4.613 -0.9869  0.0877 -0.2006
 5495TIP3   OH237899   3.942   3.816   3.582 -0.9220 -0.1668  0.4488
 5495TIP3    H137900   3.988   3.888   3.625 -0.8334 -0.6930  1.2752
 5495TIP3    H237901   3.849   3.839   3.589 -0.9423 -0.4690  1.3862
 5496TIP3   OH237902   2.377   0.570   3.428 -0.2448  0.1460 -0.0304
 5496TIP3    H137903   2.360   0.480   3.402 -0.3064  0.5437 -1.4885
 5496TIP3    H237904   2.293   0.603   3.458 -0.9137  0.4897 -2.0830
 5497TIP3   OH237905   4.143   1.366  17.396 -0.7586  0.0316  0.2093
 5497TIP3    H137906   4.053   1.369  17.363 -2.4034  0.8364  4.1997
 5497TIP3    H237907   4.161   1.273  17.410 -2.0692 -0.0353  1.7662
 5498TIP3   OH237908   4.874   0.935  16.815  0.9153 -0.1800  0.0504
 5498TIP3    H137909   4.893   1.005  16.753 -1.9712  0.3740 -0.3340
 5498TIP3    H237910   4.804   0.884  16.774 -0.4168 -0.3649  2.3718
 5499TIP3   OH237911   2.566   0.567   2.725 -0.1627 -0.1978 -0.5026
 5499TIP3    H137912   2.564   0.496   2.789 -1.1627  1.4946  1.4445
 5499TIP3    H237913   2.473   0.588   2.711  0.1375  1.1416 -0.5486
 5500TIP3   OH237914   3.572   0.539  11.953  0.1079  0.0055  0.3335
 5500TIP3    H137915   3.513   0.481  11.999  0.9217  1.2622  3.1766
 5500TIP3    H237916   3.651   0.487  11.938 -0.1778 -0.4287  0.3410
 5501TIP3   OH237917   5.755   3.508  16.996  0.4925 -0.3655  0.1595
 5501TIP3    H137918   5.821   3.527  17.063 -0.0389 -0.1593  0.6360
 5501TIP3    H237919   5.718   3.594  16.973  0.3063 -0.4887 -0.0115
 5502TIP3   OH237920   0.007   4.942   0.981 -0.6768  0.5470 -0.3302
 5502TIP3    H137921   0.063   4.934   0.904 -0.3889  2.6749 -0.3934
 5502TIP3    H237922   0.063   4.981   1.048 -1.6201  1.1791  0.1142
 5503TIP3   OH237923   1.785   3.132   1.570  0.4646  0.3429 -0.4738
 5503TIP3    H137924   1.809   3.069   1.638 -0.7134 -0.9929 -1.2405
 5503TIP3    H237925   1.868   3.164   1.536  1.1875 -2.0514 -1.1700
 5504TIP3   OH237926   2.388   2.427  15.353 -0.3181 -0.2722 -0.2619
 5504TIP3    H137927   2.456   2.468  15.300 -0.0524  0.3909  0.5818
 5504TIP3    H237928   2.385   2.336  15.322  0.5982 -0.1779 -0.6471
 5505TIP3   OH237929   2.223   3.674  14.331  0.1627  0.1912 -0.3517
 5505TIP3    H137930   2.243   3.582  14.344 -0.0576  0.0751 -0.8110
 5505TIP3    H237931   2.285   3.702  14.263  2.7766  1.3157  2.2571
 5506TIP3   OH237932   2.598   1.973  13.631 -0.3795 -0.2640 -0.7205
 5506TIP3    H137933   2.552   1.971  13.714  0.0275  1.8213 -0.3859
 5506TIP3    H237934   2.559   2.046  13.583 -0.7210 -1.5251 -2.4489
 5507TIP3   OH237935   4.999   4.544  16.998 -0.0836  0.2045  0.4193
 5507TIP3    H137936   5.091   4.541  17.023 -0.0418  0.0280  0.2462
 5507TIP3    H237937   4.960   4.468  17.041  0.9081 -2.9849 -3.7019
 5508TIP3   OH237938   5.844   4.473   0.451 -0.4022 -0.4423  0.7417
 5508TIP3    H137939   5.760   4.511   0.475  0.7413  1.9536  1.3148
 5508TIP3    H237940   5.873   4.526   0.376  1.6559  0.5014  2.1087
 5509TIP3   OH237941   5.017   0.625  15.336  0.4849 -0.0910 -0.1564
 5509TIP3    H137942   4.971   0.568  15.275 -1.9990  2.9112 -1.3624
 5509TIP3    H237943   4.979   0.605  15.422 -1.3348  0.5454 -0.7596
 5510TIP3   OH237944   1.463   6.406   2.225 -0.3806  0.2209  0.1968
 5510TIP3    H137945   1.427   6.486   2.188  0.8361  0.5225 -0.3882
 5510TIP3    H237946   1.557   6.410   2.205 -0.3821 -1.6511 -0.4315
 5511TIP3   OH237947   6.241   5.594   4.513  0.5935  0.1100  0.3675
 5511TIP3    H137948   6.172   5.531   4.531  0.1098  0.6722  0.5050
 5511TIP3    H237949   6.240   5.653   4.589  1.3545  0.0101  0.4673
 5512TIP3   OH237950   6.489   2.567  10.304  0.0363  0.0314  0.3098
 5512TIP3    H137951   6.445   2.612  10.377  0.4968  1.3136 -0.1714
 5512TIP3    H237952   6.570   2.533  10.342 -0.4975 -0.7430  0.7719
 5513TIP3   OH237953   5.508   0.727   1.887 -0.8341 -0.7028 -0.0506
 5513TIP3    H137954   5.439   0.693   1.944 -1.3033  0.3299  0.0179
 5513TIP3    H237955   5.530   0.813   1.924  1.9846 -1.8174  1.2180
 5514TIP3   OH237956   5.368   2.813  13.100  0.3059  0.1092  0.2808
 5514TIP3    H137957   5.336   2.795  13.012 -0.2736  0.6736  0.3743
 5514TIP3    H237958   5.377   2.908  13.104  0.8391  0.0519  0.6614
 5515TIP3   OH237959   2.524   0.425  11.800  0.7676 -0.2609  0.1749
 5515TIP3    H137960   2.608   0.471  11.799  0.2074  0.8481 -2.3223
 5515TIP3    H237961   2.537   0.350  11.743 -0.7869  1.8536 -3.3076
 5516TIP3   OH237962   1.782   4.239  14.232 -0.1635  0.0583  0.1009
 5516TIP3    H137963   1.756   4.299  14.302 -0.1486 -3.0249  3.0217
 5516TIP3    H237964   1.874   4.258  14.216 -0.0609  0.5830  1.2348
 5517TIP3   OH237965   5.705   1.111   1.998 -0.7001  0.5100  0.2747
 5517TIP3    H137966   5.691   1.099   2.092 -0.2576 -0.4662  0.2237
 5517TIP3    H237967   5.755   1.193   1.992  1.0714 -0.4658  1.0624
 5518TIP3   OH237968   2.327   1.152  15.774  0.1412  0.0660 -0.4011
 5518TIP3    H137969   2.329   1.247  15.761 -0.3263  0.1083 -0.1765
 5518TIP3    H237970   2.326   1.141  15.870  3.2876 -0.2344 -0.2798
 5519TIP3   OH237971   2.143   3.489  17.311  0.4005 -0.0210 -0.2890
 5519TIP3    H137972   2.169   3.423  17.375  1.3927 -0.1259 -0.7764
 5519TIP3    H237973   2.146   3.443  17.227  1.7726  0.7808 -0.7255
 5520TIP3   OH237974   0.919   5.505   2.774 -0.4611  0.0387  0.2012
 5520TIP3    H137975   0.940   5.438   2.839 -0.5640 -0.1523  0.0406
 5520TIP3    H237976   0.828   5.529   2.792 -0.4950 -0.0263  0.1184
 5521TIP3   OH237977   2.690   1.919  15.154  0.0871  0.1174 -0.2483
 5521TIP3    H137978   2.749   1.847  15.128  0.3566 -0.1990  1.1691
 5521TIP3    H237979   2.744   1.998  15.146  0.3322 -0.0362 -0.1326
 5522TIP3   OH237980   2.247   0.899   3.760 -0.2816 -0.0024 -0.1863
 5522TIP3    H137981   2.257   0.932   3.849 -0.5694  1.5856 -0.7065
 5522TIP3    H237982   2.234   0.977   3.707  0.4880 -0.8580 -1.7225
 5523TIP3   OH237983   4.861   5.851   6.270  0.1432 -0.5351  0.6754
 5523TIP3    H137984   4.884   5.944   6.262  0.9925 -0.7232  0.8332
 5523TIP3    H237985   4.798   5.848   6.341  0.3763 -0.1177  0.9049
 5524TIP3   OH237986   2.745   3.185   3.531  0.4485 -0.4397 -0.0476
 5524TIP3    H137987   2.799   3.252   3.490 -0.5964  1.0459  0.9142
 5524TIP3    H237988   2.661   3.190   3.486  0.4121 -1.2607 -0.0978
 5525TIP3   OH237989   5.748   1.291  15.232 -0.7701 -0.1688  0.2548
 5525TIP3    H137990   5.823   1.267  15.178  0.2661 -0.3360  1.7053
 5525TIP3    H237991   5.762   1.384  15.252 -0.7060 -0.3051  0.8722
 5526TIP3   OH237992   6.302   6.473  14.863  0.1132  0.3179  0.0278
 5526TIP3    H137993   6.227   6.504  14.913 -0.0296 -1.5006  1.0073
 5526TIP3    H237994   6.311   6.536  14.792 -0.0349  2.6501  1.9793
 5527TIP3   OH237995   2.476   1.541   3.494  0.6514  0.4505  0.2550
 5527TIP3    H137996   2.447   1.537   3.585  1.8304 -0.7181  0.6110
 5527TIP3    H237997   2.401   1.577   3.447 -0.4304 -0.0917  1.4968
 5528TIP3   OH237998   5.051   1.757   2.119 -0.4377 -0.2698  0.0067
 5528TIP3    H137999   5.024   1.849   2.123 -0.9205 -0.4374  0.9334
 5528TIP3    H238000   5.091   1.747   2.033 -1.4980  0.5048 -0.5887
 5529TIP3   OH238001   2.600   3.007  14.062 -0.2779 -0.1376  0.6170
 5529TIP3    H138002   2.694   2.996  14.050 -0.5123  1.0047 -4.0449
 5529TIP3    H238003   2.566   2.918  14.076  1.3013 -0.7598  0.6517
 5530TIP3   OH238004   0.422   2.917   5.184 -0.0319  0.1051  0.3697
 5530TIP3    H138005   0.454   2.932   5.095  0.3718 -0.0625  0.4800
 5530TIP3    H238006   0.426   3.003   5.226 -0.2511  0.1891  0.2155
 5531TIP3   OH238007   0.658   6.112   4.517  0.2055 -0.0850 -0.1719
 5531TIP3    H138008   0.703   6.049   4.460  0.4514 -0.9758  0.9858
 5531TIP3    H238009   0.603   6.059   4.574  1.6728  0.5608  1.9783
 5532TIP3   OH238010   0.809   0.443   4.475 -0.4881 -0.3517 -0.6872
 5532TIP3    H138011   0.829   0.449   4.568 -1.8344 -2.4113 -0.1910
 5532TIP3    H238012   0.788   0.532   4.448  2.5692  0.7626  0.2706
 5533TIP3   OH238013   6.122   5.207   1.650  0.1464  0.0698 -0.1648
 5533TIP3    H138014   6.202   5.216   1.598 -0.3179  0.2387 -0.8731
 5533TIP3    H238015   6.097   5.115   1.640  0.8098 -0.2482  0.9196
 5534TIP3   OH238016   6.103   4.877   2.003  0.5204  0.7191 -0.4385
 5534TIP3    H138017   6.106   4.970   2.026  1.7307  0.9816 -1.5872
 5534TIP3    H238018   6.055   4.874   1.920 -0.1244  0.2257 -0.0602
 5535TIP3   OH238019   5.171   4.581  16.150  0.4887  0.5528  0.1457
 5535TIP3    H138020   5.142   4.618  16.233 -0.1290 -1.7707  1.0582
 5535TIP3    H238021   5.091   4.547  16.110  0.9387  0.7059 -0.9194
 5536TIP3   OH238022   4.366   5.798   4.100  0.0585 -0.0678 -0.4080
 5536TIP3    H138023   4.365   5.800   4.195  0.7803  0.4179 -0.4012
 5536TIP3    H238024   4.329   5.882   4.073  2.6693  1.1456 -0.4940
 5537TIP3   OH238025   4.064   3.707   0.800 -0.5275 -0.1103 -0.8178
 5537TIP3    H138026   4.029   3.618   0.798  2.1836 -1.4359  2.1661
 5537TIP3    H238027   4.158   3.696   0.791  0.0018  2.3431  0.8279
 5538TIP3   OH238028   5.327   2.046   5.561 -0.3943  0.4051 -0.4057
 5538TIP3    H138029   5.344   2.137   5.536  0.1984  0.3812 -0.1065
 5538TIP3    H238030   5.241   2.027   5.523  0.2657  0.5025 -2.0532
 5539TIP3   OH238031   2.815   2.983  12.218 -0.5826  0.2019 -0.0637
 5539TIP3    H138032   2.899   2.940  12.197 -0.2971  0.5074  0.4570
 5539TIP3    H238033   2.780   3.009  12.133 -0.9417 -1.3822 -0.4509
 5540TIP3   OH238034   5.356   5.125  14.460  0.4507 -0.0717 -0.3589
 5540TIP3    H138035   5.379   5.034  14.446 -1.7599 -1.4303  3.5128
 5540TIP3    H238036   5.263   5.124  14.482 -0.2369  3.4646 -2.2007
 5541TIP3   OH238037   4.119   1.242   1.662  0.1179  0.4320  0.5903
 5541TIP3    H138038   4.110   1.168   1.602 -0.5320  0.2413  0.9130
 5541TIP3    H238039   4.133   1.317   1.605 -1.5607  0.4297  0.1154
 5542TIP3   OH238040   1.038   0.782  14.912 -0.5164 -0.2035  0.8570
 5542TIP3    H138041   1.101   0.853  14.904  0.1230 -0.5852  2.2098
 5542TIP3    H238042   0.953   0.825  14.919 -0.2390  0.3778  0.6635
 5543TIP3   OH238043   6.138   0.662   2.498 -0.0161  0.0761  0.2496
 5543TIP3    H138044   6.111   0.634   2.411  0.4951  0.5564 -0.0786
 5543TIP3    H238045   6.062   0.648   2.554 -0.5019  0.2020 -0.3762
 5544TIP3   OH238046   2.579   5.907   4.596  0.1121 -0.9771  0.0577
 5544TIP3    H138047   2.634   5.857   4.536  0.5311  0.0058 -0.4142
 5544TIP3    H238048   2.497   5.859   4.599  0.0149 -0.9675 -1.4611
 5545TIP3   OH238049   5.762   6.026  14.111  0.1043 -0.2497  0.0817
 5545TIP3    H138050   5.834   6.011  14.172 -0.6015  2.4860  1.7128
 5545TIP3    H238051   5.686   5.988  14.154 -0.4713  2.0340  1.1835
 5546TIP3   OH238052   4.473   6.103  16.541  0.7063  0.1257  0.0763
 5546TIP3    H138053   4.515   6.125  16.458  1.0075  1.3773  0.5343
 5546TIP3    H238054   4.426   6.183  16.566 -0.3294 -0.6047  0.5519
 5547TIP3   OH238055   3.587   0.764   3.850 -0.2192  0.1710  0.3067
 5547TIP3    H138056   3.642   0.750   3.927 -1.9109  0.3170  1.5974
 5547TIP3    H238057   3.515   0.819   3.881 -2.3472 -1.8634 -0.7258
 5548TIP3   OH238058   3.037   1.818  13.307  0.0103 -0.0778  0.0182
 5548TIP3    H138059   3.071   1.894  13.354  0.8087 -0.1855 -0.3619
 5548TIP3    H238060   2.977   1.855  13.242 -0.8794  0.0899  0.8966
 5549TIP3   OH238061   4.145   2.073  17.414  0.3316 -0.3474  0.1956
 5549TIP3    H138062   4.158   2.027  17.331 -0.5434 -1.1670  0.5002
 5549TIP3    H238063   4.205   2.030  17.475 -1.0073 -1.6339  0.6660
 5550TIP3   OH238064   3.872   5.917   2.115  0.0114 -0.1583  0.8132
 5550TIP3    H138065   3.827   5.997   2.088  0.7648  0.5462  1.5697
 5550TIP3    H238066   3.803   5.860   2.150 -0.5846 -0.0125 -0.0949
 5551TIP3   OH238067   1.957   5.679  14.970 -0.1001  0.0936 -0.0486
 5551TIP3    H138068   1.877   5.676  15.021  0.0389 -0.6032  0.1408
 5551TIP3    H238069   1.930   5.661  14.880 -0.3166  1.1036 -0.1854
 5552TIP3   OH238070   6.037   0.617  14.016 -0.0943 -0.0639  0.2800
 5552TIP3    H138071   6.118   0.620  14.066  0.1055 -0.5531 -0.0148
 5552TIP3    H238072   6.041   0.535  13.967 -0.2459  0.4487 -0.6126
 5553TIP3   OH238073   0.591   1.972   0.387 -0.3175  0.0012  0.0270
 5553TIP3    H138074   0.666   2.013   0.346 -0.4681 -0.6010 -0.8890
 5553TIP3    H238075   0.623   1.887   0.417 -0.7757 -0.5558 -0.9951
 5554TIP3   OH238076   6.746   3.018  14.740  0.1225  0.6079  0.0536
 5554TIP3    H138077   6.687   2.947  14.717 -0.5376  0.5879  1.6869
 5554TIP3    H238078   6.829   2.994  14.700  0.5025 -2.1642  2.2223
 5555TIP3   OH238079   1.647   4.523  16.597 -0.2723 -0.2018 -0.5640
 5555TIP3    H138080   1.719   4.558  16.544  0.4626 -0.5444  0.1934
 5555TIP3    H238081   1.578   4.503  16.533 -0.0568  0.9839 -1.2045
 5556TIP3   OH238082   0.842   5.982   4.882  0.9317  0.4042  0.2619
 5556TIP3    H138083   0.868   6.064   4.840  2.3379 -0.1052  0.0846
 5556TIP3    H238084   0.747   5.982   4.878  0.9268  1.8101 -0.1518
 5557TIP3   OH238085   0.495   4.869   1.545  0.0198 -0.8211 -0.1061
 5557TIP3    H138086   0.404   4.895   1.564 -0.8247 -0.9846 -3.3131
 5557TIP3    H238087   0.548   4.925   1.602 -2.0394 -1.4538  2.6707
 5558TIP3   OH238088   5.551   0.019   0.835 -0.4461  0.1613  1.0471
 5558TIP3    H138089   5.646   0.026   0.841 -0.4004 -0.6547  1.3409
 5558TIP3    H238090   5.535  -0.068   0.798 -1.0370  0.9571 -0.6997
 5559TIP3   OH238091   3.104   5.832   5.044  0.5319 -0.4465  0.2719
 5559TIP3    H138092   3.091   5.861   4.954  0.0004 -0.5610  0.3049
 5559TIP3    H238093   3.048   5.889   5.096  0.1153 -0.9835  0.4256
 5560TIP3   OH238094   1.501   0.785   3.271  0.1132  0.0726 -0.5686
 5560TIP3    H138095   1.425   0.843   3.267 -1.6211 -1.5473  3.7906
 5560TIP3    H238096   1.573   0.842   3.299 -0.5529  0.8116 -0.3401
 5561TIP3   OH238097   3.078   0.860  11.015  0.4400 -0.3958 -0.1700
 5561TIP3    H138098   3.090   0.910  11.096 -0.1990  0.2951 -0.4946
 5561TIP3    H238099   3.052   0.773  11.045  0.7687 -0.3130  0.3798
 5562TIP3   OH238100   1.192   3.437   3.046 -0.1496  0.0232  0.4174
 5562TIP3    H138101   1.273   3.453   2.999 -1.0654 -0.5637 -1.4581
 5562TIP3    H238102   1.152   3.523   3.057  0.5332  0.2718  1.0502
 5563TIP3   OH238103   6.672   5.986  14.553 -0.1786 -0.6557 -0.1693
 5563TIP3    H138104   6.586   6.004  14.591  0.0025 -0.3234  0.0875
 5563TIP3    H238105   6.726   6.061  14.578  0.7022 -1.6984  1.2661
 5564TIP3   OH238106   6.433   2.318   4.129 -0.1025 -0.3890 -0.0093
 5564TIP3    H138107   6.356   2.280   4.172 -2.1791  1.2442 -2.0576
 5564TIP3    H238108   6.414   2.411   4.123  1.9226  0.0200 -0.8543
 5565TIP3   OH238109   6.211   6.230  12.008  0.7145 -0.3207  0.3334
 5565TIP3    H138110   6.208   6.307  11.951  1.3672  0.8873  1.8593
 5565TIP3    H238111   6.146   6.170  11.971 -0.3400  1.2623 -0.4584
 5566TIP3   OH238112   5.515   0.043   1.384 -0.2187  0.4468  0.0375
 5566TIP3    H138113   5.469   0.097   1.319 -0.3205 -0.7822 -0.9489
 5566TIP3    H238114   5.485  -0.046   1.366  0.2167  0.0037  1.4035
 5567TIP3   OH238115   5.952   6.333  16.987  0.0877 -0.0574  0.1659
 5567TIP3    H138116   5.896   6.410  17.000 -0.6639  0.2052 -3.4376
 5567TIP3    H238117   5.891   6.259  16.988  0.4826 -0.3798  1.3614
 5568TIP3   OH238118   5.451   3.623  12.313  0.4822 -0.1086 -0.0691
 5568TIP3    H138119   5.470   3.530  12.295  1.6626  0.3589 -1.4085
 5568TIP3    H238120   5.428   3.659  12.227 -1.0712  0.6097  0.6275
 5569TIP3   OH238121   0.670   1.578   1.425 -0.0777 -0.3883 -0.7440
 5569TIP3    H138122   0.704   1.652   1.476  0.6786 -0.7729 -0.6688
 5569TIP3    H238123   0.607   1.535   1.483 -0.0899 -0.1405 -0.5724
 5570TIP3   OH238124   3.889   1.846   0.150 -0.1667  0.2148 -0.3890
 5570TIP3    H138125   3.832   1.920   0.128  0.4945  1.0082  0.5103
 5570TIP3    H238126   3.975   1.871   0.118 -0.4305 -1.3649 -2.5409
 5571TIP3   OH238127   3.784   6.330   4.229 -0.1491  0.4531 -0.1647
 5571TIP3    H138128   3.868   6.376   4.221 -0.7960  1.6696 -0.2722
 5571TIP3    H238129   3.788   6.261   4.163  1.2309 -0.2598  0.6379
 5572TIP3   OH238130   4.759   3.781   0.020 -0.4884  0.6416  0.2670
 5572TIP3    H138131   4.792   3.763  -0.068  0.2180  0.4052  0.5732
 5572TIP3    H238132   4.750   3.877   0.023  1.7661  0.8989  0.7067
 5573TIP3   OH238133   4.512   4.502  11.261 -0.3123 -0.3722 -0.2647
 5573TIP3    H138134   4.579   4.510  11.193  0.2876  1.5414  0.4858
 5573TIP3    H238135   4.513   4.586  11.307 -1.0328 -1.4002  1.8075
 5574TIP3   OH238136   2.339   1.261   1.899  0.1352 -0.2692 -0.4160
 5574TIP3    H138137   2.362   1.304   1.981 -2.5284 -0.6700  0.6709
 5574TIP3    H238138   2.359   1.169   1.914 -0.9871 -0.4480  0.0975
 5575TIP3   OH238139   0.844   0.488  12.137  0.3215  0.1565 -0.0380
 5575TIP3    H138140   0.840   0.522  12.227  1.7859  1.0677 -0.2718
 5575TIP3    H238141   0.933   0.453  12.129  0.3505  0.4634 -1.2423
 5576TIP3   OH238142   5.178   3.333  16.150 -0.1946 -0.6844  0.4014
 5576TIP3    H138143   5.224   3.252  16.172  2.4939  0.7638  0.4841
 5576TIP3    H238144   5.190   3.343  16.055  0.1252 -0.0267  0.5054
 5577TIP3   OH238145   6.593   4.723   1.816 -0.5790  0.3255 -0.0830
 5577TIP3    H138146   6.517   4.672   1.790 -0.9447  0.5604  0.5130
 5577TIP3    H238147   6.634   4.749   1.734 -0.7735 -0.3468 -0.3969
 5578TIP3   OH238148   3.314   2.871  14.440  0.1379 -0.2674  0.2769
 5578TIP3    H138149   3.228   2.845  14.473 -0.1132  0.4437  0.1951
 5578TIP3    H238150   3.349   2.930  14.507 -0.4558  1.3417 -0.7784
 5579TIP3   OH238151   4.989   1.861  12.498 -0.2423  0.0554 -0.1767
 5579TIP3    H138152   4.956   1.773  12.480  2.7194 -0.9079 -1.5690
 5579TIP3    H238153   5.082   1.849  12.514  0.0613  2.8530  0.7296
 5580TIP3   OH238154   1.469   1.027  12.523 -0.5413  0.1320  0.2873
 5580TIP3    H138155   1.519   0.964  12.576 -0.8371  2.3972  3.5222
 5580TIP3    H238156   1.524   1.041  12.446  1.1764 -1.4592  1.1267
 5581TIP3   OH238157   1.834   2.189  14.318 -0.4409  0.5307 -0.1092
 5581TIP3    H138158   1.796   2.267  14.278 -3.0942 -0.7775 -0.3465
 5581TIP3    H238159   1.759   2.136  14.344  1.1754 -0.1706  3.7510
 5582TIP3   OH238160   0.629   6.589  17.402 -0.1848 -0.0972  0.1933
 5582TIP3    H138161   0.651   6.564  17.313  0.6054  1.9912 -0.2504
 5582TIP3    H238162   0.714   6.604  17.444 -0.5815  0.2980  0.8772
 5583TIP3   OH238163   1.688   5.856  10.653  0.3395 -0.1944  0.2750
 5583TIP3    H138164   1.771   5.902  10.643  1.1446 -1.4170  1.0998
 5583TIP3    H238165   1.680   5.803  10.574 -0.1815  0.6982 -0.2865
 5584TIP3   OH238166   6.128   5.651   0.414  0.2569  0.4368  0.1731
 5584TIP3    H138167   6.128   5.700   0.331 -0.4374  0.3246  0.0964
 5584TIP3    H238168   6.194   5.694   0.468 -1.4198  2.5267  0.7071
 5585TIP3   OH238169   3.977   6.001  15.310 -0.1674 -0.6874  0.0296
 5585TIP3    H138170   3.889   6.028  15.337  0.0269 -0.8497  0.8496
 5585TIP3    H238171   4.009   5.947  15.383  0.6157 -0.6250 -0.2601
 5586TIP3   OH238172   0.596   0.876  16.609 -0.0624  0.1829 -0.2850
 5586TIP3    H138173   0.560   0.929  16.538 -0.0991  1.8271  0.8931
 5586TIP3    H238174   0.587   0.931  16.687  0.0365 -1.5301  0.9950
 5587TIP3   OH238175   3.548   5.656  11.474 -0.1720  0.4601 -0.3285
 5587TIP3    H138176   3.606   5.715  11.426 -1.1793  0.9601 -0.9596
 5587TIP3    H238177   3.530   5.585  11.414 -1.6479  1.2204 -0.8331
 5588TIP3   OH238178   2.041   6.356   0.407  0.1708  0.3007  0.2990
 5588TIP3    H138179   2.073   6.291   0.469 -1.7784 -0.6714  0.3686
 5588TIP3    H238180   2.120   6.394   0.368  1.3852 -0.5873  1.8034
 5589TIP3   OH238181   0.668   0.023  10.354  0.6492  0.1248  0.3053
 5589TIP3    H138182   0.667  -0.051  10.292 -0.0419  0.2614  0.1385
 5589TIP3    H238183   0.597   0.003  10.415 -0.0365  1.0029 -0.1751
 5590TIP3   OH238184   0.888   2.142  12.642  0.0245 -0.3407 -0.0002
 5590TIP3    H138185   0.980   2.129  12.620  0.0667 -0.7519  0.4147
 5590TIP3    H238186   0.854   2.054  12.656 -0.0206 -0.1101  1.4901
 5591TIP3   OH238187   3.033   2.202   2.000  0.2500 -0.1841  0.7652
 5591TIP3    H138188   2.965   2.139   1.976  0.0839 -0.0687  0.9267
 5591TIP3    H238189   2.996   2.287   1.980 -0.1879 -0.0347  2.0769
 5592TIP3   OH238190   5.421   5.653  14.631  0.2645 -0.1182 -0.1833
 5592TIP3    H138191   5.360   5.726  14.644  0.3053 -0.4205  2.0717
 5592TIP3    H238192   5.505   5.696  14.613  0.2421  0.4133  0.8980
 5593TIP3   OH238193   2.918   6.401   2.389 -0.1993 -0.3640 -0.0425
 5593TIP3    H138194   2.900   6.401   2.295  1.5955 -0.0838 -0.4110
 5593TIP3    H238195   2.981   6.471   2.402 -0.0895 -0.6888  1.3134
 5594TIP3   OH238196   4.938   1.301   5.411  0.5399 -0.3522  0.3122
 5594TIP3    H138197   5.027   1.287   5.378  0.6728 -0.8697  0.8854
 5594TIP3    H238198   4.887   1.231   5.371  0.7041 -0.9909  1.2142
 5595TIP3   OH238199   4.245   0.156  17.200 -0.6470 -0.4647  0.3408
 5595TIP3    H138200   4.265   0.229  17.259 -0.0946 -0.6042  0.3302
 5595TIP3    H238201   4.306   0.087  17.226  1.1382  0.1743 -1.7655
 5596TIP3   OH238202   6.354   1.378   5.484  0.0517 -0.3947  0.5685
 5596TIP3    H138203   6.435   1.334   5.457  0.5588  0.8994 -0.1093
 5596TIP3    H238204   6.360   1.385   5.579 -0.9340 -3.4467  0.9540
 5597TIP3   OH238205   1.930   0.345  17.108  0.1558 -0.0759 -0.1563
 5597TIP3    H138206   1.975   0.266  17.137 -3.5373 -3.0921 -1.8046
 5597TIP3    H238207   1.956   0.357  17.017  0.2740  0.3252 -0.0766
 5598TIP3   OH238208   3.559   2.738  11.583 -0.0602 -0.2852  0.5629
 5598TIP3    H138209   3.652   2.761  11.581 -0.1057 -0.0332  1.1682
 5598TIP3    H238210   3.528   2.758  11.494  0.5631 -0.8342  0.2070
 5599TIP3   OH238211   3.427   5.508  13.657 -0.2856  0.0589  0.0889
 5599TIP3    H138212   3.454   5.431  13.607  1.7655  1.3353 -0.9012
 5599TIP3    H238213   3.337   5.489  13.683 -0.6651 -1.6626 -2.1410
 5600TIP3   OH238214   2.688   1.186   3.687 -0.2563 -0.2047  0.7962
 5600TIP3    H138215   2.694   1.095   3.716 -0.6445 -0.7186 -0.6624
 5600TIP3    H238216   2.775   1.207   3.653  0.5846  0.8038  3.3166
 5601TIP3   OH238217   4.177   2.920  16.706 -0.7364 -0.2967 -0.8161
 5601TIP3    H138218   4.142   2.833  16.686 -0.9054 -0.8274  1.4772
 5601TIP3    H238219   4.103   2.979  16.695 -0.7987 -0.5339 -1.7200
 5602TIP3   OH238220   1.839   5.871  10.219 -0.3549 -0.5014  0.6325
 5602TIP3    H138221   1.835   5.793  10.165  1.2187  0.8079 -1.5533
 5602TIP3    H238222   1.919   5.861  10.270  1.1275  0.5877 -1.3362
 5603TIP3   OH238223   2.007   1.460   4.134 -0.6120 -0.4455  0.6983
 5603TIP3    H138224   2.033   1.390   4.192  2.1243 -0.8431 -0.8080
 5603TIP3    H238225   2.084   1.476   4.079 -1.8114  2.3209 -0.4122
 5604TIP3   OH238226   0.547   1.732   3.378 -0.1896 -0.2460  0.1219
 5604TIP3    H138227   0.523   1.699   3.291  0.8957  0.6272 -0.5388
 5604TIP3    H238228   0.582   1.820   3.362 -0.4025  0.1151  1.5037
 5605TIP3   OH238229   0.173   5.733  12.111 -0.4082  0.0292 -0.2440
 5605TIP3    H138230   0.117   5.810  12.115 -0.2641  0.1409 -0.3861
 5605TIP3    H238231   0.204   5.722  12.201  0.2849  0.6665 -0.4005
 5606TIP3   OH238232   5.046   1.292  12.442 -0.0722 -0.3581 -0.5124
 5606TIP3    H138233   4.992   1.259  12.371 -1.8163  2.1920 -0.5105
 5606TIP3    H238234   5.000   1.267  12.522 -0.8390  1.0318 -0.4854
 5607TIP3   OH238235   6.686   0.531  15.382  0.1063 -0.4272 -0.0692
 5607TIP3    H138236   6.735   0.454  15.409 -2.4324 -2.6787 -1.4063
 5607TIP3    H238237   6.608   0.530  15.437  0.0636  1.2969 -0.0407
 5608TIP3   OH238238   3.610   1.153  11.137 -0.0317  0.0075 -0.2048
 5608TIP3    H138239   3.544   1.215  11.169 -1.4959 -2.0392  1.0124
 5608TIP3    H238240   3.694   1.195  11.156 -0.9648  1.7958  0.1537
 5609TIP3   OH238241   5.295   6.190   0.369 -0.4656 -0.5223  0.3163
 5609TIP3    H138242   5.335   6.194   0.457  0.2050 -1.1651  0.0527
 5609TIP3    H238243   5.282   6.282   0.345  0.3466 -0.3112  0.6475
 5610TIP3   OH238244   1.996   4.984   3.561  0.2835  0.4014  0.0308
 5610TIP3    H138245   2.057   5.050   3.592  1.4145  0.0419 -1.3371
 5610TIP3    H238246   1.977   5.010   3.471 -0.7571 -0.0913  0.0925
 5611TIP3   OH238247   1.045   4.792  12.371  0.2590  0.2178  0.3718
 5611TIP3    H138248   1.035   4.807  12.465  0.8879  1.2341  0.2914
 5611TIP3    H238249   0.965   4.827  12.332  0.1258  0.0598  0.5032
 5612TIP3   OH238250   0.617   2.705  11.950  0.3913 -0.0266  0.1054
 5612TIP3    H138251   0.584   2.616  11.932  1.0229 -0.2672  0.1132
 5612TIP3    H238252   0.553   2.742  12.010  1.4311 -1.4195  2.2106
 5613TIP3   OH238253   1.543   1.389   4.582  0.1096 -0.2710 -0.1794
 5613TIP3    H138254   1.498   1.473   4.585  1.2038  0.3077  1.1737
 5613TIP3    H238255   1.586   1.388   4.496 -2.5859 -0.9709 -1.6267
 5614TIP3   OH238256   1.143   1.156   5.501 -0.6605  0.1631  0.1111
 5614TIP3    H138257   1.171   1.182   5.589  1.7273 -0.3684 -0.4197
 5614TIP3    H238258   1.150   1.237   5.449 -0.3183  0.0909  0.0398
 5615TIP3   OH238259   1.500   6.331   1.235 -0.1638 -0.4891 -0.0018
 5615TIP3    H138260   1.524   6.307   1.146  0.0931  1.5120 -0.5227
 5615TIP3    H238261   1.582   6.361   1.275  0.0658 -2.8678  1.4819
 5616TIP3   OH238262   0.820   1.875  10.851 -0.0661  0.1580 -0.3622
 5616TIP3    H138263   0.849   1.921  10.930  1.9430  0.7421 -1.3452
 5616TIP3    H238264   0.764   1.938  10.806 -0.4384  0.1872  0.1430
 5617TIP3   OH238265   6.293   0.705  11.191 -0.4787  0.2270  0.2731
 5617TIP3    H138266   6.222   0.661  11.146  1.1075 -0.6701 -1.4902
 5617TIP3    H238267   6.319   0.776  11.133 -0.4290  1.0384  1.2571
 5618TIP3   OH238268   4.991   5.119  10.988 -0.5463  0.2203 -0.4439
 5618TIP3    H138269   5.003   5.058  10.915  1.0747  0.6175 -0.5450
 5618TIP3    H238270   5.079   5.142  11.015 -1.0317  3.3868 -1.1423
 5619TIP3   OH238271   1.814   6.012   4.074  0.1444  0.1189  0.0317
 5619TIP3    H138272   1.853   5.934   4.034  1.6785  0.9293 -0.1340
 5619TIP3    H238273   1.790   5.985   4.163 -0.9904 -1.0051 -0.5844
 5620TIP3   OH238274   5.146   2.204  14.289  0.0725  0.1377  0.6858
 5620TIP3    H138275   5.234   2.166  14.286  0.6893  1.5219 -0.9224
 5620TIP3    H238276   5.087   2.129  14.278  1.1765 -0.5480 -1.0463
 5621TIP3   OH238277   2.917   5.767  17.137 -0.7636 -0.0564  0.1021
 5621TIP3    H138278   2.989   5.829  17.127  1.0288 -1.9574  0.7773
 5621TIP3    H238279   2.871   5.798  17.216 -0.6211  1.0507 -0.2243
 5622TIP3   OH238280   0.491   2.450  12.986 -0.4919 -1.0154  0.8598
 5622TIP3    H138281   0.450   2.533  12.963  0.1518 -1.0224 -0.3613
 5622TIP3    H238282   0.551   2.472  13.057 -0.2415 -0.4094  0.4710
 5623TIP3   OH238283   5.065   3.089  14.286  0.3151 -0.4576 -0.3249
 5623TIP3    H138284   5.072   3.167  14.232 -0.9026  0.4561  0.7610
 5623TIP3    H238285   4.977   3.055  14.269  0.3078 -0.7614  0.2666
 5624TIP3   OH238286   1.932   5.833  12.618 -0.2653  0.0032 -0.5931
 5624TIP3    H138287   2.006   5.873  12.572 -0.6701  0.7414 -0.6178
 5624TIP3    H238288   1.861   5.836  12.554 -0.9004  1.2497  0.1428
 5625TIP3   OH238289   2.486   2.457   6.166  0.4290 -0.5900  0.6655
 5625TIP3    H138290   2.480   2.400   6.243  1.1312 -1.2365  0.2505
 5625TIP3    H238291   2.579   2.473   6.155  0.4633 -1.6479 -0.8626
 5626TIP3   OH238292   0.362   5.528   1.944  0.5929  0.3059 -0.1212
 5626TIP3    H138293   0.402   5.483   2.019  1.3552  1.1565 -0.0018
 5626TIP3    H238294   0.353   5.459   1.878 -2.6421 -1.1503  1.6178
 5627TIP3   OH238295   2.976   6.681  16.855 -0.3669  0.3704 -0.1557
 5627TIP3    H138296   2.996   6.750  16.918 -0.5795 -0.3549  0.7197
 5627TIP3    H238297   2.971   6.601  16.907 -0.7782 -0.2086 -1.0565
 5628TIP3   OH238298   6.153   6.508  17.201 -0.1008  0.2995 -0.2554
 5628TIP3    H138299   6.062   6.481  17.190  0.1002 -0.3324 -0.4091
 5628TIP3    H238300   6.197   6.478  17.121  0.5297 -0.6469  0.4226
 5629TIP3   OH238301   2.399   2.485   5.797 -0.1538 -0.4979 -0.7124
 5629TIP3    H138302   2.425   2.395   5.816 -1.1854 -0.8222 -0.7991
 5629TIP3    H238303   2.326   2.502   5.856  0.2878  0.4325 -0.4011
 5630TIP3   OH238304   5.762   3.999   2.754  0.5341  0.4059 -0.2871
 5630TIP3    H138305   5.834   3.952   2.796  0.7199  0.0542 -0.9831
 5630TIP3    H238306   5.802   4.040   2.678  0.0581  0.4647 -0.5052
 5631TIP3   OH238307   0.895   3.109  13.225  0.0606 -0.3281  0.2975
 5631TIP3    H138308   0.927   3.023  13.200  0.1790 -0.3520  0.5263
 5631TIP3    H238309   0.885   3.104  13.320  0.6915  0.1133  0.3944
 5632TIP3   OH238310   6.735   1.161   5.621 -0.4211 -0.4506  0.2806
 5632TIP3    H138311   6.729   1.105   5.698  0.0051 -0.3278  0.4029
 5632TIP3    H238312   6.778   1.241   5.652 -2.2080  0.5266  0.4283
 5633TIP3   OH238313   0.161   2.689   0.587 -0.2412  0.4981 -0.0076
 5633TIP3    H138314   0.083   2.635   0.597 -0.5467  1.0231  0.4825
 5633TIP3    H238315   0.166   2.740   0.667 -0.3678  1.7180 -0.7464
 5634TIP3   OH238316   4.180   5.707   2.294 -0.3917 -0.5605  0.1515
 5634TIP3    H138317   4.244   5.748   2.236  1.0881  0.5618  2.4221
 5634TIP3    H238318   4.120   5.661   2.235  2.8736 -2.3127 -2.1060
 5635TIP3   OH238319   0.061   5.997   0.845  0.4255 -0.7770  0.0077
 5635TIP3    H138320   0.108   6.058   0.902  1.2878 -0.4248 -1.0612
 5635TIP3    H238321   0.099   5.911   0.866  1.9096 -0.4424 -1.1510
 5636TIP3   OH238322   2.487   3.097  15.735 -0.0237 -0.0988 -0.0592
 5636TIP3    H138323   2.428   3.027  15.710  0.3935 -0.1538 -0.9181
 5636TIP3    H238324   2.433   3.176  15.732 -0.1828 -0.2160 -0.3345
 5637TIP3   OH238325   2.829   0.135  11.270 -0.4250 -0.6116 -0.0676
 5637TIP3    H138326   2.857   0.189  11.196 -1.2301 -0.2001 -0.0864
 5637TIP3    H238327   2.891   0.156  11.339  0.1288 -0.7372 -0.5167
 5638TIP3   OH238328   6.267   0.983  12.844 -0.2395 -0.7107 -0.1925
 5638TIP3    H138329   6.284   1.048  12.776 -1.9482  0.9100  0.8217
 5638TIP3    H238330   6.268   1.034  12.926  1.4817 -2.5317  1.0139
 5639TIP3   OH238331   4.075   5.180   0.645 -0.1563  0.0913 -0.1539
 5639TIP3    H138332   3.989   5.219   0.658 -0.8365 -0.6433 -2.0589
 5639TIP3    H238333   4.106   5.158   0.733 -0.5180  3.1615  0.8416
 5640TIP3   OH238334   4.639   4.051  12.968  0.3856  0.2816  0.2207
 5640TIP3    H138335   4.618   4.138  12.934  0.1671  0.3254  0.4720
 5640TIP3    H238336   4.556   4.016  13.000  0.7279  0.5902  1.5176
 5641TIP3   OH238337   5.217   6.128  11.318 -0.1830  0.0718  0.3752
 5641TIP3    H138338   5.271   6.203  11.344  0.8676 -0.3776 -0.4166
 5641TIP3    H238339   5.226   6.125  11.223 -1.0461 -0.4577  0.3034
 5642TIP3   OH238340   2.455   5.043   2.818  0.0276  0.3735  0.2776
 5642TIP3    H138341   2.361   5.058   2.808  0.2273  1.8657  0.3311
 5642TIP3    H238342   2.496   5.111   2.764  1.0711  0.7762  1.5119
 5643TIP3   OH238343   3.713   6.370  15.681 -0.8219 -0.5588  0.1033
 5643TIP3    H138344   3.774   6.298  15.697 -0.6458 -0.1617  1.3341
 5643TIP3    H238345   3.718   6.424  15.760 -1.6627  0.2895 -0.3966
 5644TIP3   OH238346   1.292   1.928   1.286  0.6247 -0.0845 -0.4996
 5644TIP3    H138347   1.255   1.850   1.244 -0.5197 -0.7753  1.6190
 5644TIP3    H238348   1.310   1.988   1.213 -1.1755 -1.2046 -1.9831
 5645TIP3   OH238349   2.887   1.068  16.069  0.5060 -0.3181  0.5988
 5645TIP3    H138350   2.931   1.082  16.153  1.7387  0.8931 -0.2046
 5645TIP3    H238351   2.793   1.071  16.090  0.7868  0.8472  1.7974
 5646TIP3   OH238352   2.305   1.246   2.720  0.5007 -0.2720  0.0053
 5646TIP3    H138353   2.239   1.180   2.699  0.0326 -0.1923  1.1828
 5646TIP3    H238354   2.267   1.297   2.791  1.5476  0.2192  0.2314
 5647TIP3   OH238355   1.238   1.534   5.350 -0.3535 -0.3579  0.5439
 5647TIP3    H138356   1.205   1.624   5.362  1.8866  0.7368 -0.8316
 5647TIP3    H238357   1.259   1.505   5.438  0.2173  1.0647  0.9194
 5648TIP3   OH238358   6.450   2.584  15.734 -0.9843  0.4070 -0.2663
 5648TIP3    H138359   6.479   2.576  15.825 -0.9703  0.6500 -0.2470
 5648TIP3    H238360   6.405   2.669  15.731 -1.4993  0.1343 -0.3502
 5649TIP3   OH238361   5.020   0.045  16.157 -0.2059 -0.7750 -0.2645
 5649TIP3    H138362   5.085   0.096  16.204  0.2105  1.0103 -2.5931
 5649TIP3    H238363   5.033  -0.045  16.187  0.3729  0.1597  2.5074
 5650TIP3   OH238364   2.884   0.350   1.288 -0.4930 -0.6451 -0.2341
 5650TIP3    H138365   2.844   0.294   1.354 -0.6042 -1.3260 -0.8678
 5650TIP3    H238366   2.835   0.432   1.291 -0.2579 -0.5317  0.7776
 5651TIP3   OH238367   3.963   3.903  15.915  0.4021  0.3732 -0.4637
 5651TIP3    H138368   3.989   3.900  15.823 -1.3233 -0.7274 -0.9713
 5651TIP3    H238369   3.870   3.880  15.914  0.1787  1.0143  1.5058
 5652TIP3   OH238370   1.459   5.328   2.959  0.3579 -0.0531 -0.4201
 5652TIP3    H138371   1.547   5.291   2.954  0.1479 -0.5571 -0.4740
 5652TIP3    H238372   1.407   5.261   3.003  0.3888  0.9872  1.2879
 5653TIP3   OH238373   2.269   3.145  12.678 -0.8838 -0.1784  0.0742
 5653TIP3    H138374   2.334   3.210  12.706 -0.7171 -0.2294 -0.1949
 5653TIP3    H238375   2.267   3.153  12.583 -1.0172 -0.4233  0.0561
 5654TIP3   OH238376   3.112   1.326   0.591  0.0656 -0.4458 -0.9879
 5654TIP3    H138377   3.182   1.337   0.655 -1.7253 -1.7651  1.3349
 5654TIP3    H238378   3.151   1.273   0.522  1.7490  0.1191 -0.5217
 5655TIP3   OH238379   0.673   1.356  13.864  0.7702 -0.2369 -0.0595
 5655TIP3    H138380   0.584   1.331  13.891  0.8103 -1.2946 -0.8081
 5655TIP3    H238381   0.670   1.451  13.857 -0.2679 -0.2424  0.0721
 5656TIP3   OH238382   5.073   4.857   1.269  0.1225 -0.4500 -0.0474
 5656TIP3    H138383   5.045   4.889   1.354  0.6852  0.1792 -0.0926
 5656TIP3    H238384   5.164   4.830   1.282 -0.4572 -2.5274  0.1195
 5657TIP3   OH238385   5.699   6.422  13.459  0.0104  0.2627  0.1358
 5657TIP3    H138386   5.612   6.448  13.429  0.3437  0.6448 -0.5271
 5657TIP3    H238387   5.759   6.479  13.410  0.7444 -1.5015 -1.1046
 5658TIP3   OH238388   5.872   4.959  14.927  0.2895 -0.6950  0.2122
 5658TIP3    H138389   5.946   5.011  14.957  0.4571 -1.4363  1.1473
 5658TIP3    H238390   5.887   4.947  14.833  0.3014  0.8177  0.0013
 5659TIP3   OH238391   2.901   5.392  16.889 -0.5008  0.5219 -0.4182
 5659TIP3    H138392   2.863   5.447  16.958 -0.8801  1.2914 -1.2184
 5659TIP3    H238393   2.985   5.433  16.868  0.0665 -0.2648  0.2355
 5660TIP3   OH238394   3.665   2.535  11.252 -0.2783  0.1150 -0.0272
 5660TIP3    H138395   3.753   2.571  11.238 -1.0557  2.4463  0.5526
 5660TIP3    H238396   3.616   2.564  11.174 -1.1939  1.3284  0.9546
 5661TIP3   OH238397   4.739   2.262  11.545  0.6048 -0.5360 -0.2651
 5661TIP3    H138398   4.761   2.324  11.614  0.1216 -0.2967 -0.3204
 5661TIP3    H238399   4.645   2.248  11.554  0.2498  0.6437 -1.7913
 5662TIP3   OH238400   5.998   5.831  16.626  0.3372  0.8596 -0.1738
 5662TIP3    H138401   5.977   5.807  16.536  0.4244  1.4525 -0.3535
 5662TIP3    H238402   5.975   5.754  16.677 -0.6679  0.8732 -0.5780
 5663TIP3   OH238403   0.745   0.905   2.035  0.2110 -0.5919 -0.3372
 5663TIP3    H138404   0.814   0.960   1.999 -0.8810  0.4197 -0.9773
 5663TIP3    H238405   0.739   0.931   2.127 -1.2810  1.5286 -0.9519
 5664TIP3   OH238406   3.607   6.540   0.249  0.1717 -0.4113  0.4205
 5664TIP3    H138407   3.531   6.500   0.292 -1.9330  1.5823 -1.1539
 5664TIP3    H238408   3.618   6.488   0.169 -1.0152  0.5823 -0.4314
 5665TIP3   OH238409   3.087   1.449   3.375  0.1702  0.2428  0.2732
 5665TIP3    H138410   3.163   1.400   3.405  0.5155 -0.4047 -1.5514
 5665TIP3    H238411   3.119   1.504   3.304 -1.2001 -0.7690 -1.2045
 5666TIP3   OH238412   0.919   0.563   1.688 -0.3954 -0.6816  0.0550
 5666TIP3    H138413   0.911   0.650   1.650  0.2465  0.0712  1.5725
 5666TIP3    H238414   0.980   0.517   1.630 -0.0948  0.1544 -0.3047
 5667TIP3   OH238415   2.840   2.571  16.758 -0.1535  0.4720 -0.2128
 5667TIP3    H138416   2.758   2.614  16.783  0.6084  0.8482  1.8637
 5667TIP3    H238417   2.829   2.480  16.785 -0.7607 -0.0683 -2.1590
 5668TIP3   OH238418   5.554   2.377   6.091  0.7841  0.3323 -1.1752
 5668TIP3    H138419   5.584   2.343   6.007  0.5296 -0.1903 -1.0555
 5668TIP3    H238420   5.522   2.301   6.138  1.5753  0.5018 -0.3238
 5669TIP3   OH238421   3.071   2.724  12.837  0.1312 -0.1248 -0.3995
 5669TIP3    H138422   3.160   2.738  12.805  0.3711  1.3769  0.7778
 5669TIP3    H238423   3.071   2.761  12.925 -1.2853 -1.4097  0.1917
 5670TIP3   OH238424   4.066   0.472   6.389 -0.4710  0.1194  0.2231
 5670TIP3    H138425   4.147   0.508   6.424 -0.5012  0.1562  0.2545
 5670TIP3    H238426   4.053   0.391   6.438  0.8486 -1.1976 -1.4471
 5671TIP3   OH238427   5.999   0.750   5.047 -0.4794 -0.5139 -0.6589
 5671TIP3    H138428   5.991   0.669   5.099 -1.0179  0.3196  0.5914
 5671TIP3    H238429   5.973   0.820   5.107  2.8540  0.9746 -0.6925
 5672TIP3   OH238430   6.095   3.809   1.921  0.4485 -0.0597 -0.3291
 5672TIP3    H138431   6.078   3.867   1.995  0.6639  1.7040 -1.5902
 5672TIP3    H238432   6.082   3.720   1.955 -0.2631  0.7443  1.5761
 5673TIP3   OH238433   2.860   3.695  11.252  0.1752 -0.2825  0.5171
 5673TIP3    H138434   2.905   3.611  11.264  2.2218  0.4429 -1.4321
 5673TIP3    H238435   2.918   3.760  11.292 -0.1400  0.4826 -0.2416
 5674TIP3   OH238436   5.918   3.825  15.426 -0.8408  0.4788 -0.2772
 5674TIP3    H138437   5.925   3.738  15.388 -1.1635  0.4872 -0.3549
 5674TIP3    H238438   5.979   3.878  15.374  0.6944 -0.0613  0.8743
 5675TIP3   OH238439   3.008   4.728  14.244  0.0870  0.4853  0.4601
 5675TIP3    H138440   2.914   4.749  14.249  0.3416  3.0128 -2.5344
 5675TIP3    H238441   3.010   4.638  14.211 -1.1335 -1.0051  3.9454
 5676TIP3   OH238442   3.829   5.411  14.721 -0.1439 -0.4170 -0.3126
 5676TIP3    H138443   3.761   5.366  14.671 -1.0846 -0.2701  0.7891
 5676TIP3    H238444   3.781   5.472  14.777  0.7371 -1.5992  1.8287
 5677TIP3   OH238445   6.522   2.557   0.472 -0.1308  0.0032  0.5229
 5677TIP3    H138446   6.434   2.596   0.473 -0.3213 -0.3025 -1.0019
 5677TIP3    H238447   6.505   2.463   0.477  0.2268  0.0060  2.1842
 5678TIP3   OH238448   2.536   5.473  11.701  0.2977  0.1573  0.3129
 5678TIP3    H138449   2.501   5.384  11.695  0.1436  0.2336  0.0692
 5678TIP3    H238450   2.612   5.473  11.642  0.4102  0.1327  0.4585
 5679TIP3   OH238451   6.280   3.435   4.491  0.0728  0.3329 -0.2886
 5679TIP3    H138452   6.209   3.482   4.448  0.6063 -0.1328 -1.7827
 5679TIP3    H238453   6.306   3.491   4.564 -0.9225  1.1553 -0.5436
 5680TIP3   OH238454   3.873   1.673   6.374 -0.2117 -0.3125 -0.0113
 5680TIP3    H138455   3.779   1.685   6.388 -0.8063 -1.0716 -2.7943
 5680TIP3    H238456   3.881   1.587   6.335  1.7633 -0.5493  0.8110
 5681TIP3   OH238457   5.207   0.157  12.770 -0.1776  0.2360 -0.1213
 5681TIP3    H138458   5.143   0.153  12.698 -1.3689 -2.2453  0.9616
 5681TIP3    H238459   5.165   0.214  12.835  0.0265  0.9144 -0.5745
 5682TIP3   OH238460   1.821   5.641  10.976  0.2478 -0.0570  0.3133
 5682TIP3    H138461   1.765   5.712  11.009 -1.1084 -0.3553 -1.2214
 5682TIP3    H238462   1.773   5.561  10.996  0.5743 -0.3803 -0.1774
 5683TIP3   OH238463   3.045   5.657   0.058  0.1116 -0.5710 -0.0306
 5683TIP3    H138464   3.058   5.721  -0.012 -0.3468 -1.0622 -0.5851
 5683TIP3    H238465   3.000   5.706   0.127  0.6788 -0.0485 -0.0258
 5684TIP3   OH238466   0.788   4.747  15.499 -0.8914  0.6427  0.3085
 5684TIP3    H138467   0.822   4.724  15.412  1.0713 -0.7684  1.3507
 5684TIP3    H238468   0.806   4.840  15.508  0.9032  0.3578 -0.0045
 5685TIP3   OH238469   0.103   5.804  14.652 -0.1630  0.3206  0.2473
 5685TIP3    H138470   0.113   5.826  14.744  0.0465  0.1186  0.2712
 5685TIP3    H238471   0.037   5.866  14.620 -1.1665 -0.4245  0.8226
 5686TIP3   OH238472   1.980   5.823  14.165  0.4030 -0.1552  0.2868
 5686TIP3    H138473   2.045   5.891  14.178 -1.4273  2.1294 -1.6017
 5686TIP3    H238474   1.936   5.814  14.249  1.3487  0.2272  0.8308
 5687TIP3   OH238475   1.060   4.282  14.215 -0.0761  0.2844  0.6729
 5687TIP3    H138476   1.069   4.227  14.292  1.4479  1.8583  1.6969
 5687TIP3    H238477   1.138   4.263  14.163 -0.3946  0.2522  0.2005
 5688TIP3   OH238478   0.987   2.535   0.258  0.2086 -0.6904 -0.4189
 5688TIP3    H138479   0.902   2.511   0.294  0.4187 -0.6982  0.0852
 5688TIP3    H238480   0.967   2.598   0.189 -0.2512 -1.2667 -0.8161
 5689TIP3   OH238481   0.448   3.790   3.881  0.3166 -0.2894  0.1490
 5689TIP3    H138482   0.388   3.791   3.806  0.3382 -0.2446  0.1325
 5689TIP3    H238483   0.522   3.738   3.851  0.3188 -0.2835  0.1442
 5690TIP3   OH238484   4.507   6.114  11.042 -0.1132 -0.2869 -0.0032
 5690TIP3    H138485   4.486   6.168  11.118  0.5530  2.1286 -1.4548
 5690TIP3    H238486   4.430   6.121  10.986 -0.9846 -2.7876  0.7127
 5691TIP3   OH238487   1.051   5.145  12.072 -0.0003  0.1093 -0.5142
 5691TIP3    H138488   1.105   5.206  12.022  2.1859 -1.9556 -0.8307
 5691TIP3    H238489   1.065   5.171  12.164  2.6083 -1.0884 -0.4923
 5692TIP3   OH238490   2.064   3.698   2.654 -0.2132 -0.0795  0.0853
 5692TIP3    H138491   2.028   3.693   2.565  0.0292  1.5819 -0.1342
 5692TIP3    H238492   1.989   3.714   2.710 -0.5710 -2.4791  0.4167
 5693TIP3   OH238493   0.840   4.461  13.927 -0.2747  0.4030  0.7526
 5693TIP3    H138494   0.798   4.438  13.844 -1.1397  0.6242  1.1261
 5693TIP3    H238495   0.774   4.509  13.976  0.3270  0.5341  1.4619
 5694TIP3   OH238496   1.485   1.347   5.350  0.0100  0.3413  0.0672
 5694TIP3    H138497   1.412   1.409   5.353  0.4502  0.8425  0.7668
 5694TIP3    H238498   1.562   1.402   5.336  0.4569  0.0102  1.1138
 5695TIP3   OH238499   5.542   3.303   1.512  0.3411  1.1846 -0.5538
 5695TIP3    H138500   5.579   3.261   1.590  1.6443  1.8946 -0.7571
 5695TIP3    H238501   5.484   3.237   1.475  0.7932  0.3074  0.2385
 5696TIP3   OH238502   4.293   0.103  14.690 -0.0724 -0.1757  0.7685
 5696TIP3    H138503   4.292   0.113  14.786  1.6495  0.2171  0.7840
 5696TIP3    H238504   4.268   0.189  14.657  0.5612  0.0547  0.8777
 5697TIP3   OH238505   1.895   4.296  10.719  0.3429  0.8788  0.4575
 5697TIP3    H138506   1.962   4.228  10.726 -0.5150  0.0503  0.8250
 5697TIP3    H238507   1.925   4.365  10.777  1.0621  0.6815  0.3319
 5698TIP3   OH238508   4.121   3.052  12.622 -0.0717 -0.2906  0.1264
 5698TIP3    H138509   4.063   3.041  12.697  0.6692  2.2799  1.1893
 5698TIP3    H238510   4.192   2.990  12.637 -2.0191 -2.9812 -0.8373
 5699TIP3   OH238511   5.645   6.217  11.990 -0.3821  1.4140  0.0870
 5699TIP3    H138512   5.729   6.242  11.953 -0.4629  0.3080 -0.8821
 5699TIP3    H238513   5.596   6.179  11.917 -0.9397  0.1444  1.0834
 5700TIP3   OH238514   2.133   4.855  12.475  0.6440  0.1318  0.5890
 5700TIP3    H138515   2.204   4.793  12.457  0.4512  0.0381  0.1396
 5700TIP3    H238516   2.152   4.887  12.563  0.8223 -0.4618  0.7745
 5701TIP3   OH238517   2.392   0.601  12.365  0.0048 -0.4782  1.0379
 5701TIP3    H138518   2.484   0.624  12.357  0.1757 -1.5029 -0.3845
 5701TIP3    H238519   2.349   0.648  12.293 -0.3554 -1.0422  0.8794
 5702TIP3   OH238520   3.062   2.208   5.090  0.3352  0.1041  0.2952
 5702TIP3    H138521   3.055   2.301   5.067 -1.1430  0.1521  0.8462
 5702TIP3    H238522   2.999   2.196   5.160 -1.2389 -1.8145 -1.3328
 5703TIP3   OH238523   0.658   6.180  11.161 -0.2481  0.4035 -0.1932
 5703TIP3    H138524   0.728   6.195  11.225  0.0001 -0.0334 -0.3567
 5703TIP3    H238525   0.633   6.267  11.132 -1.4480  0.7406  1.6537
 5704TIP3   OH238526   2.843   2.963   2.710  0.4294  0.1711 -0.2827
 5704TIP3    H138527   2.805   2.886   2.752 -0.1991  0.2680 -0.6512
 5704TIP3    H238528   2.787   2.978   2.633  0.3438  1.1716 -0.0445
 5705TIP3   OH238529   4.100   2.167  16.843  0.0573  0.3994 -0.4834
 5705TIP3    H138530   4.179   2.203  16.884 -0.9272  1.0326  0.9338
 5705TIP3    H238531   4.113   2.181  16.749  1.6044  0.5284 -0.2670
 5706TIP3   OH238532   2.682   2.339   4.632 -0.5140  0.4772  0.2882
 5706TIP3    H138533   2.771   2.329   4.598 -1.3749 -1.0700 -1.7397
 5706TIP3    H238534   2.668   2.434   4.635  0.9126  0.7275 -0.1767
 5707TIP3   OH238535   5.260   1.847  15.871  0.0283  0.0714 -0.2879
 5707TIP3    H138536   5.337   1.828  15.818  0.4241 -0.7591  0.5593
 5707TIP3    H238537   5.292   1.908  15.938 -0.1852  0.1854 -0.2897
 5708TIP3   OH238538   6.298   0.196   3.217 -0.0777  0.0368  0.0032
 5708TIP3    H138539   6.353   0.267   3.184 -1.1290  1.2923  0.8721
 5708TIP3    H238540   6.235   0.180   3.147 -0.5255  0.7379  0.2341
 5709TIP3   OH238541   4.029   4.219   1.764 -0.6360  0.4594  0.0321
 5709TIP3    H138542   3.957   4.166   1.730 -1.0152  2.0370 -1.7843
 5709TIP3    H238543   4.105   4.194   1.712 -0.9992  2.1824 -1.4193
 5710TIP3   OH238544   2.124   3.809   1.595  0.9076 -0.8371 -0.0897
 5710TIP3    H138545   2.140   3.777   1.506  0.5219  0.1385 -0.5258
 5710TIP3    H238546   2.111   3.903   1.584  0.5094 -0.7631  0.9564
 5711TIP3   OH238547   5.494   4.300   0.315  0.3393 -0.1629 -0.4895
 5711TIP3    H138548   5.477   4.206   0.307  0.6928 -0.2811  0.0682
 5711TIP3    H238549   5.523   4.311   0.405 -0.3269  0.5912 -0.3625
 5712TIP3   OH238550   5.968   1.538   2.783  0.3379  0.0871 -0.4634
 5712TIP3    H138551   5.948   1.556   2.691 -1.1742  0.8883 -0.0100
 5712TIP3    H238552   5.920   1.605   2.832  1.6668  0.1144  0.9019
 5713TIP3   OH238553   3.450   3.439  15.244  0.2515  0.0902 -0.6589
 5713TIP3    H138554   3.538   3.441  15.205  0.7059  0.6195  0.3598
 5713TIP3    H238555   3.392   3.461  15.172  0.9592 -0.2020 -1.3398
 5714TIP3   OH238556   3.291   2.559  13.722 -0.1767  0.3402 -0.4081
 5714TIP3    H138557   3.340   2.608  13.656  0.0715 -0.6690 -0.9916
 5714TIP3    H238558   3.351   2.492  13.753  0.0133  1.3331  1.5263
 5715TIP3   OH238559   6.342   0.770  12.339  0.7765 -0.3382  0.2090
 5715TIP3    H138560   6.390   0.789  12.258  2.3022  0.2932  1.2012
 5715TIP3    H238561   6.410   0.767  12.406 -0.3451 -1.7684  1.3418
 5716TIP3   OH238562   2.937   3.154   1.002 -0.1568 -0.3253 -0.2709
 5716TIP3    H138563   2.916   3.228   1.059 -1.6023 -0.2444 -0.8528
 5716TIP3    H238564   2.919   3.077   1.056  0.5929 -0.2639  0.0793
 5717TIP3   OH238565   1.033   6.080  15.925  0.3386  0.0320  0.1019
 5717TIP3    H138566   1.021   6.158  15.979  0.1146  0.3552 -0.4053
 5717TIP3    H238567   1.076   6.017  15.982  0.9513  0.6932  0.3746
 5718TIP3   OH238568   4.106   3.828   0.012 -0.1586  0.0283 -0.3256
 5718TIP3    H138569   4.160   3.816   0.090  0.9156 -0.3661 -1.0870
 5718TIP3    H238570   4.092   3.740  -0.022 -0.4051  0.2100 -0.7090
 5719TIP3   OH238571   3.021   1.949  11.214 -0.0550 -0.4609 -0.3051
 5719TIP3    H138572   2.965   1.878  11.182 -1.8960  0.7745  0.0260
 5719TIP3    H238573   3.093   1.951  11.152 -0.5455 -1.8722 -0.9854
 5720TIP3   OH238574   4.459   0.647  11.595  0.4271 -0.3786  0.1191
 5720TIP3    H138575   4.373   0.658  11.636  0.9327 -2.6507  1.9363
 5720TIP3    H238576   4.446   0.577  11.531  0.4838  0.7635 -1.2070
 5721TIP3   OH238577   0.464   5.349  12.223  0.1615  0.3436  0.2815
 5721TIP3    H138578   0.392   5.330  12.163  1.8535 -0.8917 -1.4983
 5721TIP3    H238579   0.477   5.443  12.216 -0.2132  0.3330 -0.6521
 5722TIP3   OH238580   2.439   1.804   5.765  0.0859  0.6756 -0.1073
 5722TIP3    H138581   2.516   1.854   5.794  0.5966 -0.0938 -0.1243
 5722TIP3    H238582   2.394   1.781   5.846 -0.9196  2.3226 -0.1440
 5723TIP3   OH238583   3.764   5.037  10.281  0.0764  0.0020 -0.7542
 5723TIP3    H138584   3.776   4.957  10.332 -1.4477 -0.3105 -0.8310
 5723TIP3    H238585   3.815   5.025  10.202  1.0734 -0.2457 -0.0831
 5724TIP3   OH238586   2.001   2.574   4.331 -0.2685 -0.4907  0.6091
 5724TIP3    H138587   2.059   2.545   4.402 -2.9336 -0.0270  3.1440
 5724TIP3    H238588   1.972   2.493   4.289  0.5355 -0.8361  0.7082
 5725TIP3   OH238589   4.170   0.529  11.223  0.1459 -0.2645  0.1796
 5725TIP3    H138590   4.092   0.527  11.279  0.1051  0.8534  0.1809
 5725TIP3    H238591   4.138   0.513  11.135  0.1190 -1.3154  0.3657
 5726TIP3   OH238592   4.979   4.090  12.744  0.2004 -0.2685  0.1276
 5726TIP3    H138593   5.072   4.068  12.734  0.1616 -0.1715 -0.4612
 5726TIP3    H238594   4.944   4.022  12.801  0.2062 -1.4337 -1.1982
 5727TIP3   OH238595   4.454   2.236   0.126  0.3535  0.8640 -0.2423
 5727TIP3    H138596   4.457   2.292   0.204  1.4874 -2.1731  2.0805
 5727TIP3    H238597   4.411   2.290   0.060 -1.9569  3.1700  2.8423
 5728TIP3   OH238598   1.900   0.056  13.570  0.2833 -0.3918 -0.3426
 5728TIP3    H138599   1.984   0.011  13.572  0.5149  0.0471 -0.1750
 5728TIP3    H238600   1.921   0.145  13.542  0.0942  0.1772  1.2251
 5729TIP3   OH238601   4.933   3.407   4.653  0.4220  0.1959  0.2427
 5729TIP3    H138602   4.869   3.464   4.611  1.1223  1.5606  0.9870
 5729TIP3    H238603   4.896   3.390   4.740  0.2296 -0.4827  0.0348
 5730TIP3   OH238604   3.661   1.130  11.956 -0.0554  0.3350  0.4205
 5730TIP3    H138605   3.589   1.068  11.969  1.0238 -0.8555  0.8457
 5730TIP3    H238606   3.718   1.088  11.891  0.5856  0.9875  0.5418
 5731TIP3   OH238607   4.475   6.351  11.247  0.6360 -0.3288  0.1025
 5731TIP3    H138608   4.542   6.416  11.269  0.9832 -0.3242 -0.9305
 5731TIP3    H238609   4.439   6.381  11.164 -1.9293  0.6514  1.4511
 5732TIP3   OH238610   2.336   1.732  14.898 -0.4717  0.3529 -0.2373
 5732TIP3    H138611   2.400   1.661  14.889 -0.3080 -0.0340  3.0121
 5732TIP3    H238612   2.387   1.811  14.880  0.5749 -0.0585  0.7749
 5733TIP3   OH238613   0.110   6.297  15.931  0.0623 -0.0726 -0.3703
 5733TIP3    H138614   0.049   6.338  15.993  0.5057  0.0392  0.0006
 5733TIP3    H238615   0.143   6.370  15.878  0.1371 -0.0821 -0.3373
 5734TIP3   OH238616   5.904   1.516  14.886  0.0996  0.6876  0.3187
 5734TIP3    H138617   5.999   1.530  14.885 -0.0556  1.7953  0.0689
 5734TIP3    H238618   5.867   1.602  14.906 -0.9001  0.5613 -0.8577
 5735TIP3   OH238619   4.585   3.818   0.547 -0.4938  0.1036 -0.0590
 5735TIP3    H138620   4.609   3.731   0.515  2.1249  0.9022 -0.4725
 5735TIP3    H238621   4.489   3.817   0.549 -0.5462 -2.8413  0.1597
 5736TIP3   OH238622   2.416   5.178  15.516 -0.5234  0.3582  0.0869
 5736TIP3    H138623   2.358   5.219  15.580 -1.0381  1.0931 -0.8176
 5736TIP3    H238624   2.380   5.204  15.431 -1.1222 -2.3125 -0.5798
 5737TIP3   OH238625   6.710   6.177   3.191 -0.0264 -0.4531 -0.1475
 5737TIP3    H138626   6.732   6.270   3.186  1.1687 -0.7517 -0.7865
 5737TIP3    H238627   6.646   6.171   3.263 -0.5859  0.9309 -0.5066
 5738TIP3   OH238628   3.803   3.361   3.020  0.7594 -0.5519  0.1713
 5738TIP3    H138629   3.721   3.315   3.001 -0.2579  0.5057  1.7093
 5738TIP3    H238630   3.852   3.300   3.075  1.0879 -1.2459 -0.8690
 5739TIP3   OH238631   3.074   1.160  12.729  1.0154 -0.5817  0.3976
 5739TIP3    H138632   3.079   1.181  12.636 -0.2334  1.3117  0.7110
 5739TIP3    H238633   3.156   1.114  12.748  0.8325 -1.9257 -1.8303
 5740TIP3   OH238634   0.705   0.997  13.012 -0.6837  0.2031  0.3300
 5740TIP3    H138635   0.784   0.950  13.037 -0.6976  0.0717  0.1299
 5740TIP3    H238636   0.634   0.945  13.049 -0.6729  0.3883  0.6178
 5741TIP3   OH238637   5.138   5.160  17.256 -0.1445 -0.1632  0.3951
 5741TIP3    H138638   5.202   5.174  17.326 -0.7611  0.6654  0.8005
 5741TIP3    H238639   5.137   5.242  17.207  0.9478 -1.0394 -1.1723
 5742TIP3   OH238640   0.967   1.620   5.583  0.8834  0.1383 -0.0581
 5742TIP3    H138641   0.913   1.594   5.657  1.3594 -0.6362  0.0372
 5742TIP3    H238642   1.040   1.667   5.622 -0.3703  2.4110 -0.2889
 5743TIP3   OH238643   3.604   6.293   6.449 -0.5004 -0.2283 -0.2049
 5743TIP3    H138644   3.591   6.199   6.435 -0.3465 -0.1925 -0.5987
 5743TIP3    H238645   3.529   6.334   6.405 -1.3862 -0.2283  1.2322
 5744TIP3   OH238646   3.544   0.907  16.297  0.1275 -0.5721 -0.7869
 5744TIP3    H138647   3.499   0.832  16.335  0.2001  0.0951  0.6944
 5744TIP3    H238648   3.633   0.902  16.331  0.0629  0.3240 -0.4389
 5745TIP3   OH238649   0.890   5.520   1.838 -0.5492  0.5809 -0.0221
 5745TIP3    H138650   0.888   5.615   1.852  1.9331  0.6762  0.1618
 5745TIP3    H238651   0.800   5.497   1.814 -1.6618  2.6735  1.7819
 5746TIP3   OH238652   1.900   1.938   6.263 -0.1015  0.7982 -0.4471
 5746TIP3    H138653   1.807   1.920   6.246  0.0650 -0.0594 -0.4923
 5746TIP3    H238654   1.900   2.024   6.305 -0.9592  0.5839  0.0189
 5747TIP3   OH238655   4.322   2.375  13.433 -0.1499 -0.2210 -0.1969
 5747TIP3    H138656   4.238   2.358  13.476 -0.3362  0.4288 -0.2933
 5747TIP3    H238657   4.317   2.326  13.351  0.4526 -1.9678  0.7621
 5748TIP3   OH238658   3.856   1.158   0.098  0.2411 -0.0619  0.2556
 5748TIP3    H138659   3.837   1.246   0.067  1.3850  0.2356  0.3824
 5748TIP3    H238660   3.785   1.104   0.062 -0.9750  1.0382  0.9131
 5749TIP3   OH238661   3.941   3.498  14.259 -0.2358 -0.4336 -0.6005
 5749TIP3    H138662   3.847   3.492  14.272 -0.1292  1.9391  2.4674
 5749TIP3    H238663   3.951   3.551  14.179 -1.5977  0.8325  0.0163
 5750TIP3   OH238664   3.865   4.120   0.639 -0.2270 -0.4809  0.2450
 5750TIP3    H138665   3.813   4.140   0.716 -2.8938  0.0731 -1.5418
 5750TIP3    H238666   3.837   4.032   0.614 -0.0701 -0.3123 -0.5589
 5751TIP3   OH238667   6.705   4.583   1.234 -0.3258  0.0947 -0.2236
 5751TIP3    H138668   6.669   4.496   1.254  0.5348 -0.1192  0.4165
 5751TIP3    H238669   6.684   4.596   1.141 -1.0198 -0.5199 -0.1641
 5752TIP3   OH238670   6.585   2.036   2.705  0.3355 -0.4476  1.0446
 5752TIP3    H138671   6.670   2.081   2.703 -0.1691  0.4789 -0.6734
 5752TIP3    H238672   6.521   2.107   2.711 -0.3551 -1.1483  2.4505
 5753TIP3   OH238673   1.397   1.560  15.708 -0.0966  0.2276  0.0721
 5753TIP3    H138674   1.445   1.485  15.741  0.2688  0.1900 -0.5411
 5753TIP3    H238675   1.464   1.617  15.669 -0.2273  1.3285  1.3487
 5754TIP3   OH238676   2.196   3.683  11.801 -0.1458 -0.4036  0.5993
 5754TIP3    H138677   2.159   3.595  11.803  0.0663 -0.5930 -1.6548
 5754TIP3    H238678   2.191   3.713  11.892 -2.8377 -1.6368  0.9667
 5755TIP3   OH238679   0.977   4.829   0.927 -0.4155 -0.1344  0.2484
 5755TIP3    H138680   0.966   4.779   1.008 -0.0398 -1.3963 -0.4436
 5755TIP3    H238681   1.070   4.820   0.906  0.2346  2.8333  1.2992
 5756TIP3   OH238682   4.790   4.788   3.108  0.3232 -0.2999 -0.3090
 5756TIP3    H138683   4.739   4.824   3.036  0.4725 -0.0313 -0.2816
 5756TIP3    H238684   4.754   4.700   3.122 -0.5050  0.0856  0.0704
 5757TIP3   OH238685   2.792   2.198  12.397  0.1933  0.9393  0.0960
 5757TIP3    H138686   2.817   2.118  12.444  1.0394  0.2859 -1.4043
 5757TIP3    H238687   2.752   2.167  12.316  2.1940  1.9868 -1.3652
 5758TIP3   OH238688   5.533   0.399  15.517 -0.0859  0.1036 -0.6496
 5758TIP3    H138689   5.543   0.315  15.563 -1.9464 -0.5481 -1.3248
 5758TIP3    H238690   5.539   0.465  15.586  0.4537 -0.6306  0.0366
 5759TIP3   OH238691   0.285   5.765  14.322 -0.0398  0.2212  0.2984
 5759TIP3    H138692   0.207   5.818  14.308 -0.5688 -0.4365  0.6841
 5759TIP3    H238693   0.332   5.807  14.394  0.4395  1.1340 -0.5318
 5760TIP3   OH238694   3.348   0.526   4.588 -0.1875  0.5599  0.4138
 5760TIP3    H138695   3.347   0.430   4.595  3.3953  0.2773 -0.8393
 5760TIP3    H238696   3.332   0.557   4.677 -1.3209 -1.1612  0.8612
 5761TIP3   OH238697   2.312   4.860  11.313  0.6633 -0.0157 -0.3386
 5761TIP3    H138698   2.350   4.921  11.250 -0.8256 -0.9356 -2.2258
 5761TIP3    H238699   2.245   4.813  11.264 -0.6297 -0.7540  1.9697
 5762TIP3   OH238700   6.689   2.284  14.700  0.3794 -0.4748  0.3901
 5762TIP3    H138701   6.719   2.371  14.672  1.0379 -0.0342  2.2955
 5762TIP3    H238702   6.594   2.287  14.687  0.6880 -0.5503 -2.2573
 5763TIP3   OH238703   3.608   1.800  16.841  0.2788  0.1328 -0.4454
 5763TIP3    H138704   3.697   1.820  16.812  0.5400  1.1676  0.9315
 5763TIP3    H238705   3.552   1.851  16.782  0.5863 -0.5117 -1.3108
 5764TIP3   OH238706   6.043   2.902  11.409 -0.1739 -0.3848 -0.6597
 5764TIP3    H138707   6.076   2.983  11.448 -0.1072 -0.8807  0.3400
 5764TIP3    H238708   6.100   2.887  11.334 -0.3864  0.6547 -1.0395
 5765TIP3   OH238709   5.412   1.484  16.699 -0.1997 -0.1646 -0.3654
 5765TIP3    H138710   5.489   1.536  16.675  1.7102 -2.8860 -0.6755
 5765TIP3    H238711   5.434   1.395  16.669 -2.0504 -1.7251  2.4778
 5766TIP3   OH238712   0.136   3.628  14.217  0.2810 -0.4520  0.0208
 5766TIP3    H138713   0.196   3.556  14.200  0.4960 -0.3443  0.3037
 5766TIP3    H238714   0.174   3.703  14.170 -0.1015 -0.5902 -0.5204
 5767TIP3   OH238715   3.835   5.172   5.757  0.1842  0.3359  0.2278
 5767TIP3    H138716   3.853   5.133   5.672 -0.7598  2.8700 -1.2490
 5767TIP3    H238717   3.865   5.107   5.820  0.4774 -1.8552 -2.0095
 5768TIP3   OH238718   5.093   3.799   4.690  0.7327 -0.1162  0.0546
 5768TIP3    H138719   5.042   3.825   4.613  0.4405  0.5924  0.4793
 5768TIP3    H238720   5.078   3.705   4.698 -1.5802  0.2603  0.9085
 5769TIP3   OH238721   4.199   4.152  14.146  0.4673  0.2120  0.5347
 5769TIP3    H138722   4.274   4.095  14.128  0.6229 -0.0265  1.7831
 5769TIP3    H238723   4.228   4.206  14.219 -0.0247  1.2352 -0.0125
 5770TIP3   OH238724   4.401   2.957   5.634 -0.7951  0.2167 -0.0261
 5770TIP3    H138725   4.442   3.031   5.679  1.1336 -1.3886  1.0229
 5770TIP3    H238726   4.458   2.941   5.559 -0.8306 -0.5933  0.1150
 5771TIP3   OH238727   4.727   5.994  11.975  0.5108  0.4630 -0.0500
 5771TIP3    H138728   4.773   5.944  11.907 -1.9394 -0.3405 -1.2032
 5771TIP3    H238729   4.718   5.933  12.048 -2.7121 -1.0473 -1.5513
 5772TIP3   OH238730   4.369   3.473   3.558  0.0995  0.1905 -0.6748
 5772TIP3    H138731   4.372   3.560   3.596 -2.6131  0.4795 -0.9516
 5772TIP3    H238732   4.366   3.488   3.463 -0.6702 -0.1874 -0.7148
 5773TIP3   OH238733   0.626   1.360   1.795  0.4127 -0.3960  0.2172
 5773TIP3    H138734   0.588   1.280   1.759  0.3592 -0.3627  0.2007
 5773TIP3    H238735   0.694   1.385   1.732 -1.7144  1.3960 -1.5145
 5774TIP3   OH238736   6.253   3.821  14.325  0.2987 -0.1279 -0.0347
 5774TIP3    H138737   6.324   3.885  14.316 -0.0627  0.2639 -0.1253
 5774TIP3    H238738   6.286   3.743  14.281  0.6341  0.0864 -0.1691
 5775TIP3   OH238739   2.939   2.432  16.447 -0.2903 -0.1503 -0.3061
 5775TIP3    H138740   2.906   2.358  16.396  1.6625 -0.4135 -1.2658
 5775TIP3    H238741   2.911   2.510  16.399  0.1799 -0.3607 -0.9368
 5776TIP3   OH238742   2.867   1.246   0.676 -0.5005  0.0439  0.0296
 5776TIP3    H138743   2.841   1.175   0.618 -0.7442 -0.0791  0.2819
 5776TIP3    H238744   2.935   1.293   0.629 -2.4955  1.5500 -1.5054
 5777TIP3   OH238745   5.552   5.021  14.725 -0.5244 -0.1075 -0.4212
 5777TIP3    H138746   5.628   4.962  14.721 -0.3960  0.1064 -2.2301
 5777TIP3    H238747   5.515   5.017  14.637 -1.7347  0.9485  0.0172
 5778TIP3   OH238748   5.326   0.027  14.572  0.3655 -0.4999  1.0010
 5778TIP3    H138749   5.342   0.086  14.498  1.4835 -0.0467  1.5958
 5778TIP3    H238750   5.323  -0.060  14.532 -1.6829 -0.0526  0.0607
 5779TIP3   OH238751   1.744   2.291   3.773 -0.7673 -0.1163 -0.4045
 5779TIP3    H138752   1.779   2.377   3.750 -0.9298  0.4390  1.2779
 5779TIP3    H238753   1.715   2.254   3.689 -1.5286  1.8411 -1.0717
 5780TIP3   OH238754   5.877   2.643  14.030  0.7027  0.2740 -0.0378
 5780TIP3    H138755   5.923   2.560  14.044 -0.8982 -0.3188  2.2745
 5780TIP3    H238756   5.785   2.619  14.028  0.1202  2.0988  1.9701
 5781TIP3   OH238757   2.664   0.498   5.841  0.7194  0.3145 -0.1496
 5781TIP3    H138758   2.690   0.581   5.880  2.2116 -0.5097  0.7279
 5781TIP3    H238759   2.575   0.513   5.808 -0.1658  1.4518  2.4693
 5782TIP3   OH238760   5.380   1.557  14.878 -0.0510 -0.3093 -0.2468
 5782TIP3    H138761   5.444   1.570  14.947  0.5716 -1.5034 -0.5688
 5782TIP3    H238762   5.427   1.576  14.797 -0.0505 -1.2993 -0.4938
 5783TIP3   OH238763   2.819   1.796   5.450  0.2665  0.0913 -0.0589
 5783TIP3    H138764   2.817   1.796   5.355 -0.6239  0.3568 -0.0442
 5783TIP3    H238765   2.755   1.730   5.476  0.9160 -0.3992  0.3633
 5784TIP3   OH238766   0.308   4.858  14.372 -0.1515 -0.0514 -0.5654
 5784TIP3    H138767   0.247   4.809  14.427 -0.3332  1.0784  0.2737
 5784TIP3    H238768   0.260   4.874  14.291 -0.2912 -0.7548 -0.6292
 5785TIP3   OH238769   4.570   1.864   6.241  0.4504  0.5752  0.3650
 5785TIP3    H138770   4.529   1.846   6.326 -1.6454  1.0228 -0.4978
 5785TIP3    H238771   4.533   1.948   6.214  0.6762  0.1873 -1.2423
 5786TIP3   OH238772   2.000   4.334   4.263 -0.0080  0.6060 -0.4360
 5786TIP3    H138773   2.076   4.288   4.227 -0.4562 -0.9484  0.5382
 5786TIP3    H238774   2.036   4.416   4.297  1.4474 -0.5223  0.9175
 5787TIP3   OH238775   6.490   4.671   3.948 -0.3867 -0.3244 -0.1844
 5787TIP3    H138776   6.508   4.636   4.035  1.7220  0.1171 -0.3766
 5787TIP3    H238777   6.414   4.728   3.959  2.1262  2.9181  2.3260
 5788TIP3   OH238778   5.839   4.952  11.982  0.4344 -0.0738  0.1440
 5788TIP3    H138779   5.855   4.980  12.072  0.5845  0.1752  0.0436
 5788TIP3    H238780   5.746   4.929  11.980  0.9787 -2.5876  1.0199
 5789TIP3   OH238781   1.266   5.280   3.418 -0.1447 -0.2107 -0.0680
 5789TIP3    H138782   1.257   5.225   3.340 -0.1029  0.7379 -0.7454
 5789TIP3    H238783   1.328   5.348   3.393 -0.6925  0.5348  0.5581
 5790TIP3   OH238784   0.701   1.174  14.880  0.0671  0.0490 -0.1831
 5790TIP3    H138785   0.736   1.171  14.969 -0.1969  0.8580 -0.0452
 5790TIP3    H238786   0.773   1.206  14.826  0.1691 -0.2636 -0.2362
 5791TIP3   OH238787   6.291   0.041  11.328 -0.0363 -0.3928 -0.1928
 5791TIP3    H138788   6.219   0.002  11.377 -0.6251 -0.1130 -0.8249
 5791TIP3    H238789   6.292  -0.007  11.245 -0.9135  1.0446 -1.0720
 5792TIP3   OH238790   5.285   0.213   4.825 -0.0462 -0.9321 -0.0827
 5792TIP3    H138791   5.315   0.290   4.777  0.0259 -1.5361 -1.0277
 5792TIP3    H238792   5.190   0.211   4.809 -0.1382 -0.7078  0.4300
 5793TIP3   OH238793   5.716   6.402  16.522  0.5384  0.0401  0.4432
 5793TIP3    H138794   5.759   6.355  16.451 -0.8294  0.8017 -0.9462
 5793TIP3    H238795   5.713   6.493  16.492 -0.4933  0.2925  1.2553
 5794TIP3   OH238796   3.009   5.305   1.846  0.3948  0.8787  0.0920
 5794TIP3    H138797   3.051   5.371   1.790  0.1831  1.1417  0.2398
 5794TIP3    H238798   2.920   5.337   1.858 -0.0540 -0.0070 -0.7510
 5795TIP3   OH238799   6.619   5.943  12.643  0.0600  0.1695  0.2255
 5795TIP3    H138800   6.646   5.852  12.647  1.7546  0.6587  0.6832
 5795TIP3    H238801   6.531   5.944  12.682  0.4450 -1.0935  1.1951
 5796TIP3   OH238802   0.711   1.515  13.357 -0.8031 -0.2093 -0.2419
 5796TIP3    H138803   0.672   1.438  13.398 -1.5992  0.7392  0.8562
 5796TIP3    H238804   0.687   1.588  13.415  1.8389  0.5625  0.0034
 5797TIP3   OH238805   2.109   5.641  13.951  0.6665  0.8013 -0.3051
 5797TIP3    H138806   2.085   5.659  14.042 -0.1902  0.2941 -0.4183
 5797TIP3    H238807   2.114   5.728  13.909 -0.2270  0.9602 -0.0873
 5798TIP3   OH238808   3.868   4.149  13.039  0.4698 -0.3178 -0.0687
 5798TIP3    H138809   3.806   4.149  13.112  1.0361 -1.5993  0.4334
 5798TIP3    H238810   3.826   4.203  12.972 -0.2645  0.5083  1.0257
 5799TIP3   OH238811   3.422   6.297  14.811 -0.3939 -0.1258 -0.2972
 5799TIP3    H138812   3.455   6.343  14.888 -1.0922  1.1753 -0.7444
 5799TIP3    H238813   3.403   6.367  14.748  0.3317 -1.1713 -1.7247
 5800TIP3   OH238814   4.542   6.690  16.051  0.1307 -0.4402  0.0313
 5800TIP3    H138815   4.575   6.668  16.138  1.4103 -1.0611 -0.5814
 5800TIP3    H238816   4.619   6.724  16.005 -0.4400 -0.4824 -0.9761
 5801TIP3   OH238817   6.194   6.341   2.270 -0.2204  0.1039  0.4025
 5801TIP3    H138818   6.214   6.311   2.182  0.7698 -0.6080  0.8432
 5801TIP3    H238819   6.121   6.402   2.259  0.9812  1.3784 -1.1140
 5802TIP3   OH238820   0.607   2.502   2.867  0.1436 -0.3127 -0.0133
 5802TIP3    H138821   0.613   2.558   2.944 -0.5203 -1.5825  1.0055
 5802TIP3    H238822   0.546   2.547   2.809  0.0258  0.2609  0.5416
 5803TIP3   OH238823   1.178   0.851  12.670 -0.2765  0.1712  0.0551
 5803TIP3    H138824   1.082   0.854  12.674 -0.4374 -2.3053 -0.1888
 5803TIP3    H238825   1.196   0.805  12.587  0.9858 -1.9614  1.4231
 5804TIP3   OH238826   3.532   0.556  15.606  0.2493 -0.1623  0.5402
 5804TIP3    H138827   3.521   0.570  15.700  1.0029  1.2732  0.4369
 5804TIP3    H238828   3.443   0.567  15.570  0.1534  0.4334  0.9520
 5805TIP3   OH238829   5.089   2.760   0.017 -0.2057  0.3779 -0.2345
 5805TIP3    H138830   5.106   2.797  -0.069 -2.3558  1.9248 -0.0935
 5805TIP3    H238831   5.062   2.670  -0.000 -2.2682  1.1459 -1.4352
 5806TIP3   OH238832   1.743   2.425   0.335  0.2211 -0.5058 -0.0674
 5806TIP3    H138833   1.756   2.479   0.413 -1.0457  0.3255 -0.4017
 5806TIP3    H238834   1.785   2.342   0.356 -0.0016 -0.2589  1.4582
 5807TIP3   OH238835   2.357   4.695   5.465  0.4805  0.3433  0.3978
 5807TIP3    H138836   2.353   4.629   5.395  0.7958  0.5327  0.2028
 5807TIP3    H238837   2.449   4.721   5.468  0.0683  2.1087 -0.7554
 5808TIP3   OH238838   4.443   0.115  10.499 -0.1110 -0.3328  0.2004
 5808TIP3    H138839   4.350   0.103  10.520  0.1277  0.6631  2.0282
 5808TIP3    H238840   4.448   0.203  10.463  0.1331 -0.3856  0.1041
 5809TIP3   OH238841   0.861   1.976   1.726 -0.3220  0.7051  0.7325
 5809TIP3    H138842   0.777   2.014   1.753 -0.6483  1.7332 -1.4726
 5809TIP3    H238843   0.907   2.049   1.685  1.5803  0.0841  1.6760
 5810TIP3   OH238844   2.076   1.913  12.096  0.3552 -0.6590  0.1588
 5810TIP3    H138845   2.156   1.958  12.069  0.7372 -1.8769 -0.8483
 5810TIP3    H238846   2.106   1.828  12.127 -0.3748 -0.3648  1.7704
 5811TIP3   OH238847   6.337   6.398  12.957 -0.4227 -0.2720 -0.6811
 5811TIP3    H138848   6.304   6.345  13.030 -0.5763 -1.3579 -1.5189
 5811TIP3    H238849   6.426   6.423  12.984 -0.6243 -0.3068  0.0503
 5812TIP3   OH238850   1.463   6.570  16.768  0.5542  0.6627 -0.5167
 5812TIP3    H138851   1.383   6.604  16.809 -0.0027 -0.8477 -0.2777
 5812TIP3    H238852   1.435   6.543  16.681  0.6149 -0.4544 -0.2167
 5813TIP3   OH238853   6.302   2.575   4.484 -0.5932  0.0572 -0.6504
 5813TIP3    H138854   6.251   2.494   4.476 -0.9773  0.3642 -1.4422
 5813TIP3    H238855   6.312   2.606   4.394  1.4153 -0.2411 -0.5785
 5814TIP3   OH238856   2.340   0.973  12.001  0.4396 -0.0496  0.4939
 5814TIP3    H138857   2.384   0.957  11.918  0.6839 -0.1861  0.6478
 5814TIP3    H238858   2.248   0.953  11.984  0.3217  0.8645 -0.0087
 5815TIP3   OH238859   4.887   0.071   1.104  0.3477  0.3125 -0.0049
 5815TIP3    H138860   4.864  -0.018   1.128 -0.1800 -0.1968 -2.1660
 5815TIP3    H238861   4.840   0.127   1.166  1.2477 -0.8686  1.8358
 5816TIP3   OH238862   5.084   2.651   3.614 -0.2622 -0.2500  0.6285
 5816TIP3    H138863   5.066   2.744   3.631  0.5217  0.2520 -1.0337
 5816TIP3    H238864   5.172   2.651   3.576  0.4302 -1.8727  2.0999
 5817TIP3   OH238865   2.654   3.328  15.747 -0.2873 -0.5121  0.6652
 5817TIP3    H138866   2.631   3.245  15.705  0.8570 -1.3188  1.5398
 5817TIP3    H238867   2.750   3.331  15.742 -0.3988  2.0158 -1.6183
 5818TIP3   OH238868   1.942   4.134  17.249  0.2816 -0.4560 -0.6191
 5818TIP3    H138869   1.872   4.071  17.262 -1.0684  1.3449  1.5791
 5818TIP3    H238870   2.004   4.116  17.319 -0.2065  0.7233  0.1378
 5819TIP3   OH238871   0.934   4.458  11.393 -0.2056 -0.5050  0.1376
 5819TIP3    H138872   1.007   4.500  11.439 -0.2649 -1.4550  1.1314
 5819TIP3    H238873   0.951   4.476  11.300 -0.7309  2.5250  0.5277
 5820TIP3   OH238874   2.548   6.112  12.407  0.2881  0.4423  0.3132
 5820TIP3    H138875   2.580   6.026  12.379  0.3925  0.2711  0.9369
 5820TIP3    H238876   2.498   6.145  12.333 -1.1719 -0.8843  0.6619
 5821TIP3   OH238877   5.565   4.250   2.196 -0.2142  0.2351  0.4511
 5821TIP3    H138878   5.529   4.320   2.251 -2.0466 -0.8928  0.7530
 5821TIP3    H238879   5.627   4.204   2.254 -1.4402 -0.3740  1.3160
 5822TIP3   OH238880   3.801   2.814   3.464 -0.0033 -0.2742 -0.2692
 5822TIP3    H138881   3.782   2.888   3.408 -1.7277  0.7290  1.5276
 5822TIP3    H238882   3.803   2.850   3.553  0.2708 -2.1828  0.5686
 5823TIP3   OH238883   4.843   0.185  15.525  0.1898  0.8497 -0.0515
 5823TIP3    H138884   4.919   0.200  15.469 -0.8266  0.1149 -1.7346
 5823TIP3    H238885   4.771   0.231  15.482 -1.2737 -2.1057 -1.0885
 5824TIP3   OH238886   4.346   3.358  11.342 -0.3553 -0.0812 -0.3790
 5824TIP3    H138887   4.318   3.414  11.269  1.0717  0.8300 -0.2671
 5824TIP3    H238888   4.324   3.408  11.420 -1.5303 -0.8940 -0.1493
 5825TIP3   OH238889   1.784   0.503  15.077  0.0618  0.0060 -0.0286
 5825TIP3    H138890   1.771   0.540  15.164  0.0933 -0.6354  0.2526
 5825TIP3    H238891   1.871   0.532  15.051  0.3560 -0.4202  0.4671
 5826TIP3   OH238892   5.096   0.484  14.255 -0.0184  0.5285  0.5641
 5826TIP3    H138893   5.068   0.491  14.346  0.4448  2.2419  0.6098
 5826TIP3    H238894   5.172   0.426  14.258 -0.5417 -0.1479  1.1289
 5827TIP3   OH238895   3.898   0.227   0.130 -0.3699 -0.3220 -0.3325
 5827TIP3    H138896   3.910   0.159   0.064  1.3324  1.2159 -1.7005
 5827TIP3    H238897   3.931   0.188   0.211  2.0402 -0.6798 -1.4062
 5828TIP3   OH238898   2.911   2.169   2.334  0.4485  0.3252  0.6581
 5828TIP3    H138899   2.877   2.127   2.255  2.1434  0.5517 -0.2417
 5828TIP3    H238900   2.906   2.101   2.401  0.2886 -0.3194  0.0062
 5829TIP3   OH238901   2.111   0.992   1.601  0.4413  0.3823  0.6437
 5829TIP3    H138902   2.110   0.902   1.569 -0.8541  0.4297  0.4910
 5829TIP3    H238903   2.148   1.043   1.529  1.5390 -0.0535  0.8730
 5830TIP3   OH238904   2.902   1.779   0.529 -0.2966 -0.2702 -0.1614
 5830TIP3    H138905   2.916   1.864   0.486 -0.2108  1.4454  2.9253
 5830TIP3    H238906   2.989   1.750   0.556 -0.5329 -0.0979  0.8479
 5831TIP3   OH238907   4.867   0.293  11.241  0.2217 -0.0202  0.1608
 5831TIP3    H138908   4.956   0.260  11.246  0.4756  0.5022 -0.6893
 5831TIP3    H238909   4.853   0.312  11.148 -0.6250  0.3014  0.3401
 5832TIP3   OH238910   3.324   4.280  14.213 -0.3457  0.0528  0.5957
 5832TIP3    H138911   3.375   4.203  14.239 -0.6502  0.0505  1.1968
 5832TIP3    H238912   3.344   4.291  14.120 -1.4377 -1.6263  0.1192
 5833TIP3   OH238913   2.912   1.686   4.117 -0.1447  0.5933  0.4070
 5833TIP3    H138914   2.983   1.639   4.073 -0.4028  1.0300 -0.5153
 5833TIP3    H238915   2.926   1.670   4.210  0.6126 -0.1009  0.1856
 5834TIP3   OH238916   1.134   3.202   0.961  0.3514  0.2173  0.6865
 5834TIP3    H138917   1.082   3.234   0.888  1.0786  0.6991  0.3698
 5834TIP3    H238918   1.195   3.139   0.922 -1.5297 -2.1724  1.4009
 5835TIP3   OH238919   6.366   0.167  16.094  0.3699  0.9621  0.1741
 5835TIP3    H138920   6.297   0.153  16.029  0.8746  0.1265 -0.1860
 5835TIP3    H238921   6.333   0.240  16.147 -0.0811  1.6300 -0.9674
 5836TIP3   OH238922   5.219   4.180  12.447 -0.3535 -0.0981  0.4246
 5836TIP3    H138923   5.292   4.226  12.405 -0.1728  0.0679  0.9156
 5836TIP3    H238924   5.146   4.192  12.387  0.3081 -1.2845 -0.6611
 5837TIP3   OH238925   0.152   4.406   3.466  0.1510  0.2420  0.1044
 5837TIP3    H138926   0.158   4.324   3.515 -0.2704 -0.8107 -1.4946
 5837TIP3    H238927   0.192   4.472   3.523  1.7966 -1.3433  0.8863
 5838TIP3   OH238928   4.126   4.332   4.802 -0.0998 -0.7185  0.2932
 5838TIP3    H138929   4.032   4.351   4.808 -0.3395 -0.6602 -2.3902
 5838TIP3    H238930   4.167   4.398   4.857 -1.4842  1.6297 -1.2813
 5839TIP3   OH238931   0.163   1.390  12.001  0.4561  0.0791  1.0759
 5839TIP3    H138932   0.085   1.386  11.946  1.9267 -0.4342 -1.0949
 5839TIP3    H238933   0.226   1.332  11.959  3.1495  2.8965  0.8158
 5840TIP3   OH238934   1.375   1.678  12.705 -0.1281 -0.5292 -0.7206
 5840TIP3    H138935   1.293   1.634  12.727  0.0068 -1.1946 -1.5081
 5840TIP3    H238936   1.362   1.709  12.616 -0.1630  0.9166 -0.2381
 5841TIP3   OH238937   0.232   2.760  16.088  0.6844 -0.1285  0.0751
 5841TIP3    H138938   0.303   2.698  16.103  1.8723  0.4330 -2.6812
 5841TIP3    H238939   0.252   2.799  16.003 -1.2313  2.3919  0.6709
 5842TIP3   OH238940   6.037   1.162   2.647  0.2155  0.1301  0.4065
 5842TIP3    H138941   6.039   1.078   2.601  1.1970  0.9399 -1.1129
 5842TIP3    H238942   6.053   1.139   2.739  3.3411 -1.1728 -0.3357
 5843TIP3   OH238943   2.331   4.119   5.476  0.3000 -0.2306  0.3761
 5843TIP3    H138944   2.376   4.179   5.416 -1.8057  0.3998 -0.6780
 5843TIP3    H238945   2.356   4.151   5.563  1.1141  0.6750 -0.1557
 5844TIP3   OH238946   0.843   1.087  13.826  0.2931  0.1831  0.2549
 5844TIP3    H138947   0.816   1.156  13.766  1.2185 -0.1224 -0.5310
 5844TIP3    H238948   0.912   1.040  13.779  1.8172  0.6071  1.9719
 5845TIP3   OH238949   6.245   0.151   1.096 -0.2998 -0.1235 -0.1088
 5845TIP3    H138950   6.221   0.063   1.127 -2.2860  0.7543  0.9965
 5845TIP3    H238951   6.239   0.145   1.001 -0.9258 -1.0450 -0.0256
 5846TIP3   OH238952   1.418   4.958   3.045 -0.1289  0.3665 -0.2092
 5846TIP3    H138953   1.356   5.024   3.075  0.1985  0.6610 -0.1679
 5846TIP3    H238954   1.433   4.902   3.121  1.5692  1.7833  0.5628
 5847TIP3   OH238955   4.446   3.371  16.072  0.4657 -0.7142  0.2295
 5847TIP3    H138956   4.467   3.278  16.077 -1.8395 -1.2830  0.5326
 5847TIP3    H238957   4.368   3.381  16.127  0.1943  1.2483 -0.4331
 5848TIP3   OH238958   6.030   3.284  13.844 -0.2502 -0.2403 -0.8413
 5848TIP3    H138959   6.025   3.347  13.772 -1.0010  0.6168 -0.0625
 5848TIP3    H238960   6.118   3.296  13.881 -0.5732  0.7650 -0.3574
 5849TIP3   OH238961   1.460   0.296   0.969 -0.0614 -0.7675  0.1338
 5849TIP3    H138962   1.469   0.323   0.878  0.3205  0.2757  0.4641
 5849TIP3    H238963   1.549   0.270   0.996  0.4333  1.5373  0.9683
 5850TIP3   OH238964   3.063   0.236  13.923  0.6737 -0.0013  0.8182
 5850TIP3    H138965   3.122   0.297  13.880  1.1324  0.5994  2.2233
 5850TIP3    H238966   3.038   0.174  13.855  1.2579  0.9658 -0.3152
 5851TIP3   OH238967   0.601   2.254   4.656  0.7039  0.8446 -0.4001
 5851TIP3    H138968   0.606   2.178   4.598 -0.0419  0.1424  0.4150
 5851TIP3    H238969   0.537   2.312   4.616 -2.6079 -1.2624  1.4414
 5852TIP3   OH238970   0.134   4.959  15.066 -0.5857 -0.1660 -0.8850
 5852TIP3    H138971   0.178   4.944  15.149  0.1560  4.1919 -0.2348
 5852TIP3    H238972   0.202   4.944  15.000  0.5416  1.6442 -0.2212
 5853TIP3   OH238973   2.875   4.311  15.552 -0.1338  0.1710  0.2044
 5853TIP3    H138974   2.873   4.406  15.539  0.3853  0.1727  0.0821
 5853TIP3    H238975   2.833   4.275  15.474  0.6628  0.2708 -0.2855
 5854TIP3   OH238976   3.155   6.030  12.652 -0.6042  0.7096  0.0498
 5854TIP3    H138977   3.126   6.033  12.561  0.0639 -2.6647 -0.4056
 5854TIP3    H238978   3.222   6.098  12.659  0.6495 -0.1537 -2.5351
 5855TIP3   OH238979   2.554   2.361   1.786 -0.0292  0.2409 -0.3123
 5855TIP3    H138980   2.601   2.323   1.712 -0.7221 -1.5434  0.0952
 5855TIP3    H238981   2.572   2.301   1.859  0.9458  2.1470  1.1042
 5856TIP3   OH238982   3.230   1.350  10.679 -0.3311 -0.3960  0.3793
 5856TIP3    H138983   3.270   1.348  10.592 -1.3414 -3.5836 -0.1558
 5856TIP3    H238984   3.155   1.409  10.670 -0.3477 -0.5827 -0.9149
 5857TIP3   OH238985   0.306   5.740   0.308 -0.0982  0.3663  0.4844
 5857TIP3    H138986   0.237   5.745   0.242  0.6461  0.8729 -0.2754
 5857TIP3    H238987   0.266   5.777   0.387 -1.7349 -2.2831  1.0073
 5858TIP3   OH238988   5.950   5.802   4.687  0.3748 -0.3619 -0.6790
 5858TIP3    H138989   6.005   5.807   4.765 -0.1270 -2.2573 -0.1465
 5858TIP3    H238990   5.877   5.861   4.705  1.2152  0.6798 -0.5681
 5859TIP3   OH238991   1.525   0.422  11.068 -0.0482 -1.0988  0.4981
 5859TIP3    H138992   1.500   0.514  11.074 -0.6719 -1.2028 -0.3249
 5859TIP3    H238993   1.462   0.384  11.006 -0.0932 -2.1816  1.1757
 5860TIP3   OH238994   6.575   4.318  11.590  0.2624  0.1839  0.1571
 5860TIP3    H138995   6.615   4.288  11.509 -0.7350 -0.4857 -0.1111
 5860TIP3    H238996   6.528   4.241  11.623  0.9314  0.3463  1.5580
 5861TIP3   OH238997   4.128   3.866  14.966 -0.1736  0.4225  0.0136
 5861TIP3    H138998   4.161   3.868  14.876 -1.6967 -2.8172 -0.7667
 5861TIP3    H238999   4.077   3.947  14.974  1.2739  1.5636 -1.4330
 5862TIP3   OH239000   0.936   5.557   2.499  0.6708 -0.3133 -0.6269
 5862TIP3    H139001   0.962   5.556   2.591  3.3978  0.1262 -1.3059
 5862TIP3    H239002   1.016   5.533   2.452 -0.7790 -1.0107 -2.8785
 5863TIP3   OH239003   3.139   6.115   4.409  0.1876 -0.0228  0.1259
 5863TIP3    H139004   3.054   6.073   4.421  0.1488  0.0382  0.0681
 5863TIP3    H239005   3.185   6.101   4.491 -0.1831  0.6403  0.4560
 5864TIP3   OH239006   5.957   6.149  12.556  0.1066 -0.1280 -0.0775
 5864TIP3    H139007   5.907   6.067  12.551  1.6135 -1.1591  0.8992
 5864TIP3    H239008   5.961   6.168  12.650  0.8002  0.4095 -0.2116
 5865TIP3   OH239009   6.653   5.689   3.774  0.0872  0.6063 -0.2297
 5865TIP3    H139010   6.588   5.754   3.801  0.4369  1.3635 -1.1674
 5865TIP3    H239011   6.670   5.709   3.682  0.9879 -0.1413 -0.2349
 5866TIP3   OH239012   5.451   0.059   4.068 -0.2463  0.3725  0.1193
 5866TIP3    H139013   5.491  -0.004   4.127  1.1226  2.0411  1.0773
 5866TIP3    H239014   5.467   0.144   4.109 -2.1904  1.3598 -1.0072
 5867TIP3   OH239015   4.888   0.773   3.538  0.1518  0.6528  0.7560
 5867TIP3    H139016   4.853   0.821   3.463 -1.3320  0.8883  1.5603
 5867TIP3    H239017   4.980   0.800   3.543  0.2215  0.8150 -0.8072
 5868TIP3   OH239018   1.003   5.849  17.235 -0.0847 -0.4065 -0.5156
 5868TIP3    H139019   0.967   5.851  17.146 -2.1225 -1.4901  0.2115
 5868TIP3    H239020   1.093   5.878  17.225 -0.2979 -0.3625 -2.9202
 5869TIP3   OH239021   4.210   2.761   6.613 -0.0133 -0.2198 -0.0007
 5869TIP3    H139022   4.138   2.770   6.551 -2.0508  0.8340  2.3463
 5869TIP3    H239023   4.168   2.751   6.698  2.6198  0.4766  1.5128
 5870TIP3   OH239024   6.295   4.848   4.054 -0.4006  0.3608 -0.4794
 5870TIP3    H139025   6.203   4.833   4.033 -0.9002  2.4137  0.0730
 5870TIP3    H239026   6.319   4.927   4.006  0.5761  0.7986  0.6686
 5871TIP3   OH239027   3.037   0.521  11.746  0.4629 -0.0523  0.7034
 5871TIP3    H139028   3.085   0.551  11.823  0.0916 -0.3683  1.0585
 5871TIP3    H239029   3.091   0.451  11.709  0.6252  0.0786  0.6917
 5872TIP3   OH239030   3.778   1.437   4.866  0.2618 -0.2895 -0.2883
 5872TIP3    H139031   3.745   1.515   4.823  1.4721  0.0457 -0.6401
 5872TIP3    H239032   3.752   1.447   4.958 -1.5779 -0.5943 -0.7380
 5873TIP3   OH239033   2.003   3.862  16.352  0.3057 -0.2438 -0.3934
 5873TIP3    H139034   2.039   3.914  16.424 -3.6867  0.2628  1.4745
 5873TIP3    H239035   2.006   3.921  16.277  0.7729  0.7156  0.3526
 5874TIP3   OH239036   2.164   1.364   2.956 -0.1301 -0.2002  0.6628
 5874TIP3    H139037   2.240   1.345   3.010 -1.1501 -1.4915  1.7065
 5874TIP3    H239038   2.163   1.460   2.948  1.8752 -0.1698  0.1504
 5875TIP3   OH239039   2.514   2.640  12.920 -0.1686  0.2568  0.4193
 5875TIP3    H139040   2.526   2.546  12.909  0.0983  0.4197 -0.8624
 5875TIP3    H239041   2.599   2.678  12.896  0.0368  0.7741  1.8702
 5876TIP3   OH239042   3.058   4.237   5.170  0.0539  0.0199 -0.2052
 5876TIP3    H139043   3.074   4.183   5.093 -2.0718  0.5039 -1.0575
 5876TIP3    H239044   2.963   4.250   5.171 -0.0108 -0.0966  2.5942
 5877TIP3   OH239045   0.804   0.045   4.982 -0.6898 -0.5511 -0.4526
 5877TIP3    H139046   0.757  -0.039   4.977 -1.5330 -0.0401 -1.7165
 5877TIP3    H239047   0.800   0.079   4.893  1.3970 -0.0755 -0.4018
 5878TIP3   OH239048   4.398   0.075  11.102  0.2854  0.4805  0.4252
 5878TIP3    H139049   4.307   0.057  11.126  0.7699 -2.3696  0.4845
 5878TIP3    H239050   4.450   0.032  11.170  1.6864  1.5270  0.0608
 5879TIP3   OH239051   6.473   0.674  16.265  0.4412 -0.3450 -0.6961
 5879TIP3    H139052   6.451   0.708  16.179  0.5641  0.3801 -0.4481
 5879TIP3    H239053   6.515   0.589  16.248  0.6642 -0.1050 -1.3579
 5880TIP3   OH239054   2.760   5.489  11.519 -0.1884  0.0580  0.2235
 5880TIP3    H139055   2.814   5.461  11.446  0.0233  0.8674  0.0658
 5880TIP3    H239056   2.789   5.578  11.539 -0.6817  0.0862  0.8734
 5881TIP3   OH239057   6.120   3.281   6.019 -0.2489 -0.9762  0.2700
 5881TIP3    H139058   6.066   3.264   6.097 -0.8141  1.2721  0.4186
 5881TIP3    H239059   6.062   3.328   5.959  1.5494  1.8959  0.6022
 5882TIP3   OH239060   4.385   0.874  16.970  0.0942 -0.6591  0.4748
 5882TIP3    H139061   4.400   0.965  16.992  0.6398 -0.6929  0.2666
 5882TIP3    H239062   4.298   0.873  16.931  0.2847 -0.1437  0.0212
 5883TIP3   OH239063   5.143   5.955   0.108 -0.2712  0.2380  0.1261
 5883TIP3    H139064   5.122   5.961   0.201  0.3566  0.7788  0.2451
 5883TIP3    H239065   5.132   5.863   0.086  1.6365 -0.3069  1.2630
 5884TIP3   OH239066   5.863   4.371  15.629 -0.2842  0.4228  0.6235
 5884TIP3    H139067   5.823   4.457  15.639  1.1182  1.1191  0.5250
 5884TIP3    H239068   5.880   4.341  15.718 -1.0613  0.0972  0.6668
 5885TIP3   OH239069   1.336   6.746   5.341 -0.1252 -0.3303 -0.4781
 5885TIP3    H139070   1.346   6.675   5.278 -0.6665 -0.3293 -0.5730
 5885TIP3    H239071   1.425   6.763   5.373  0.0357 -0.8857 -0.6274
 5886TIP3   OH239072   0.192   0.134  11.568  0.0484  0.0092 -0.2760
 5886TIP3    H139073   0.096   0.128  11.563  0.1103 -1.0678 -0.2003
 5886TIP3    H239074   0.223   0.070  11.505  0.7354  1.1735 -1.1719
 5887TIP3   OH239075   2.941   4.715  14.744  0.1823 -0.0384 -0.2993
 5887TIP3    H139076   2.980   4.640  14.700 -0.8743 -0.8104  0.0313
 5887TIP3    H239077   2.979   4.714  14.832  0.1312 -0.2317 -0.2779
 5888TIP3   OH239078   2.303   3.412  13.458  0.2611  0.3847  0.5045
 5888TIP3    H139079   2.245   3.343  13.489 -0.8814  0.7532 -0.7179
 5888TIP3    H239080   2.291   3.413  13.363  0.9989  1.6040  0.3983
 5889TIP3   OH239081   5.187   3.778  12.758 -0.3045 -0.7528 -0.0635
 5889TIP3    H139082   5.221   3.868  12.757  0.5393 -1.0188  1.5948
 5889TIP3    H239083   5.167   3.760  12.666  0.7027  0.6859 -0.6173
 5890TIP3   OH239084   1.209   2.633   3.326 -0.2668 -0.2256  0.0600
 5890TIP3    H139085   1.149   2.615   3.254 -0.9983  0.4709  0.4746
 5890TIP3    H239086   1.152   2.654   3.400  0.3977 -2.7274  1.3900
 5891TIP3   OH239087   6.286   3.566   0.001 -0.3493  0.5492  0.4574
 5891TIP3    H139088   6.234   3.643  -0.021 -1.0736  0.1675  0.7856
 5891TIP3    H239089   6.243   3.530   0.079 -1.4205 -1.4941 -0.9979
 5892TIP3   OH239090   2.445   6.711  15.946 -0.2297 -0.3374 -0.2495
 5892TIP3    H139091   2.422   6.784  15.889 -1.2136 -1.1970 -0.9880
 5892TIP3    H239092   2.533   6.732  15.978  0.1142  0.4314 -1.6451
 5893TIP3   OH239093   6.424   0.776  14.457  0.0130 -0.6540  0.1713
 5893TIP3    H139094   6.411   0.870  14.474  2.3222 -0.4051  0.9007
 5893TIP3    H239095   6.469   0.744  14.535  0.9250 -1.9567 -0.8525
 5894TIP3   OH239096   2.793   0.654  11.528 -0.0923 -0.3199 -0.6837
 5894TIP3    H139097   2.858   0.593  11.565 -0.6246  0.3046  1.4159
 5894TIP3    H239098   2.846   0.725  11.492  0.4455  0.0904  0.8359
 5895TIP3   OH239099   2.750   0.853   6.404  0.1116 -0.3637  0.0556
 5895TIP3    H139100   2.725   0.774   6.453  0.6106  0.0262  0.9495
 5895TIP3    H239101   2.769   0.918   6.471  0.8852  0.1633 -0.6564
 5896TIP3   OH239102   2.814   4.974   6.331  0.1793  0.2037 -0.7816
 5896TIP3    H139103   2.873   4.965   6.406 -1.3625 -0.4643  0.4191
 5896TIP3    H239104   2.869   5.011   6.262  1.8406  0.1748  0.4411
 5897TIP3   OH239105   0.412   0.725  14.070 -0.1404 -0.7620 -0.1378
 5897TIP3    H139106   0.334   0.703  14.121  0.3782 -1.3535  0.4179
 5897TIP3    H239107   0.394   0.812  14.035 -0.5031 -0.3512  1.0470
 5898TIP3   OH239108   2.090   0.525  11.945 -0.4456 -0.0730 -0.2922
 5898TIP3    H139109   2.050   0.606  11.978  1.5303  1.4306 -1.4266
 5898TIP3    H239110   2.169   0.554  11.899  0.6347 -2.7116 -0.2397
 5899TIP3   OH239111   3.885   6.753  17.381 -0.1781 -0.1756 -0.1750
 5899TIP3    H139112   3.903   6.674  17.432  0.0634  0.0657  0.1208
 5899TIP3    H239113   3.880   6.723  17.291 -2.4822 -0.9317  0.1382
 5900TIP3   OH239114   0.164   3.300   4.295  0.0975  0.3208  0.0477
 5900TIP3    H139115   0.174   3.340   4.209  1.5459  1.0020  0.5092
 5900TIP3    H239116   0.252   3.302   4.333 -0.4825 -0.1256  1.4741
 5901TIP3   OH239117   4.039   4.902   1.214 -0.1139  0.5262  0.4458
 5901TIP3    H139118   3.949   4.893   1.246 -0.8463 -1.4716 -1.8861
 5901TIP3    H239119   4.045   4.993   1.185 -0.8599  1.0966  1.9512
 5902TIP3   OH239120   3.437   5.191   2.722 -0.1455 -0.0034 -0.2906
 5902TIP3    H139121   3.433   5.129   2.794 -2.4131  0.4235  0.0359
 5902TIP3    H239122   3.420   5.276   2.762  2.2094  0.7905 -0.8380
 5903TIP3   OH239123   5.061   0.731   2.754  0.4818 -0.4873  0.2393
 5903TIP3    H139124   5.062   0.791   2.829  0.7981 -1.4590  1.0313
 5903TIP3    H239125   5.153   0.717   2.733  0.3978  0.6821 -1.1112
 5904TIP3   OH239126   5.890   4.986   1.118  0.0065  0.5573  0.1556
 5904TIP3    H139127   5.906   4.935   1.197  1.6569  0.2456 -0.3443
 5904TIP3    H239128   5.850   5.067   1.150  1.5654  0.8706  1.4492
 5905TIP3   OH239129   5.506   1.615  15.707  0.4130  0.3003 -0.2137
 5905TIP3    H139130   5.466   1.541  15.662  0.5594 -0.7188  1.2890
 5905TIP3    H239131   5.599   1.610  15.684  0.4622 -0.1273  0.0777
 5906TIP3   OH239132   2.261   1.055   2.059  0.1561  0.3551 -0.5940
 5906TIP3    H139133   2.226   1.123   2.001  0.3193 -0.1880 -1.3472
 5906TIP3    H239134   2.333   1.015   2.009  0.7700  0.3509  0.2695
 5907TIP3   OH239135   1.880   6.651   2.121  0.2701 -0.1186 -0.0252
 5907TIP3    H139136   1.828   6.657   2.201 -0.6810 -2.8377 -0.3157
 5907TIP3    H239137   1.968   6.628   2.152 -0.3457 -2.3012  0.2979
 5908TIP3   OH239138   4.573   0.510  17.237 -0.2562 -0.0369  0.2285
 5908TIP3    H139139   4.487   0.552  17.227  0.3729  1.2424  0.0406
 5908TIP3    H239140   4.625   0.543  17.164  1.0278  0.8376  1.4855
 5909TIP3   OH239141   3.386   6.011   4.975  0.0296  0.6822  0.5782
 5909TIP3    H139142   3.295   5.991   4.996 -0.2072 -1.5164 -2.0622
 5909TIP3    H239143   3.437   5.953   5.031 -0.1714  1.5250  1.6634
 5910TIP3   OH239144   4.664   2.930   4.480 -0.8071 -0.6242  0.1180
 5910TIP3    H139145   4.740   2.875   4.462 -0.4782 -0.7359  1.7373
 5910TIP3    H239146   4.591   2.868   4.489 -0.8486 -0.6157 -0.1414
 5911TIP3   OH239147   6.230   2.916  12.768 -0.7712  0.1065  0.2687
 5911TIP3    H139148   6.276   2.966  12.700  0.6028 -0.2422  0.9070
 5911TIP3    H239149   6.197   2.839  12.722  1.3055 -0.8090  0.1910
 5912TIP3   OH239150   4.471   2.070   3.500  0.0308 -0.2235  0.4939
 5912TIP3    H139151   4.402   2.007   3.479  1.2105 -0.9896 -1.3170
 5912TIP3    H239152   4.541   2.017   3.537  1.0078 -0.0130 -0.9777
 5913TIP3   OH239153   2.396   2.918  13.341  0.1210  0.2839  0.1043
 5913TIP3    H139154   2.483   2.943  13.373  1.2079 -0.8429 -1.7608
 5913TIP3    H239155   2.413   2.868  13.261 -2.3055  0.9332 -0.9267
 5914TIP3   OH239156   4.284   6.596  16.005 -0.6349  0.2107 -0.4495
 5914TIP3    H139157   4.261   6.571  15.916  0.7941 -2.6283 -0.1332
 5914TIP3    H239158   4.373   6.632  15.998 -0.5007 -0.0633 -0.1790
 5915TIP3   OH239159   1.591   6.112   4.707 -0.2978  0.3844 -0.5275
 5915TIP3    H139160   1.507   6.067   4.699 -1.0007  1.4423  0.5166
 5915TIP3    H239161   1.654   6.052   4.667 -1.1494 -1.6140  0.9472
 5916TIP3   OH239162   6.451   2.977  14.551  0.0178 -0.1509 -1.0756
 5916TIP3    H139163   6.510   3.053  14.552 -0.9993  0.7000  0.9638
 5916TIP3    H239164   6.508   2.902  14.569  0.8493  0.2873 -1.8211
 5917TIP3   OH239165   1.351   3.640  13.600  0.2495  0.1257 -0.5677
 5917TIP3    H139166   1.298   3.586  13.542  0.7283  1.5519 -2.4230
 5917TIP3    H239167   1.289   3.684  13.657 -0.5269  1.0339 -2.0650
 5918TIP3   OH239168   1.046   5.736  13.552  0.4284 -0.1697 -0.1862
 5918TIP3    H139169   1.030   5.656  13.501 -0.1178  0.1051 -0.4536
 5918TIP3    H239170   0.961   5.781  13.553  0.3541 -0.2924  1.1773
 5919TIP3   OH239171   3.630   0.243   0.511  0.5065  0.2308  0.4361
 5919TIP3    H139172   3.718   0.247   0.474  1.2298 -2.9426  1.5460
 5919TIP3    H239173   3.585   0.176   0.460 -1.2278  1.5791  0.0927
 5920TIP3   OH239174   2.462   1.480   1.766  0.0801 -0.2770  0.1590
 5920TIP3    H139175   2.409   1.414   1.810 -0.8444 -0.7560 -1.5642
 5920TIP3    H239176   2.458   1.557   1.823 -1.1617 -0.8183  0.8339
 5921TIP3   OH239177   2.629   2.134  11.561 -0.0123 -0.1690 -0.3238
 5921TIP3    H139178   2.592   2.167  11.479  0.7104  0.3896 -0.4345
 5921TIP3    H239179   2.593   2.046  11.570 -1.4459  0.3827 -0.3860
 5922TIP3   OH239180   1.819   3.171   3.137  0.2771  0.1230 -0.3605
 5922TIP3    H139181   1.725   3.185   3.139  0.5030  1.8193  0.0462
 5922TIP3    H239182   1.850   3.198   3.224  1.3061  1.2618 -1.0327
 5923TIP3   OH239183   4.471   2.065   5.539  0.5120  0.3333  0.2255
 5923TIP3    H139184   4.415   2.042   5.465  0.8423  2.2794 -0.6771
 5923TIP3    H239185   4.526   1.988   5.552 -0.0922 -0.3371 -1.0273
 5924TIP3   OH239186   0.007   5.245  14.556 -0.0053 -0.0787  0.1361
 5924TIP3    H139187  -0.008   5.231  14.463  0.2461  0.4408  0.0150
 5924TIP3    H239188  -0.071   5.208  14.599  0.9252 -2.4417 -0.1024
 5925TIP3   OH239189   5.424   2.998   0.677 -0.6155  0.5490  0.3647
 5925TIP3    H139190   5.413   2.945   0.756 -0.4556 -0.2256 -0.1213
 5925TIP3    H239191   5.358   2.964   0.617 -0.6680  1.0695  0.1296
 5926TIP3   OH239192   1.918   2.948   2.807  0.2551  0.2857  0.3166
 5926TIP3    H139193   1.904   2.870   2.753 -0.2403  0.6173 -0.0480
 5926TIP3    H239194   1.925   2.915   2.896 -4.0463  0.0595  0.7984
 5927TIP3   OH239195   5.593   4.112   4.850 -0.1169 -0.5659  0.9653
 5927TIP3    H139196   5.587   4.207   4.851  0.4437 -0.4977 -0.1819
 5927TIP3    H239197   5.538   4.083   4.924 -0.8589  0.6022  0.8959
 5928TIP3   OH239198   0.561   3.485   5.988  0.0081 -0.3166 -0.0538
 5928TIP3    H139199   0.620   3.431   5.936  1.1162 -0.0430  0.8905
 5928TIP3    H239200   0.618   3.548   6.032 -1.2519  2.0155 -1.5198
 5929TIP3   OH239201   6.535   1.570   0.119  0.0615 -0.0475  0.3904
 5929TIP3    H139202   6.525   1.598   0.210  0.3230 -1.7259  0.9749
 5929TIP3    H239203   6.461   1.511   0.105  1.0040 -1.1907  0.1061
 5930TIP3   OH239204   4.466   6.475  12.786  0.0186  1.0931 -0.8360
 5930TIP3    H139205   4.426   6.445  12.867  0.2380  1.2684 -0.6629
 5930TIP3    H239206   4.418   6.555  12.764 -0.6709  0.5463 -1.3790
 5931TIP3   OH239207   6.396   1.592   4.179 -0.5353  0.2349  0.5694
 5931TIP3    H139208   6.367   1.515   4.132  0.9464 -0.1001  0.1375
 5931TIP3    H239209   6.432   1.558   4.261  0.4429  0.3936  0.2299
 5932TIP3   OH239210   1.043   2.627   1.633  0.6636 -0.4957  0.2433
 5932TIP3    H139211   0.971   2.592   1.580 -0.8139 -1.9546  3.0117
 5932TIP3    H239212   1.004   2.701   1.680  1.0801 -0.9977  1.4086
 5933TIP3   OH239213   0.374   0.868  12.206 -0.1028 -0.2881 -0.0720
 5933TIP3    H139214   0.433   0.870  12.131 -1.7222  0.9075 -1.4079
 5933TIP3    H239215   0.294   0.828  12.172 -0.8028  0.0784  1.0911
 5934TIP3   OH239216   2.103   0.936  12.865 -0.0458  0.2477 -0.5712
 5934TIP3    H139217   2.155   1.015  12.850 -1.2060  1.0368 -0.5585
 5934TIP3    H239218   2.168   0.867  12.880  0.9752  1.3296  0.1100
 5935TIP3   OH239219   2.116   1.836   4.381  0.4305  0.4977 -0.1067
 5935TIP3    H139220   2.075   1.914   4.344  0.1031  0.2436 -0.2886
 5935TIP3    H239221   2.160   1.795   4.307 -2.3128 -1.3720 -0.8590
 5936TIP3   OH239222   4.492   4.226  11.269 -0.1566  0.1390 -0.2263
 5936TIP3    H139223   4.511   4.206  11.361 -0.5582  2.1681  0.3516
 5936TIP3    H239224   4.485   4.321  11.266 -1.4986  0.0427 -2.1127
 5937TIP3   OH239225   5.843   5.962   4.265 -0.0306  0.2863  0.4014
 5937TIP3    H139226   5.749   5.946   4.274  0.2287 -1.2487  0.6447
 5937TIP3    H239227   5.881   5.875   4.255  1.2066  0.9834 -1.4949
 5938TIP3   OH239228   5.180   2.759   5.242  1.0585  0.6191  0.0436
 5938TIP3    H139229   5.258   2.765   5.187  2.5032 -0.2561  1.8900
 5938TIP3    H239230   5.167   2.848   5.275  0.2337  1.1326 -1.5387
 5939TIP3   OH239231   5.435   2.084   1.553  0.0318  0.0333  0.5081
 5939TIP3    H139232   5.477   2.155   1.601  0.3634 -0.8895  1.6091
 5939TIP3    H239233   5.408   2.021   1.620 -1.1643 -0.4265 -0.3597
 5940TIP3   OH239234   4.662   3.915  16.073 -0.0876  0.8283 -0.3981
 5940TIP3    H139235   4.674   3.892  16.165  2.3196  2.2399 -0.2934
 5940TIP3    H239236   4.673   3.832  16.026  4.3587  0.8243  0.2551
 5941TIP3   OH239237   3.463   5.794   1.455  0.2002 -0.1261  0.0517
 5941TIP3    H139238   3.517   5.871   1.471  0.1659  0.0112 -0.4808
 5941TIP3    H239239   3.494   5.760   1.371 -0.4985 -0.0865 -0.2228
 5942TIP3   OH239240   1.754   5.919   0.660  0.1085  0.9839 -0.3077
 5942TIP3    H139241   1.734   6.008   0.689  0.8293  1.2496 -0.6163
 5942TIP3    H239242   1.827   5.892   0.716 -0.9792  0.0552  0.7446
 5943TIP3   OH239243   2.707   3.614  14.059 -0.2248  0.4739 -0.0570
 5943TIP3    H139244   2.623   3.575  14.082 -0.9119  0.7259 -1.9703
 5943TIP3    H239245   2.701   3.629  13.965  2.7046 -1.2982 -0.6435
 5944TIP3   OH239246   4.402   2.684  15.220 -0.5049 -0.5502  0.2923
 5944TIP3    H139247   4.358   2.755  15.172  1.2872  1.0309  0.8784
 5944TIP3    H239248   4.451   2.637  15.153  1.5175  1.2910  0.3660
 5945TIP3   OH239249   4.114   5.552   1.996  0.3216  0.0828  0.0861
 5945TIP3    H139250   4.177   5.503   2.049  0.8151 -1.5109 -1.8220
 5945TIP3    H239251   4.161   5.572   1.915 -1.9643 -2.7583 -2.1925
 5946TIP3   OH239252   4.749   2.574  16.398  0.2265 -0.0210  0.1473
 5946TIP3    H139253   4.677   2.629  16.429  0.6297  0.0898  0.9125
 5946TIP3    H239254   4.726   2.553  16.308  0.0815  1.4611 -0.1971
 5947TIP3   OH239255   3.240   6.048   0.681 -0.0401  0.2680 -0.2092
 5947TIP3    H139256   3.218   5.958   0.703  2.0683 -0.2844 -0.1049
 5947TIP3    H239257   3.302   6.040   0.608  0.8188  1.5765  0.3448
 5948TIP3   OH239258   2.044   2.011   0.594  0.4202 -0.3187 -0.1335
 5948TIP3    H139259   2.061   1.955   0.517  0.3359 -1.1557  0.4391
 5948TIP3    H239260   2.066   1.955   0.669  0.7199  0.5628  0.4488
 5949TIP3   OH239261   5.245   1.917  10.734 -0.4679 -0.0797 -0.3475
 5949TIP3    H139262   5.156   1.898  10.704 -0.6470 -0.3277  0.3290
 5949TIP3    H239263   5.247   2.012  10.745 -0.4347  0.0040 -1.0110
 5950TIP3   OH239264   3.223   2.963   2.187  0.1988  0.1957  0.1761
 5950TIP3    H139265   3.216   2.876   2.147  2.2254  0.3636 -0.6827
 5950TIP3    H239266   3.161   3.016   2.137 -0.0723 -0.4469 -0.1940
 5951TIP3   OH239267   5.989   4.896  12.939  0.1961 -0.1048 -0.2663
 5951TIP3    H139268   6.011   4.964  13.003 -0.9349  0.6352 -0.6255
 5951TIP3    H239269   5.906   4.859  12.971  1.1687 -1.8941  0.3524
 5952TIP3   OH239270   4.810   6.197   4.220  0.4379 -0.2408  0.0458
 5952TIP3    H139271   4.853   6.192   4.135 -0.3006  2.6908 -0.5809
 5952TIP3    H239272   4.738   6.135   4.214 -0.2866  0.7094 -1.9258
 5953TIP3   OH239273   3.638   5.180  15.687 -0.3105  0.1926  0.0433
 5953TIP3    H139274   3.596   5.113  15.741 -1.1041 -0.0636 -0.8605
 5953TIP3    H239275   3.569   5.208  15.626 -0.2228  2.3728  0.8790
 5954TIP3   OH239276   2.130   3.867   3.280  0.1023  0.8623 -0.1123
 5954TIP3    H139277   2.122   3.847   3.187 -0.3780 -1.2151  0.3420
 5954TIP3    H239278   2.223   3.852   3.300 -0.0942 -0.1693  0.0516
 5955TIP3   OH239279   5.021   1.497  17.053  0.4945  0.7335  0.2133
 5955TIP3    H139280   5.081   1.438  17.099 -0.3599 -0.1826  0.1882
 5955TIP3    H239281   5.075   1.572  17.028  0.8843  1.6325  3.3259
 5956TIP3   OH239282   2.099   3.856   4.453 -0.3856 -0.6291 -0.4162
 5956TIP3    H139283   2.177   3.827   4.500 -0.1547  1.1585  0.3733
 5956TIP3    H239284   2.029   3.800   4.485 -0.1331  0.2126  1.7241
 5957TIP3   OH239285   4.980   5.076   5.006  0.0461 -0.1246  0.0252
 5957TIP3    H139286   5.006   5.166   5.025  2.2914 -1.1342  2.2768
 5957TIP3    H239287   4.895   5.067   5.048 -0.2124  0.9152 -0.2333
 5958TIP3   OH239288   2.627   5.400  12.415 -0.4937 -0.7878  0.4226
 5958TIP3    H139289   2.713   5.430  12.387 -1.2710 -0.4722 -1.8308
 5958TIP3    H239290   2.566   5.440  12.353 -1.9821 -3.6841 -0.1762
 5959TIP3   OH239291   5.375   4.480   1.914 -0.3549 -0.1966 -0.3553
 5959TIP3    H139292   5.359   4.388   1.932 -0.1846 -0.3191 -0.8047
 5959TIP3    H239293   5.404   4.482   1.822 -0.2621  0.2904 -0.3206
 5960TIP3   OH239294   0.407   5.612   3.381 -0.2850  0.0927 -0.3998
 5960TIP3    H139295   0.440   5.549   3.316 -0.0875  0.7285 -0.9264
 5960TIP3    H239296   0.436   5.576   3.465  0.7077 -0.0063 -0.7661
 5961TIP3   OH239297   3.490   2.520  10.455 -0.6508  0.5960 -0.2084
 5961TIP3    H139298   3.437   2.529  10.376 -1.0283 -0.5170 -0.1004
 5961TIP3    H239299   3.432   2.480  10.519  0.0491  0.1967  0.1983
 5962TIP3   OH239300   6.472   4.723  16.567  0.1262  0.4783 -0.1496
 5962TIP3    H139301   6.557   4.702  16.607  0.4600 -0.0259 -1.0749
 5962TIP3    H239302   6.485   4.809  16.528  0.3796  0.1891 -0.7168
 5963TIP3   OH239303   5.662   1.896   2.224 -0.1180 -0.4301  0.1055
 5963TIP3    H139304   5.716   1.845   2.164  0.3102  0.6596 -0.4615
 5963TIP3    H239305   5.719   1.916   2.298 -0.6452 -1.7725  0.9058
 5964TIP3   OH239306   0.417   3.329  10.927  0.1718 -0.1104  0.5329
 5964TIP3    H139307   0.500   3.366  10.955 -0.2306  0.2229  1.3294
 5964TIP3    H239308   0.361   3.406  10.911  1.4097  0.0697 -4.9520
 5965TIP3   OH239309   6.126   1.906   5.204  0.6425  0.1600  0.2781
 5965TIP3    H139310   6.067   1.974   5.170 -0.1751  0.5288  2.2889
 5965TIP3    H239311   6.072   1.828   5.210  0.8871 -0.0058  0.3371
 5966TIP3   OH239312   0.430   6.767  16.979  0.4733  0.7130  0.4183
 5966TIP3    H139313   0.400   6.681  17.010  0.4251  0.7582  0.4959
 5966TIP3    H239314   0.526   6.759  16.980  0.5735  1.4438  2.7543
 5967TIP3   OH239315   3.746   2.924   5.226 -0.0919  0.1520 -0.3162
 5967TIP3    H139316   3.795   2.843   5.210  1.5931  1.4032 -1.9260
 5967TIP3    H239317   3.660   2.909   5.189  0.2543 -0.8402 -0.7373
 5968TIP3   OH239318   2.211   5.521  12.177 -0.1668  0.5364  0.1201
 5968TIP3    H139319   2.219   5.541  12.270  1.6823 -1.3075  0.4285
 5968TIP3    H239320   2.299   5.496  12.150 -0.9195 -0.2076 -1.8253
 5969TIP3   OH239321   3.596   2.729  17.283 -0.3956 -0.1384  1.2107
 5969TIP3    H139322   3.537   2.770  17.347 -3.6950  0.7689 -2.0498
 5969TIP3    H239323   3.539   2.672  17.231  1.9961 -0.6212 -1.0761
 5970TIP3   OH239324   1.641   1.582  12.610  0.3593 -0.1234  0.3321
 5970TIP3    H139325   1.577   1.612  12.674  1.7028 -2.0940  2.7718
 5970TIP3    H239326   1.600   1.507  12.566  0.7898 -1.1384  1.6144
 5971TIP3   OH239327   5.513   0.002  11.337  0.4105 -0.1972 -0.4657
 5971TIP3    H139328   5.471   0.028  11.255  0.0306  2.4874  0.4946
 5971TIP3    H239329   5.471  -0.081  11.360  0.8532 -1.2422 -3.1585
 5972TIP3   OH239330   5.052   2.459  15.192  0.3761  0.5187  0.6580
 5972TIP3    H139331   5.079   2.393  15.256  1.9334  0.0647 -0.4125
 5972TIP3    H239332   4.968   2.428  15.159 -0.6529  0.9509  2.6917
 5973TIP3   OH239333   0.970   6.399  13.792 -0.2963  0.2094  0.6454
 5973TIP3    H139334   1.032   6.326  13.783  0.0087  0.3247  1.6721
 5973TIP3    H239335   0.943   6.395  13.884 -2.9404 -0.7389 -0.0748
 5974TIP3   OH239336   3.709   2.378   0.632 -0.2912  0.7185  0.1541
 5974TIP3    H139337   3.723   2.308   0.568 -1.9415  2.2729 -2.0648
 5974TIP3    H239338   3.723   2.336   0.717 -1.9165 -2.5000 -0.9963
 5975TIP3   OH239339   2.251   2.762  10.951 -0.2065  0.4476 -0.1079
 5975TIP3    H139340   2.309   2.832  10.922  0.4073 -1.0135 -2.6930
 5975TIP3    H239341   2.304   2.710  11.011  0.6806  0.0165 -1.2278
 5976TIP3   OH239342   1.437   0.637  13.697  0.2282  0.0281 -0.1991
 5976TIP3    H139343   1.366   0.679  13.649 -0.3251 -0.4977  0.1432
 5976TIP3    H239344   1.394   0.591  13.769  1.0118  0.5581  0.6432
 5977TIP3   OH239345   3.917   5.125  14.105  0.5089  0.5510 -0.0949
 5977TIP3    H139346   3.827   5.158  14.107  1.4479  3.4618 -0.0046
 5977TIP3    H239347   3.970   5.201  14.132  2.8609 -1.6347  2.0008
 5978TIP3   OH239348   0.015   4.677   4.234 -0.2634 -0.3223  0.4284
 5978TIP3    H139349   0.034   4.649   4.145  2.5173  1.1017  0.4787
 5978TIP3    H239350   0.099   4.670   4.280 -1.0862  1.2081  2.2936
 5979TIP3   OH239351   4.693   4.586   2.868 -0.1896  0.0200 -0.5440
 5979TIP3    H139352   4.662   4.552   2.784 -2.5703 -1.2370  0.7521
 5979TIP3    H239353   4.619   4.634   2.904 -0.3170 -1.9378  2.1045
 5980TIP3   OH239354   0.780   3.014   2.244  0.5427  0.1518  0.2823
 5980TIP3    H139355   0.860   3.001   2.295 -0.1642 -0.4209  1.2727
 5980TIP3    H239356   0.810   3.055   2.162  1.8990 -0.5292  0.4128
 5981TIP3   OH239357   3.498   2.093   3.207  0.0161 -0.1037  0.1193
 5981TIP3    H139358   3.570   2.032   3.219  0.4340  0.0125 -1.5481
 5981TIP3    H239359   3.438   2.075   3.279  1.7704 -0.0885  1.6311
 5982TIP3   OH239360   1.668   4.300  16.766 -0.9710 -0.4037 -0.2329
 5982TIP3    H139361   1.581   4.333  16.741 -0.3419  0.8189 -0.8669
 5982TIP3    H239362   1.726   4.332  16.697  0.3631  0.6975  1.3522
 5983TIP3   OH239363   1.220   1.115   3.644 -0.8634  0.0242  0.2057
 5983TIP3    H139364   1.309   1.149   3.652 -1.4110  1.0944  2.5257
 5983TIP3    H239365   1.204   1.068   3.727 -2.3195 -0.4917 -0.3277
 5984TIP3   OH239366   0.540   5.839  10.832  0.0647 -0.4367 -0.2756
 5984TIP3    H139367   0.484   5.775  10.877 -1.8998  1.2618 -0.1827
 5984TIP3    H239368   0.507   5.841  10.742  2.2247 -1.8224 -1.1938
 5985TIP3   OH239369   1.863   0.801  11.130  0.2070 -0.1753  0.7959
 5985TIP3    H139370   1.837   0.768  11.216 -0.3444 -3.3307 -0.4382
 5985TIP3    H239371   1.900   0.724  11.085 -4.3426 -0.2866 -3.6376
 5986TIP3   OH239372   5.315   1.357  14.649  0.2985 -0.0688 -0.3113
 5986TIP3    H139373   5.338   1.271  14.684 -0.0434  0.3767  1.0710
 5986TIP3    H239374   5.291   1.408  14.726 -1.3053  0.7097 -1.2824
 5987TIP3   OH239375   4.133   0.527   0.943 -0.2848  0.0599  0.1799
 5987TIP3    H139376   4.159   0.620   0.946  2.9139 -0.7173  0.3583
 5987TIP3    H239377   4.117   0.510   0.851 -2.3012  1.0721  0.2978
 5988TIP3   OH239378   1.356   4.059  16.329 -0.4973 -0.1474 -0.2091
 5988TIP3    H139379   1.343   3.977  16.281 -2.5707 -0.4017  0.6556
 5988TIP3    H239380   1.375   4.032  16.419 -2.9062  0.1966  0.4957
 5989TIP3   OH239381   6.200   4.110  10.702  0.1492 -0.3965  0.3135
 5989TIP3    H139382   6.121   4.060  10.684 -0.5878  1.5605 -2.8192
 5989TIP3    H239383   6.170   4.186  10.752  0.1565 -0.1360 -0.0642
 5990TIP3   OH239384   2.556   6.559  13.410  0.0764  0.3698 -0.4875
 5990TIP3    H139385   2.513   6.499  13.348  0.4305  1.3275 -1.7144
 5990TIP3    H239386   2.646   6.526  13.416  0.4098  1.0338 -1.5526
 5991TIP3   OH239387   1.799   0.294  14.565  0.0849  0.4218 -0.4371
 5991TIP3    H139388   1.781   0.227  14.499  0.5572 -0.3667  0.1986
 5991TIP3    H239389   1.892   0.282  14.585 -0.6821 -1.7515  2.8233
 5992TIP3   OH239390   3.389   5.467   6.061  0.5643 -0.5526  0.1849
 5992TIP3    H139391   3.357   5.496   6.147  0.5293 -0.0589  0.0088
 5992TIP3    H239392   3.310   5.450   6.010  0.5753 -1.8187  0.5607
 5993TIP3   OH239393   5.745   5.780   5.292 -0.2052  0.2969  0.1358
 5993TIP3    H139394   5.768   5.694   5.328 -1.4458  0.1059  0.5072
 5993TIP3    H239395   5.657   5.797   5.325  0.8074  2.7220  1.9584
 5994TIP3   OH239396   0.183   4.421   4.930  0.3166 -0.3313  0.1172
 5994TIP3    H139397   0.247   4.395   4.997  0.4655  0.8575  0.4585
 5994TIP3    H239398   0.168   4.514   4.946 -1.2268 -0.5048 -0.2070
 5995TIP3   OH239399   4.159   5.315  10.933  0.3636  0.5680  0.0595
 5995TIP3    H139400   4.179   5.345  10.844  4.3117  0.0071  0.5640
 5995TIP3    H239401   4.244   5.289  10.968 -1.4058 -1.5288  3.1974
 5996TIP3   OH239402   3.869   5.342   0.679  0.5976 -0.3003  0.5078
 5996TIP3    H139403   3.896   5.431   0.702  0.2362 -0.3508  1.1480
 5996TIP3    H239404   3.774   5.343   0.683  0.5936 -0.7544  0.6798
 5997TIP3   OH239405   2.017   1.106  10.483 -0.1592 -0.2276 -0.2638
 5997TIP3    H139406   2.041   1.102  10.390 -0.0961 -0.1225 -0.2523
 5997TIP3    H239407   1.961   1.183  10.490  0.7426  0.4265 -0.0147
 5998TIP3   OH239408   4.311   0.094   1.622 -0.1186  0.2425  0.1813
 5998TIP3    H139409   4.375   0.048   1.568 -0.2802  1.5260 -1.1673
 5998TIP3    H239410   4.330   0.066   1.711  2.2482  0.5023 -0.1836
 5999TIP3   OH239411   5.013   0.055  16.740 -0.4052  0.2216 -0.3289
 5999TIP3    H139412   5.060  -0.024  16.766  0.8457  0.8358 -0.6302
 5999TIP3    H239413   5.011   0.109  16.819  0.2089  0.5759 -0.5508
 6000TIP3   OH239414   1.262   6.164   1.815  0.2720 -0.2709  0.5671
 6000TIP3    H139415   1.218   6.239   1.855  1.1259  0.5289  0.0430
 6000TIP3    H239416   1.322   6.133   1.882  0.5962  0.1119  0.4585
 6001TIP3   OH239417   4.799   1.487  16.634 -0.3383 -0.2795 -0.4609
 6001TIP3    H139418   4.716   1.535  16.635 -0.0918  0.3925 -3.3165
 6001TIP3    H239419   4.780   1.406  16.586  0.5861 -0.2325 -0.9372
 6002TIP3   OH239420   1.452   4.755   3.271 -0.2429  0.0161 -0.1464
 6002TIP3    H139421   1.495   4.712   3.345  0.7371  0.7086 -0.2922
 6002TIP3    H239422   1.371   4.791   3.308  0.5102  0.8444  0.7302
 6003TIP3   OH239423   5.510   5.172   2.014 -0.0595  0.2937 -0.4212
 6003TIP3    H139424   5.455   5.099   2.043  0.1151  0.3566  0.0711
 6003TIP3    H239425   5.562   5.135   1.942 -0.0050 -0.0550 -0.2056
 6004TIP3   OH239426   3.648   6.031   1.609 -0.3271 -0.0281 -0.4351
 6004TIP3    H139427   3.681   6.102   1.553  0.6213  0.5613  0.8277
 6004TIP3    H239428   3.569   6.067   1.649  0.4782  0.5636  0.6628
 6005TIP3   OH239429   1.636   1.129  17.075 -0.0047 -0.1449  0.1069
 6005TIP3    H139430   1.654   1.117  17.169  0.4435 -0.6735 -0.0408
 6005TIP3    H239431   1.703   1.190  17.045  0.1119 -0.3073  0.0398
 6006TIP3   OH239432   5.866   5.717  10.387 -0.3842  0.2779 -0.2314
 6006TIP3    H139433   5.918   5.636  10.394  0.7095  1.0665  1.7587
 6006TIP3    H239434   5.808   5.713  10.463  0.1936  1.6649  0.3090
 6007TIP3   OH239435   6.689   1.573  16.764  0.1167 -0.0058 -0.1114
 6007TIP3    H139436   6.716   1.644  16.707 -0.6369  0.2271 -0.1886
 6007TIP3    H239437   6.596   1.590  16.782 -0.4533 -1.6645 -1.1963
 6008TIP3   OH239438   5.056   0.014  13.982 -0.1651 -0.2723  0.5627
 6008TIP3    H139439   5.141   0.046  14.010  0.2667  0.7713 -1.7062
 6008TIP3    H239440   4.999   0.091  13.984 -0.3480 -0.3662 -0.4184
 6009TIP3   OH239441   3.224   1.909  17.011 -0.1807  0.3806 -0.0997
 6009TIP3    H139442   3.281   1.836  17.035  0.4459  0.8865 -0.0273
 6009TIP3    H239443   3.274   1.987  17.034  0.3756  0.9250 -2.8152
 6010TIP3   OH239444   0.206   4.588   3.730 -0.1598  0.6256 -0.1727
 6010TIP3    H139445   0.110   4.591   3.736 -0.0506  4.1362  3.1386
 6010TIP3    H239446   0.226   4.635   3.649 -1.2373  2.3800  0.5410
 6011TIP3   OH239447   3.335   1.263   3.446 -0.1647 -0.3174  0.3715
 6011TIP3    H139448   3.279   1.190   3.472 -1.3804 -0.2435 -1.8015
 6011TIP3    H239449   3.411   1.222   3.405 -0.8023 -0.3886 -0.7618
 6012TIP3   OH239450   4.046   2.910   0.978 -0.1512 -0.0764  0.2158
 6012TIP3    H139451   3.970   2.851   0.979  0.8404 -1.4839 -1.3261
 6012TIP3    H239452   4.015   2.988   0.933 -0.8449 -0.4083  0.1031
 6013TIP3   OH239453   3.228   5.806   3.086  0.5143 -0.3686  0.1163
 6013TIP3    H139454   3.183   5.813   3.002  0.4890 -0.1139  0.1504
 6013TIP3    H239455   3.160   5.785   3.149  0.0816  2.0080  0.5186
 6014TIP3   OH239456   5.257   5.735  15.225  0.2623 -0.1514 -0.0171
 6014TIP3    H139457   5.347   5.735  15.257  0.4708  0.7721 -0.5617
 6014TIP3    H239458   5.216   5.808  15.270  0.3370  0.6587 -1.2104
 6015TIP3   OH239459   0.189   2.289   5.239  0.0798 -0.4411 -0.1004
 6015TIP3    H139460   0.206   2.266   5.148 -0.9314 -1.8189  0.0292
 6015TIP3    H239461   0.130   2.221   5.270 -0.7714  0.8219  1.1699
 6016TIP3   OH239462   5.275   4.683   5.391  0.0669 -0.3187  0.0404
 6016TIP3    H139463   5.275   4.617   5.460 -2.0054 -0.1178  0.2976
 6016TIP3    H239464   5.277   4.766   5.438 -0.4260 -0.1876 -0.1706
 6017TIP3   OH239465   5.207   1.761   0.508 -0.2712 -0.3783 -0.4124
 6017TIP3    H139466   5.248   1.844   0.532  0.4995 -0.6274 -0.8296
 6017TIP3    H239467   5.205   1.711   0.590 -1.3056  0.2752 -0.0230
 6018TIP3   OH239468   0.467   6.118  16.428 -0.1753 -0.0711  0.0858
 6018TIP3    H139469   0.415   6.196  16.410  0.3911  0.0061 -1.3654
 6018TIP3    H239470   0.456   6.103  16.522 -2.3711  0.2536 -0.0550
 6019TIP3   OH239471   6.193   2.667  16.450 -0.3493  0.1922 -0.1084
 6019TIP3    H139472   6.255   2.662  16.522  0.5577  0.2363 -0.8734
 6019TIP3    H239473   6.244   2.699  16.376 -0.0589 -4.1097 -2.0792
 6020TIP3   OH239474   3.407   1.601  12.727 -0.4574 -0.4141  0.0563
 6020TIP3    H139475   3.459   1.521  12.736 -2.5943 -1.8354  0.6154
 6020TIP3    H239476   3.460   1.669  12.769  0.4897 -1.9956  1.5597
 6021TIP3   OH239477   4.780   2.132  11.058  0.2170 -0.5278 -0.3764
 6021TIP3    H139478   4.791   2.193  11.131 -0.2540 -1.2075  0.2814
 6021TIP3    H239479   4.748   2.186  10.986  2.0497  0.4194 -0.5394
 6022TIP3   OH239480   2.707   6.596   2.456 -0.0610  0.1795 -0.3167
 6022TIP3    H139481   2.624   6.596   2.408 -0.4961  0.9658  0.3870
 6022TIP3    H239482   2.745   6.510   2.438 -1.0051 -0.1811 -0.7038
 6023TIP3   OH239483   5.571   4.795   5.280  0.1910  0.9336  0.1298
 6023TIP3    H139484   5.483   4.774   5.311  0.8122 -2.0880  0.1036
 6023TIP3    H239485   5.619   4.823   5.358 -0.0079 -0.2868  0.6988
 6024TIP3   OH239486   4.055   4.756   0.459 -0.6200  0.0406  0.0524
 6024TIP3    H139487   4.110   4.720   0.389  0.4050  1.7207 -0.0686
 6024TIP3    H239488   4.009   4.829   0.418  0.9179  1.8449  1.3632
 6025TIP3   OH239489   3.828   5.610   0.628  0.4753  0.4102  0.4952
 6025TIP3    H139490   3.825   5.561   0.546 -0.1482 -1.1851  1.4312
 6025TIP3    H239491   3.737   5.628   0.650  0.4986 -0.7083  1.6796
 6026TIP3   OH239492   2.034   6.733  11.604  0.1662  0.0307 -0.3369
 6026TIP3    H139493   2.022   6.827  11.594 -0.3822 -0.1172 -1.2396
 6026TIP3    H239494   2.065   6.703  11.518 -2.7176 -1.0353 -1.1477
 6027TIP3   OH239495   6.743   5.713   1.084  0.4373 -0.5584  1.1194
 6027TIP3    H139496   6.792   5.667   1.152 -0.3798 -0.1545  2.0026
 6027TIP3    H239497   6.654   5.679   1.092  0.8168 -2.5230 -1.5417
 6028TIP3   OH239498   6.222   5.698   5.232  0.0452  0.1013  0.3225
 6028TIP3    H139499   6.138   5.652   5.231  0.2011 -0.1986  0.8631
 6028TIP3    H239500   6.213   5.763   5.301 -0.1252  0.7994 -0.3501
 6029TIP3   OH239501   2.148   0.931  11.185 -0.4635  0.5205  0.6668
 6029TIP3    H139502   2.142   0.978  11.101 -1.4375  0.4548  0.6834
 6029TIP3    H239503   2.081   0.863  11.178  1.0533 -1.0235  0.5597
 6030TIP3   OH239504   2.190   4.604   0.107  0.6749 -0.3131  0.4089
 6030TIP3    H139505   2.234   4.526   0.140  0.9641  0.1138  1.0655
 6030TIP3    H239506   2.226   4.676   0.159 -0.3229  0.1335  0.5089
 6031TIP3   OH239507   5.228   3.264   1.033  0.1847  0.0188  0.6060
 6031TIP3    H139508   5.144   3.248   0.990  0.8367  2.0073 -1.6302
 6031TIP3    H239509   5.281   3.187   1.015 -0.1891  0.0348 -0.5898
 6032TIP3   OH239510   3.568   0.594  17.335 -0.0719 -0.1023 -0.1859
 6032TIP3    H139511   3.559   0.647  17.256  2.2102  1.0113  0.2018
 6032TIP3    H239512   3.652   0.621  17.372 -0.1289 -2.0486  1.5470
 6033TIP3   OH239513   6.286   6.546  14.208 -0.0614 -0.4137 -0.1630
 6033TIP3    H139514   6.269   6.587  14.123 -0.5693  1.2476  0.7019
 6033TIP3    H239515   6.200   6.534  14.247  0.2161 -0.3005  0.5000
 6034TIP3   OH239516   0.499   3.111   4.139  0.1658 -0.1316 -0.2955
 6034TIP3    H139517   0.520   3.052   4.212 -0.3754 -0.0122 -0.0297
 6034TIP3    H239518   0.508   3.199   4.176  1.3846 -0.0346 -0.8123
 6035TIP3   OH239519   4.220   5.031  10.811  0.0927 -0.6945  0.2497
 6035TIP3    H139520   4.284   5.099  10.828 -0.6283 -0.1463  0.8304
 6035TIP3    H239521   4.238   5.002  10.722  0.0034  0.7111 -0.2404
 6036TIP3   OH239522   4.078   6.393  12.534 -0.6946  0.2245  0.3388
 6036TIP3    H139523   4.097   6.412  12.626 -1.2776 -0.8317  0.6912
 6036TIP3    H239524   4.138   6.449  12.486 -0.0638  0.4714  1.3710
 6037TIP3   OH239525   0.304   0.434  15.107 -0.1342  0.3536  0.5388
 6037TIP3    H139526   0.335   0.454  15.019  1.9700  2.5746  1.6523
 6037TIP3    H239527   0.367   0.371  15.141 -0.1069  0.5868  0.9269
 6038TIP3   OH239528   4.440   4.645  12.438 -0.2215 -0.4465 -0.0047
 6038TIP3    H139529   4.379   4.601  12.379  0.9508 -0.0993 -1.5438
 6038TIP3    H239530   4.384   4.691  12.501 -1.5035 -1.2557 -0.5147
 6039TIP3   OH239531   3.280   4.431  14.431  0.4421 -0.0970 -0.2230
 6039TIP3    H139532   3.295   4.378  14.353 -0.3013 -1.3877  0.4817
 6039TIP3    H239533   3.262   4.368  14.500  1.3194  1.0052  1.0723
 6040TIP3   OH239534   2.789   5.772   1.262 -0.1794  0.5429  0.4657
 6040TIP3    H139535   2.885   5.768   1.270 -0.1357  0.7000  0.0666
 6040TIP3    H239536   2.767   5.697   1.206 -0.4944 -0.6570  2.1331
 6041TIP3   OH239537   2.519   1.887  14.008 -1.0746 -0.3121 -0.1674
 6041TIP3    H139538   2.588   1.924  13.953 -2.1565 -0.8926 -2.0284
 6041TIP3    H239539   2.466   1.962  14.034 -0.6305 -0.0464 -0.0152
 6042TIP3   OH239540   4.558   0.342   5.605 -0.0640  0.6443  0.3301
 6042TIP3    H139541   4.505   0.315   5.680  0.8908  0.5607  0.9907
 6042TIP3    H239542   4.628   0.277   5.601  0.3865  1.1547 -0.0898
 6043TIP3   OH239543   6.757   3.626  14.826 -0.1473  0.3689  0.1524
 6043TIP3    H139544   6.853   3.618  14.828 -0.0452  1.3754 -0.3026
 6043TIP3    H239545   6.726   3.536  14.830  0.7959  0.0692  1.5186
 6044TIP3   OH239546   6.358   5.669  14.646 -0.1488  0.6874  0.9304
 6044TIP3    H139547   6.270   5.687  14.613 -0.5527 -1.8611  0.3836
 6044TIP3    H239548   6.413   5.665  14.567  0.2647  1.2776  1.1830
 6045TIP3   OH239549   1.187   6.436   1.103 -0.4959 -0.3989 -0.2190
 6045TIP3    H139550   1.275   6.468   1.119 -0.5435 -0.5401  0.3297
 6045TIP3    H239551   1.170   6.374   1.173 -1.7388  1.0349  0.8279
 6046TIP3   OH239552   5.432   4.175  13.679 -0.3900 -0.0031 -0.1159
 6046TIP3    H139553   5.358   4.231  13.700  1.1782  1.6390  1.4429
 6046TIP3    H239554   5.509   4.230  13.697  1.2502 -2.5767  1.3593
 6047TIP3   OH239555   1.363   6.741  12.853  0.1546  0.3264 -0.1454
 6047TIP3    H139556   1.419   6.783  12.788 -2.4551 -0.0855 -2.9015
 6047TIP3    H239557   1.369   6.647  12.834 -2.1087  0.3389 -1.1738
 6048TIP3   OH239558   5.734   6.326   1.014 -0.0002  0.0715  0.0781
 6048TIP3    H139559   5.676   6.270   1.065  2.5541 -0.8258  2.1865
 6048TIP3    H239560   5.805   6.269   0.985 -0.0690  1.1205 -2.4416
 6049TIP3   OH239561   3.865   0.446  16.900 -0.1757 -0.4111 -0.0174
 6049TIP3    H139562   3.904   0.361  16.924  0.6610  0.1761  0.7718
 6049TIP3    H239563   3.829   0.479  16.982 -0.0797  0.2125 -0.2268
 6050TIP3   OH239564   4.495   2.812  14.142  0.8448 -0.7282 -0.0501
 6050TIP3    H139565   4.501   2.726  14.100 -1.8214 -1.2080  0.3811
 6050TIP3    H239566   4.450   2.866  14.077  2.6819  0.4908 -0.4057
 6051TIP3   OH239567   1.355   2.012   3.624 -0.2660  0.6436  0.0073
 6051TIP3    H139568   1.396   1.941   3.674 -3.8293 -1.5343  0.1998
 6051TIP3    H239569   1.377   1.993   3.533  1.2727  1.1357  0.2367
 6052TIP3   OH239570   1.367   2.397  16.900 -0.1831  0.9096 -0.0731
 6052TIP3    H139571   1.383   2.330  16.966 -0.1926  0.1834 -0.7861
 6052TIP3    H239572   1.279   2.428  16.917 -0.4081  0.3002 -0.1043
 6053TIP3   OH239573   3.952   0.963  13.190  0.3384 -0.5179  0.0208
 6053TIP3    H139574   4.011   0.929  13.123 -0.5303 -0.8241 -0.6124
 6053TIP3    H239575   4.001   0.956  13.272  2.0634  1.3764 -0.7590
 6054TIP3   OH239576   3.000   2.450  12.765  0.1798  0.7468  0.0022
 6054TIP3    H139577   2.998   2.524  12.826 -0.5389  0.7039  0.0286
 6054TIP3    H239578   3.057   2.480  12.694  1.1720  0.7299  0.7682
 6055TIP3   OH239579   3.861   2.665   1.078  0.5770 -0.1728 -0.3107
 6055TIP3    H139580   3.907   2.591   1.119  0.7172 -0.1861 -0.4892
 6055TIP3    H239581   3.824   2.714   1.152 -0.8502 -1.2798 -0.2709
 6056TIP3   OH239582   4.028   0.159   3.054 -0.7477  0.4327 -0.0244
 6056TIP3    H139583   4.092   0.175   3.124 -0.6905  1.4047 -0.2808
 6056TIP3    H239584   4.004   0.068   3.064 -0.3597  0.4268  0.9565
 6057TIP3   OH239585   6.329   0.029  10.426 -0.3470  0.6543 -0.3281
 6057TIP3    H139586   6.329  -0.057  10.470  1.1001  1.4675  1.4091
 6057TIP3    H239587   6.299   0.090  10.493 -1.2219  1.5583 -1.5045
 6058TIP3   OH239588   1.636   2.213   2.022  0.0146  0.5642  0.2059
 6058TIP3    H139589   1.729   2.192   2.028 -0.0577  0.0301 -0.3806
 6058TIP3    H239590   1.612   2.191   1.932 -0.6392  0.8739  0.2940
 6059TIP3   OH239591   3.438   5.922   6.123 -0.0110 -0.3518 -0.8835
 6059TIP3    H139592   3.363   5.865   6.142  1.4503 -1.3034  3.0363
 6059TIP3    H239593   3.512   5.862   6.114  1.0572  0.7153  0.3418
 6060TIP3   OH239594   0.377   6.594   4.843 -0.2369 -0.0648 -0.1240
 6060TIP3    H139595   0.282   6.604   4.841 -0.5579 -1.8196  1.8871
 6060TIP3    H239596   0.397   6.538   4.767 -0.8986 -0.1748 -0.2249
 6061TIP3   OH239597   6.103   3.044   3.653 -0.3129  0.6206 -0.0462
 6061TIP3    H139598   6.109   2.951   3.634 -1.4588  0.6261 -0.5239
 6061TIP3    H239599   6.185   3.081   3.621 -0.6452  0.0556 -1.6551
 6062TIP3   OH239600   0.533   6.716   2.444  0.3828  0.1057  0.4906
 6062TIP3    H139601   0.501   6.684   2.359  0.0219  0.7940  0.3633
 6062TIP3    H239602   0.501   6.806   2.450  0.8413  0.2345  1.1338
 6063TIP3   OH239603   3.842   5.619  15.447 -0.0596  0.2688 -0.2987
 6063TIP3    H139604   3.835   5.548  15.511 -0.3606 -1.6418 -2.3360
 6063TIP3    H239605   3.917   5.671  15.476 -0.0650 -0.6449  1.4697
 6064TIP3   OH239606   5.097   5.392  12.931 -0.1456 -0.1491 -0.3584
 6064TIP3    H139607   5.184   5.407  12.969 -0.4111  0.5157 -0.0085
 6064TIP3    H239608   5.114   5.361  12.843  0.4337  1.3385 -0.7907
 6065TIP3   OH239609   5.305   2.416  11.784  0.0041  0.0289 -0.1470
 6065TIP3    H139610   5.245   2.422  11.858 -0.1194  0.3167 -0.2734
 6065TIP3    H239611   5.304   2.323  11.761 -1.0622  0.1749 -0.7097
 6066TIP3   OH239612   0.845   6.520  12.000  0.4969  0.1198  0.0432
 6066TIP3    H139613   0.796   6.601  12.009 -0.2299 -0.1027 -1.4462
 6066TIP3    H239614   0.784   6.460  11.955  1.3668 -0.8965  0.1674
 6067TIP3   OH239615   3.354   1.668  14.397  0.0233  1.0682  0.0757
 6067TIP3    H139616   3.263   1.671  14.426 -0.0129  0.5954  0.0206
 6067TIP3    H239617   3.373   1.575  14.385 -0.1837  1.2448 -2.1244
 6068TIP3   OH239618   4.383   3.854   6.308 -0.2143 -0.0475 -0.3143
 6068TIP3    H139619   4.448   3.874   6.241 -1.2732  1.3718 -0.9675
 6068TIP3    H239620   4.399   3.917   6.377 -1.1238  0.5758 -0.6546
 6069TIP3   OH239621   3.725   5.584  13.528  0.2750 -0.0750 -0.3392
 6069TIP3    H139622   3.648   5.580  13.585 -0.1833  0.7276 -0.8828
 6069TIP3    H239623   3.799   5.583  13.588 -0.2129  2.3419  0.3949
 6070TIP3   OH239624   6.723   1.688   3.258  0.2259  0.2756  0.1281
 6070TIP3    H139625   6.779   1.621   3.219  0.2453  0.2064  0.2766
 6070TIP3    H239626   6.652   1.638   3.300 -1.2695  0.3988 -2.0739
 6071TIP3   OH239627   5.410   4.010   0.336  0.2863  0.0458  0.3361
 6071TIP3    H139628   5.450   3.923   0.330 -1.1310 -0.7669  1.6579
 6071TIP3    H239629   5.316   3.994   0.324  0.0435  1.4746  0.1405
 6072TIP3   OH239630   1.370   1.762   4.824 -0.3336 -0.3013  0.0066
 6072TIP3    H139631   1.447   1.818   4.814  0.5637 -1.8299 -3.4948
 6072TIP3    H239632   1.301   1.819   4.857  1.4966  1.8541  0.2935
 6073TIP3   OH239633   5.137   6.542   4.008 -0.1008  0.3720 -0.3242
 6073TIP3    H139634   5.168   6.516   3.921 -0.9771 -3.6778  0.3590
 6073TIP3    H239635   5.042   6.536   4.002 -0.1284 -2.0652  1.3534
 6074TIP3   OH239636   5.664   3.594  16.145 -0.7260 -0.1746  0.3384
 6074TIP3    H139637   5.665   3.547  16.229 -1.0358  0.8440  0.9251
 6074TIP3    H239638   5.606   3.542  16.089 -0.4680 -0.8967  0.7309
 6075TIP3   OH239639   3.491   6.558   5.003 -0.2126  0.0518 -0.1660
 6075TIP3    H139640   3.401   6.581   4.978 -0.2285  2.4370  1.6917
 6075TIP3    H239641   3.546   6.618   4.953  0.3628 -1.1706 -1.0394
 6076TIP3   OH239642   4.377   4.543  11.766  0.1235 -0.0391  0.0634
 6076TIP3    H139643   4.344   4.565  11.679  1.3238 -1.1617 -0.7158
 6076TIP3    H239644   4.298   4.531  11.820 -0.7115 -0.9860 -1.3046
 6077TIP3   OH239645   0.449   5.894  12.575  0.6963  0.3472 -0.1634
 6077TIP3    H139646   0.470   5.987  12.566 -2.0498  0.9317 -1.4469
 6077TIP3    H239647   0.380   5.891  12.641  0.7382 -0.7754 -0.1551
 6078TIP3   OH239648   3.240   5.073  13.597 -0.2128  0.1961 -0.2922
 6078TIP3    H139649   3.233   5.004  13.663  1.9548 -2.0161 -2.0962
 6078TIP3    H239650   3.195   5.037  13.520  1.7785  0.2618 -1.5765
 6079TIP3   OH239651   3.104   3.472   0.090  0.3603  0.1808  0.1438
 6079TIP3    H139652   3.063   3.433   0.167 -0.1438 -0.2951 -0.3583
 6079TIP3    H239653   3.175   3.412   0.067  0.1386  0.0115 -0.1073
 6080TIP3   OH239654   1.765   3.469  15.491  0.3397  0.5562 -0.2132
 6080TIP3    H139655   1.699   3.537  15.501 -0.9726 -0.7765  0.6332
 6080TIP3    H239656   1.784   3.440  15.580 -0.9259 -1.7916 -0.6152
 6081TIP3   OH239657   2.133   2.154   3.290 -0.6315 -0.1440  0.2081
 6081TIP3    H139658   2.158   2.240   3.325 -0.5408  1.0377 -2.5047
 6081TIP3    H239659   2.049   2.135   3.331 -0.4091  1.0100  1.2514
 6082TIP3   OH239660   2.095   0.154   5.105  0.1499  0.5148  1.1176
 6082TIP3    H139661   2.093   0.059   5.117 -1.0055  0.1325 -1.4477
 6082TIP3    H239662   2.165   0.169   5.042 -1.4731  0.9532 -0.7078
 6083TIP3   OH239663   4.498   2.130   1.659  0.3523  0.1292 -1.2225
 6083TIP3    H139664   4.404   2.115   1.651  0.1132  0.4680  0.5501
 6083TIP3    H239665   4.513   2.214   1.616 -0.9258  2.1558  1.9317
 6084TIP3   OH239666   5.243   3.348  12.263 -0.0861 -0.0187  0.8027
 6084TIP3    H139667   5.259   3.285  12.334 -1.5369 -1.0902  0.2135
 6084TIP3    H239668   5.330   3.382  12.242  0.5460 -0.7148  2.1425
 6085TIP3   OH239669   6.756   6.077   5.257 -0.2264 -0.7235 -0.0223
 6085TIP3    H139670   6.811   6.071   5.179 -0.4131 -0.7474 -0.1521
 6085TIP3    H239671   6.752   5.988   5.291  0.3157 -0.6134  0.3332
 6086TIP3   OH239672   6.651   0.638  10.475 -0.2918  0.1048 -0.2575
 6086TIP3    H139673   6.631   0.665  10.565  0.4299  0.0224 -0.0692
 6086TIP3    H239674   6.733   0.683  10.455 -0.4494  0.1167 -0.8749
 6087TIP3   OH239675   3.517   2.761   3.367  1.0267  0.5940  0.2130
 6087TIP3    H139676   3.523   2.733   3.459  1.3592  2.4910  0.8125
 6087TIP3    H239677   3.535   2.855   3.370 -0.2828  0.9468 -1.6460
 6088TIP3   OH239678   5.853   0.907   1.703  0.1106  0.0678 -0.2152
 6088TIP3    H139679   5.903   0.971   1.754  0.7637  0.3033 -1.1186
 6088TIP3    H239680   5.920   0.850   1.665 -0.1891  0.9952 -2.2721
 6089TIP3   OH239681   5.136   4.995  14.123 -0.6092  0.2515 -0.0766
 6089TIP3    H139682   5.213   5.043  14.154 -0.3205  0.8180 -1.6012
 6089TIP3    H239683   5.081   5.061  14.082 -0.7825 -0.5226 -1.1204
 6090TIP3   OH239684   3.705   3.053   1.489 -0.1663  0.0630 -0.6504
 6090TIP3    H139685   3.795   3.032   1.465 -0.7203 -0.9294 -1.9589
 6090TIP3    H239686   3.691   3.141   1.454  0.9110  1.1118  1.3809
 6091TIP3   OH239687   2.335   1.373   5.238 -0.7211  0.2959  0.2801
 6091TIP3    H139688   2.300   1.300   5.289 -0.2014  0.3639  0.7525
 6091TIP3    H239689   2.266   1.395   5.176 -0.6881 -0.9303 -0.2171
 6092TIP3   OH239690   0.388   1.528   2.864  0.0030 -0.1271 -0.3215
 6092TIP3    H139691   0.297   1.523   2.835 -0.1549  1.6305 -0.2286
 6092TIP3    H239692   0.431   1.583   2.799  0.5122  0.7681  0.7440
 6093TIP3   OH239693   4.777   4.047   1.659  0.1921 -0.4037 -0.3713
 6093TIP3    H139694   4.707   4.055   1.594 -0.5854  1.5554  0.6363
 6093TIP3    H239695   4.748   4.100   1.732  2.3952 -0.1871  0.4088
 6094TIP3   OH239696   0.730   3.324  14.274 -0.0835  0.2949  0.2757
 6094TIP3    H139697   0.761   3.396  14.328  0.9057  0.0424  0.0511
 6094TIP3    H239698   0.700   3.258  14.336  0.5789  0.2149  0.5167
 6095TIP3   OH239699   1.643   0.310   0.463 -0.2035  0.0528 -0.3882
 6095TIP3    H139700   1.624   0.220   0.438  1.1976 -0.1780 -0.6949
 6095TIP3    H239701   1.594   0.323   0.544  0.3511 -1.3133  0.2050
 6096TIP3   OH239702   4.617   6.026   4.131  0.4686  0.2226 -0.6081
 6096TIP3    H139703   4.645   5.936   4.142 -0.2729  0.1411  0.8832
 6096TIP3    H239704   4.566   6.026   4.050  0.8638 -0.5855 -0.8658
 6097TIP3   OH239705   1.132   0.216   2.141  0.5211 -0.0158 -0.0148
 6097TIP3    H139706   1.116   0.127   2.173  2.0344 -0.2780  0.0798
 6097TIP3    H239707   1.060   0.232   2.080  0.2814 -1.3544 -0.1278
 6098TIP3   OH239708   4.820   1.823  15.975  0.8725  0.7102 -0.3835
 6098TIP3    H139709   4.724   1.819  15.972  0.7440  1.2136  1.5155
 6098TIP3    H239710   4.847   1.734  15.999  0.8988  0.5084 -1.1564
 6099TIP3   OH239711   0.902   2.276   4.148 -0.6221  0.3998 -0.1947
 6099TIP3    H139712   0.901   2.341   4.077 -0.7153  0.4094 -0.1844
 6099TIP3    H239713   0.829   2.217   4.128  0.4321 -0.6568 -1.0944
 6100TIP3   OH239714   3.434   1.142   2.108  0.0219  0.0931  0.3091
 6100TIP3    H139715   3.419   1.202   2.182 -0.0502 -0.3827  0.6859
 6100TIP3    H239716   3.423   1.197   2.030  1.2034  0.8588  0.6625
 6101TIP3   OH239717   5.174   6.324   2.946  0.3622  0.5586  0.0766
 6101TIP3    H139718   5.163   6.417   2.966 -2.6465  0.2141  0.4718
 6101TIP3    H239719   5.172   6.281   3.031 -0.0178  0.0227 -0.1955
 6102TIP3   OH239720   2.213   2.523   1.253  0.0085  0.1405 -0.1094
 6102TIP3    H139721   2.244   2.446   1.206 -0.9900  0.1938 -0.8948
 6102TIP3    H239722   2.198   2.493   1.343  0.2229 -0.4132 -0.2562
 6103TIP3   OH239723   2.712   5.168  17.149 -0.0916 -0.3806 -0.2545
 6103TIP3    H139724   2.646   5.100  17.166 -0.2901  0.1844  1.4001
 6103TIP3    H239725   2.761   5.175  17.231  0.3554  1.0231 -0.6181
 6104TIP3   OH239726   6.313   5.664  17.047 -0.1986 -0.3521 -0.2395
 6104TIP3    H139727   6.263   5.720  17.106  1.5231  0.0880  0.8948
 6104TIP3    H239728   6.330   5.585  17.098 -0.3144 -0.7861 -0.8598
 6105TIP3   OH239729   3.438   4.020   4.323  0.3147 -0.0116 -0.4917
 6105TIP3    H139730   3.409   3.969   4.399  0.5820  0.3963 -0.1140
 6105TIP3    H239731   3.396   4.105   4.333  0.6632  0.1737 -0.5965
 6106TIP3   OH239732   0.359   2.972  15.521  0.3831  0.3744  0.7644
 6106TIP3    H139733   0.323   2.884  15.533  0.2321  0.2631 -0.3696
 6106TIP3    H239734   0.301   3.029  15.570 -1.0166  0.1250 -0.5310
 6107TIP3   OH239735   0.869   1.672  14.199  0.1945 -0.8634  0.0382
 6107TIP3    H139736   0.930   1.745  14.197 -0.2152 -0.5242 -0.3194
 6107TIP3    H239737   0.889   1.622  14.119 -0.2343 -0.5468 -0.2736
 6108TIP3   OH239738   0.107   3.362   1.832  0.1873  0.0493 -0.4777
 6108TIP3    H139739   0.106   3.269   1.856 -0.2170  0.1962  0.0892
 6108TIP3    H239740   0.163   3.365   1.754  0.0396 -0.6949 -0.6256
 6109TIP3   OH239741   5.348   5.894  14.800 -0.1863 -0.5361  0.4865
 6109TIP3    H139742   5.293   5.836  14.853  2.1664 -1.8108  1.7114
 6109TIP3    H239743   5.399   5.943  14.864  1.2628 -0.6070 -0.5786
 6110TIP3   OH239744   5.110   6.024  12.264  0.3590 -0.2695  0.8596
 6110TIP3    H139745   5.021   6.038  12.296 -0.2620  0.0034 -0.8729
 6110TIP3    H239746   5.104   5.944  12.211  1.3350 -0.6951  1.3495
 6111TIP3   OH239747   2.562   5.463   6.337 -0.1392  0.0236 -0.4970
 6111TIP3    H139748   2.612   5.381   6.342 -0.1058  0.0275 -0.7523
 6111TIP3    H239749   2.628   5.529   6.317 -0.0483  0.2338  0.4228
 6112TIP3   OH239750   3.656   3.118  13.950 -0.1103 -0.2061  0.2345
 6112TIP3    H139751   3.569   3.102  13.987 -0.2178 -2.2297 -0.8036
 6112TIP3    H239752   3.681   3.203  13.987 -3.2981  1.4135 -0.8811
 6113TIP3   OH239753   3.843   3.004   0.042  0.5763  0.3810  0.4024
 6113TIP3    H139754   3.846   3.072  -0.025  1.8747 -0.4092 -0.3903
 6113TIP3    H239755   3.914   2.945   0.019  0.7943 -0.1393  2.2681
 6114TIP3   OH239756   4.189   5.950   0.878  0.2378 -0.2859  0.1973
 6114TIP3    H139757   4.154   5.865   0.850  0.5782 -0.1031 -0.8202
 6114TIP3    H239758   4.284   5.937   0.882  0.5479  0.6546 -2.3109
 6115TIP3   OH239759   5.868   1.157  13.974  0.2498 -0.6825  0.2243
 6115TIP3    H139760   5.823   1.089  14.023  1.9759 -1.7057  0.4687
 6115TIP3    H239761   5.953   1.119  13.953  0.5362  0.6902 -1.3273
 6116TIP3   OH239762   5.812   6.047  12.198  0.8126 -0.3448  0.2036
 6116TIP3    H139763   5.765   6.012  12.274  0.9250  0.5879  0.7179
 6116TIP3    H239764   5.746   6.054  12.130  0.8257 -1.7138  0.0241
 6117TIP3   OH239765   3.033   5.458   1.312  0.6503  0.3999  0.0298
 6117TIP3    H139766   2.963   5.402   1.345 -0.8024  0.7084 -2.3075
 6117TIP3    H239767   3.023   5.540   1.360 -0.2906  0.2595  0.0975
 6118TIP3   OH239768   4.694   1.788  14.598 -0.5091 -0.3755 -0.1928
 6118TIP3    H139769   4.712   1.724  14.667 -0.7571 -1.6503 -1.2756
 6118TIP3    H239770   4.779   1.826  14.577 -0.5200  0.4952  1.2290
 6119TIP3   OH239771   4.003   2.824   2.968 -0.1226  0.0082  0.0635
 6119TIP3    H139772   3.987   2.901   2.913 -2.2036 -1.8682 -2.1731
 6119TIP3    H239773   3.955   2.842   3.049 -2.1831  0.3615 -1.1571
 6120TIP3   OH239774   4.895   5.580  14.408  0.7094 -0.1631 -0.0406
 6120TIP3    H139775   4.901   5.674  14.424 -1.2403 -0.0489  0.3136
 6120TIP3    H239776   4.916   5.540  14.493  0.2642  0.0345  0.1720
 6121TIP3   OH239777   3.876   1.591  11.931  0.2910 -0.2848 -0.0217
 6121TIP3    H139778   3.923   1.546  11.861 -0.4639 -1.1738  0.0216
 6121TIP3    H239779   3.902   1.683  11.922  0.8597 -0.5220 -0.9310
 6122TIP3   OH239780   5.943   1.145  13.569 -0.2080  0.9546  0.7790
 6122TIP3    H139781   5.902   1.200  13.502 -1.3679 -1.0864 -0.2586
 6122TIP3    H239782   6.032   1.131  13.537 -0.5933  0.4326 -0.0888
 6123TIP3   OH239783   3.647   5.232   0.094 -0.1653  0.2701  0.1699
 6123TIP3    H139784   3.632   5.295   0.024 -1.0218 -0.9284 -0.7749
 6123TIP3    H239785   3.741   5.215   0.092 -0.0581  0.8915 -0.1112
 6124TIP3   OH239786   2.701   1.756   0.703  0.5497 -0.4504 -0.5973
 6124TIP3    H139787   2.748   1.751   0.786 -0.3652 -3.4248 -0.1438
 6124TIP3    H239788   2.770   1.754   0.636  1.2694  1.6397 -0.0152
 6125TIP3   OH239789   4.768   3.442   5.431 -0.1968 -0.0382  0.3377
 6125TIP3    H139790   4.713   3.393   5.370  0.6934 -1.3425  0.5508
 6125TIP3    H239791   4.705   3.484   5.490 -0.9927 -1.1455  0.3186
 6126TIP3   OH239792   2.733   4.759  14.229  0.0848 -0.1349  0.1929
 6126TIP3    H139793   2.679   4.806  14.293  1.2999  0.8934  0.5067
 6126TIP3    H239794   2.696   4.671  14.227 -2.8497  0.9857 -1.0495
 6127TIP3   OH239795   1.081   4.380   0.488 -0.8130  0.2974  0.4204
 6127TIP3    H139796   1.003   4.381   0.431 -0.9267 -0.7885  0.5257
 6127TIP3    H239797   1.109   4.289   0.487  2.2050  1.0750 -1.9377
 6128TIP3   OH239798   6.011   4.746   0.675 -0.0139  0.1745  0.5461
 6128TIP3    H139799   6.037   4.733   0.584 -3.5632 -1.5148 -0.3844
 6128TIP3    H239800   6.073   4.693   0.726  0.2011 -1.3617 -1.2111
 6129TIP3   OH239801   4.755   2.497   5.687 -0.0775 -0.3184 -0.8225
 6129TIP3    H139802   4.755   2.524   5.778  0.2900  0.6180 -1.0834
 6129TIP3    H239803   4.825   2.431   5.682 -0.6592 -0.9879 -0.2716
 6130TIP3   OH239804   6.765   3.751  15.338 -0.0271 -0.1761  0.5579
 6130TIP3    H139805   6.701   3.729  15.405 -0.3552 -0.5406  0.1310
 6130TIP3    H239806   6.820   3.673  15.330 -1.4510 -1.0767 -1.2558
 6131TIP3   OH239807   6.031   0.436  11.706  0.1413  0.4714  0.1675
 6131TIP3    H139808   5.949   0.447  11.753  0.6857  1.6891  0.8920
 6131TIP3    H239809   6.057   0.346  11.723 -1.2211 -0.0551 -0.4028
 6132TIP3   OH239810   0.999   5.350  15.271 -0.2117 -0.1614  0.0511
 6132TIP3    H139811   0.973   5.346  15.363 -1.2658 -1.6281 -0.2775
 6132TIP3    H239812   1.088   5.386  15.273 -0.5138  0.5862  1.5703
 6133TIP3   OH239813   1.795   6.594   5.244  0.5193 -0.2027 -0.2567
 6133TIP3    H139814   1.889   6.580   5.257  0.8386  0.2255 -1.8383
 6133TIP3    H239815   1.782   6.585   5.149 -1.1355 -0.7970 -0.0101
 6134TIP3   OH239816   5.657   6.072   5.968  0.8455 -0.0886 -0.7245
 6134TIP3    H139817   5.645   6.166   5.974  2.3319  0.0396  1.0075
 6134TIP3    H239818   5.625   6.038   6.051 -0.5496 -1.2710 -1.6737
 6135TIP3   OH239819   3.754   4.135  14.816 -0.0668  0.2511  0.6939
 6135TIP3    H139820   3.763   4.191  14.739 -0.5397 -0.1914  0.3133
 6135TIP3    H239821   3.668   4.157  14.851 -1.5839 -2.2608 -1.1311
 6136TIP3   OH239822   4.634   0.770   5.491  0.2741 -0.2968  0.3840
 6136TIP3    H139823   4.570   0.788   5.422  1.0853  0.5198 -0.1759
 6136TIP3    H239824   4.625   0.844   5.551  1.1779  0.1924 -0.0731
 6137TIP3   OH239825   2.568   0.214   2.560 -0.2670  0.0493 -0.0128
 6137TIP3    H139826   2.537   0.285   2.504 -0.1536 -0.4567 -0.7346
 6137TIP3    H239827   2.655   0.243   2.589 -0.6725  0.6918  0.6093
 6138TIP3   OH239828   0.772   5.918  11.014  0.5743  0.4428 -0.1253
 6138TIP3    H139829   0.699   5.868  10.976  2.6928 -1.5096 -1.8985
 6138TIP3    H239830   0.788   5.876  11.099  1.4677 -1.1391 -1.0197
 6139TIP3   OH239831   3.347   0.258   2.187 -0.3301  0.4316 -0.2277
 6139TIP3    H139832   3.275   0.226   2.133  0.9659 -2.8557 -0.2697
 6139TIP3    H239833   3.310   0.266   2.275 -0.9070 -0.8204 -0.3332
 6140TIP3   OH239834   2.281   6.754  14.552  0.0351 -0.1782 -0.2847
 6140TIP3    H139835   2.230   6.684  14.512 -0.7108  0.6763 -0.8565
 6140TIP3    H239836   2.301   6.813  14.480 -0.6447  0.9794  0.4585
 6141TIP3   OH239837   6.480   4.305   3.625 -0.0973 -0.2295  0.8893
 6141TIP3    H139838   6.455   4.346   3.708  0.5456 -1.1394  1.5439
 6141TIP3    H239839   6.529   4.227   3.650  0.7953 -0.0946 -0.3574
 6142TIP3   OH239840   0.174   2.185   4.985  0.0469  0.9624  0.4142
 6142TIP3    H139841   0.226   2.209   4.908  0.6881 -0.0244  0.5294
 6142TIP3    H239842   0.231   2.127   5.035 -0.0822  2.1552  2.0162
 6143TIP3   OH239843   5.289   5.142  16.124 -0.5214  0.2568  0.2026
 6143TIP3    H139844   5.300   5.237  16.124  0.7727  0.1222  0.1425
 6143TIP3    H239845   5.315   5.114  16.212  0.1997 -0.1511 -0.1331
 6144TIP3   OH239846   4.344   2.140  12.600 -0.0717  0.0412 -1.0560
 6144TIP3    H139847   4.394   2.176  12.674 -0.6257 -0.2055 -0.5597
 6144TIP3    H239848   4.362   2.046  12.603  0.2471  0.0885 -1.4962
 6145TIP3   OH239849   0.031   1.750  11.209 -0.4724  0.0755 -0.7292
 6145TIP3    H139850  -0.003   1.686  11.146 -1.1748 -0.6483  0.3555
 6145TIP3    H239851  -0.027   1.825  11.201 -2.2768 -1.0485  0.9192
 6146TIP3   OH239852   4.732   3.182   4.872  0.5832 -0.0105 -0.3579
 6146TIP3    H139853   4.818   3.140   4.876 -0.3134 -1.8948  0.1600
 6146TIP3    H239854   4.677   3.131   4.931 -0.4809  2.2402  0.7381
 6147TIP3   OH239855   3.479   0.592   3.674  0.0880  0.0121 -0.3492
 6147TIP3    H139856   3.498   0.513   3.725  1.9402  0.7561  0.2069
 6147TIP3    H239857   3.513   0.663   3.729 -0.3702  1.0689 -1.4172
 6148TIP3   OH239858   0.044   5.248   1.937 -0.0915 -0.2927 -0.1642
 6148TIP3    H139859   0.021   5.241   2.030 -0.2517  2.3078  0.0863
 6148TIP3    H239860   0.028   5.161   1.901 -0.0283 -1.3762  2.2355
 6149TIP3   OH239861   0.455   6.605   3.781 -0.1458 -0.4483  0.3140
 6149TIP3    H139862   0.417   6.633   3.864  0.9620  2.6296 -0.0684
 6149TIP3    H239863   0.547   6.589   3.802 -0.4077 -2.4651  0.1567
 6150TIP3   OH239864   5.992   2.808   0.603 -0.2786 -0.2574 -0.0092
 6150TIP3    H139865   6.038   2.890   0.621  0.1319 -0.6293  0.6594
 6150TIP3    H239866   5.899   2.828   0.618 -0.5090  0.7943 -2.3889
 6151TIP3   OH239867   5.958   0.507   4.102 -0.9457  0.6936 -0.2190
 6151TIP3    H139868   5.901   0.581   4.080 -0.7531  1.2782  1.1389
 6151TIP3    H239869   5.898   0.434   4.114 -1.3572  1.1304  0.4773
 6152TIP3   OH239870   4.304   5.407   3.192 -0.3815 -0.1750 -0.7167
 6152TIP3    H139871   4.244   5.392   3.265 -0.4250 -1.3764 -0.9848
 6152TIP3    H239872   4.247   5.428   3.118 -0.3898  0.0171 -0.6575
 6153TIP3   OH239873   6.287   2.151   3.918 -0.0117  0.3397  0.2181
 6153TIP3    H139874   6.361   2.184   3.970  0.7850  0.2932 -0.8554
 6153TIP3    H239875   6.321   2.147   3.828 -1.4127  0.5966 -0.3470
 6154TIP3   OH239876   1.089   3.512   5.395  0.1435  0.2346 -0.6036
 6154TIP3    H139877   1.113   3.527   5.486  0.3731  0.4112 -0.6891
 6154TIP3    H239878   1.116   3.592   5.350 -0.7989  0.5127 -0.6761
 6155TIP3   OH239879   0.163   3.577  17.355 -0.1831  0.3218  0.6478
 6155TIP3    H139880   0.202   3.561  17.269  2.2593 -1.1361  1.9091
 6155TIP3    H239881   0.074   3.542  17.348  0.1373 -0.2329 -1.1207
 6156TIP3   OH239882   4.943   2.245   5.058 -0.0402  0.0407 -0.6358
 6156TIP3    H139883   4.970   2.167   5.009 -1.4684 -1.5209  0.9284
 6156TIP3    H239884   4.860   2.271   5.018 -0.4794 -0.3571  0.0083
 6157TIP3   OH239885   0.824   0.718   5.272  0.3013  0.2870 -0.2666
 6157TIP3    H139886   0.742   0.737   5.318 -0.9077 -1.5011 -1.5544
 6157TIP3    H239887   0.849   0.631   5.301  1.4370  0.5470 -0.3873
 6158TIP3   OH239888   4.231   5.964  11.335 -0.2267  0.5733  0.4825
 6158TIP3    H139889   4.295   6.033  11.352  0.4439  0.0715  0.0393
 6158TIP3    H239890   4.167   6.004  11.276  0.1776  0.8072  0.1998
 6159TIP3   OH239891   0.845   4.225  16.380 -0.0867  0.8076 -0.8508
 6159TIP3    H139892   0.817   4.143  16.337  1.3601  0.2396 -0.7424
 6159TIP3    H239893   0.934   4.208  16.409 -0.1975  2.0215  0.2772
 6160TIP3   OH239894   4.559   2.790   2.044 -0.1589  0.0457  0.2324
 6160TIP3    H139895   4.480   2.824   2.004 -0.1170  1.7835  1.5037
 6160TIP3    H239896   4.530   2.748   2.125  0.0489 -0.9872 -0.2046
 6161TIP3   OH239897   0.083   1.588  16.200  0.1588 -0.1690  0.1950
 6161TIP3    H139898   0.028   1.514  16.176 -1.2557  1.2668 -1.2494
 6161TIP3    H239899   0.171   1.552  16.207 -0.3305 -1.8071 -1.4515
 6162TIP3   OH239900   5.018   0.574   2.362  0.0452  0.3305  0.1124
 6162TIP3    H139901   4.983   0.568   2.272  1.3281  2.2112 -0.5599
 6162TIP3    H239902   4.971   0.647   2.401 -0.6312 -0.5890  1.0860
 6163TIP3   OH239903   0.963   6.109   0.524 -0.0001  0.1726 -0.0472
 6163TIP3    H139904   0.872   6.083   0.512  0.4723 -1.0573 -1.3210
 6163TIP3    H239905   0.980   6.097   0.617 -0.5470 -1.7317 -0.1525
 6164TIP3   OH239906   1.405   6.461  12.886 -0.0700 -0.5521  0.4208
 6164TIP3    H139907   1.438   6.429  12.802 -1.6906 -3.0803  0.6091
 6164TIP3    H239908   1.483   6.493  12.932  1.1779 -1.0809 -1.2229
 6165TIP3   OH239909   1.602   0.425   0.215  0.0839  0.2893  0.0772
 6165TIP3    H139910   1.674   0.479   0.181  0.6729 -0.6636 -0.2321
 6165TIP3    H239911   1.630   0.403   0.304  0.2885 -0.2715 -0.1242
 6166TIP3   OH239912   0.195   4.096  12.341  0.1429  0.4015  0.0580
 6166TIP3    H139913   0.268   4.035  12.328 -0.2270  0.0365 -0.3532
 6166TIP3    H239914   0.146   4.058  12.415  0.2605  0.5445  0.2104
 6167TIP3   OH239915   6.609   6.505   1.975  0.0358 -0.4934 -0.3562
 6167TIP3    H139916   6.692   6.552   1.974 -0.4611  0.4283 -1.4567
 6167TIP3    H239917   6.549   6.563   2.021  0.2098 -1.5913  1.3186
 6168TIP3   OH239918   4.458   6.641  11.786 -0.4738  0.1207 -0.1042
 6168TIP3    H139919   4.381   6.586  11.776 -0.3617  0.2009 -1.8119
 6168TIP3    H239920   4.448   6.707  11.718  0.6477  0.6870  0.2621
 6169TIP3   OH239921   1.377   5.323   5.940  0.0757 -0.3198 -0.3720
 6169TIP3    H139922   1.324   5.250   5.907 -0.4491  0.0610 -0.3772
 6169TIP3    H239923   1.350   5.398   5.887 -0.2833  0.1491  0.4559
 6170TIP3   OH239924   2.940   6.687   2.332  0.5188  0.2504  0.6017
 6170TIP3    H139925   2.861   6.680   2.385 -0.0397  1.1657 -0.0906
 6170TIP3    H239926   2.940   6.777   2.300  0.3116 -0.5141 -1.7401
 6171TIP3   OH239927   0.743   6.124  12.543 -0.1832  0.3662 -0.2789
 6171TIP3    H139928   0.755   6.116  12.638  1.0881  0.8421 -0.3873
 6171TIP3    H239929   0.650   6.144  12.533 -0.0823  1.5966  0.9459
 6172TIP3   OH239930   1.031   6.608  16.503 -0.0007 -0.0461  0.7997
 6172TIP3    H139931   0.936   6.601  16.508  0.0199 -0.2724  0.9098
 6172TIP3    H239932   1.048   6.646  16.417 -0.1577 -0.7738  0.4373
 6173TIP3   OH239933   1.740   6.607  15.582 -0.7302  0.0636  0.2720
 6173TIP3    H139934   1.650   6.575  15.580 -0.5974 -0.2999 -1.3777
 6173TIP3    H239935   1.791   6.536  15.622 -0.9968 -0.2297  0.0917
 6174TIP3   OH239936   2.514   0.086  14.142  0.4658 -0.1973  0.0138
 6174TIP3    H139937   2.516   0.087  14.238 -0.5851 -0.1846  0.0419
 6174TIP3    H239938   2.470   0.168  14.118  0.8764 -0.1196 -0.4902
 6175TIP3   OH239939   3.708   5.449   0.292  0.1528 -0.1521 -0.3378
 6175TIP3    H139940   3.766   5.437   0.217  0.1904 -0.1330 -0.3115
 6175TIP3    H239941   3.703   5.363   0.333 -4.6251 -1.9562 -3.7880
 6176TIP3   OH239942   6.302   0.334  13.673 -0.7300 -0.3995 -0.0213
 6176TIP3    H139943   6.358   0.382  13.611  0.1122  0.5772  1.4505
 6176TIP3    H239944   6.216   0.372  13.661 -1.1868 -1.9657 -2.3661
 6177TIP3   OH239945   5.041   1.775  14.467  0.2139 -0.0659  0.3826
 6177TIP3    H139946   4.995   1.693  14.449 -0.8215  0.1955  1.6932
 6177TIP3    H239947   5.121   1.749  14.513  0.5537 -0.4073 -0.3833
 6178TIP3   OH239948   0.412   5.889  16.935 -0.0900  0.2919 -0.8847
 6178TIP3    H139949   0.421   5.971  16.984 -1.0382 -0.4686  0.6440
 6178TIP3    H239950   0.360   5.833  16.993  0.7342 -1.4653 -1.7938
 6179TIP3   OH239951   4.559   0.123  13.705  0.2355 -0.3402 -0.2004
 6179TIP3    H139952   4.554   0.047  13.763 -0.8580  0.4754  0.8101
 6179TIP3    H239953   4.651   0.149  13.708  0.4166 -0.9942  0.2638
 6180TIP3   OH239954   4.763   4.520   2.348 -0.4137  1.0311  0.1820
 6180TIP3    H139955   4.798   4.474   2.272 -1.7540  0.7578 -0.2941
 6180TIP3    H239956   4.832   4.581   2.374  0.8084 -0.2048 -0.0835
 6181TIP3   OH239957   4.479   0.680  16.273 -0.4870  0.4866  0.5435
 6181TIP3    H139958   4.574   0.673  16.285 -0.5374 -1.9702  0.1619
 6181TIP3    H239959   4.462   0.632  16.192 -1.9964  1.4344  0.2781
 6182TIP3   OH239960   3.497   4.993  14.970  0.2275 -0.1594 -0.0114
 6182TIP3    H139961   3.572   4.962  14.919 -0.5180  1.6331 -2.3885
 6182TIP3    H239962   3.528   5.072  15.013  0.5597 -1.1376  1.6547
 6183TIP3   OH239963   5.134   3.204   3.786  1.0674 -0.3732  0.0087
 6183TIP3    H139964   5.075   3.261   3.834  1.2106  0.9605 -1.3539
 6183TIP3    H239965   5.139   3.241   3.698  2.9178 -1.1733 -0.2871
 6184TIP3   OH239966   5.423   4.912  11.626  0.1833 -0.1607  0.5046
 6184TIP3    H139967   5.478   4.836  11.647  1.1151  0.1656 -0.6598
 6184TIP3    H239968   5.411   4.956  11.710  2.5429  0.2981  0.6666
 6185TIP3   OH239969   0.149   2.906   5.498  0.1388 -0.4338  0.2866
 6185TIP3    H139970   0.083   2.919   5.566 -1.7441 -0.9354 -1.3368
 6185TIP3    H239971   0.138   2.980   5.439  1.3824 -0.2765  0.2214
 6186TIP3   OH239972   0.520   5.570  13.478  0.4487 -0.4968  0.2002
 6186TIP3    H139973   0.542   5.498  13.419  0.6159  0.0740 -0.4562
 6186TIP3    H239974   0.434   5.546  13.514  0.3638 -0.8814 -0.2428
 6187TIP3   OH239975   2.149   1.589  16.872 -0.6427 -1.0031  0.1988
 6187TIP3    H139976   2.211   1.520  16.896  0.8935 -0.6823 -2.4340
 6187TIP3    H239977   2.071   1.542  16.841 -0.4578 -1.4930  0.4691
 6188TIP3   OH239978   2.101   6.390  17.059 -0.0811 -0.4022 -0.0022
 6188TIP3    H139979   2.071   6.442  16.984 -0.7058 -0.0525  0.4833
 6188TIP3    H239980   2.026   6.387  17.118 -0.1124 -1.9960 -0.0844
 6189TIP3   OH239981   5.626   1.265  11.296 -0.3804 -0.0259 -0.1152
 6189TIP3    H139982   5.617   1.235  11.205  0.8701  1.7838 -0.8900
 6189TIP3    H239983   5.721   1.265  11.312 -0.3868  2.2412  0.2295
 6190TIP3   OH239984   0.984   4.673  17.399  0.6881  0.3164 -0.0825
 6190TIP3    H139985   1.008   4.582  17.414  0.3418  0.5281  2.0978
 6190TIP3    H239986   0.893   4.670  17.369  1.0437 -0.0863 -1.1724
 6191TIP3   OH239987   1.113   4.489   6.197  0.1440 -0.0353 -0.1317
 6191TIP3    H139988   1.047   4.439   6.149 -0.9238  0.1025  1.1398
 6191TIP3    H239989   1.187   4.495   6.137 -1.0263 -0.1028 -1.6360
 6192TIP3   OH239990   4.970   3.530   0.495 -0.1381 -0.1619  0.3094
 6192TIP3    H139991   5.034   3.463   0.471  0.3946  0.1531  0.8201
 6192TIP3    H239992   5.016   3.586   0.558 -0.1850  1.3496 -0.9268
 6193TIP3   OH239993   0.957   5.766   3.215 -0.0037  0.2340  0.5509
 6193TIP3    H139994   1.002   5.849   3.200 -0.5518  0.3602 -0.5229
 6193TIP3    H239995   0.864   5.789   3.216 -0.2013 -0.4505 -0.4435
 6194TIP3   OH239996   2.951   5.411   3.552 -0.0952  0.2784  0.1402
 6194TIP3    H139997   3.045   5.405   3.566 -0.4283 -0.1363  2.8380
 6194TIP3    H239998   2.927   5.497   3.585 -0.6999  0.2434 -0.1904
 6195TIP3   OH239999   0.919   2.119  16.083 -0.0527  0.4826  0.4406
 6195TIP3    H140000   0.916   2.213  16.068 -1.6382  0.5017  0.6941
 6195TIP3    H240001   1.009   2.094  16.064 -0.3017  1.5214 -2.7242
 6196TIP3   OH240002   6.511   4.416   1.303 -0.1798 -0.3430 -0.2679
 6196TIP3    H140003   6.476   4.435   1.390 -1.4549  0.4997 -0.9444
 6196TIP3    H240004   6.539   4.325   1.308 -1.2794 -0.6513  0.6926
 6197TIP3   OH240005   5.521   3.790  15.177  0.9419 -0.8276  0.2734
 6197TIP3    H140006   5.561   3.740  15.106 -0.9488 -0.2974 -1.2552
 6197TIP3    H240007   5.522   3.730  15.252  1.5660 -1.9992 -0.6406
 6198TIP3   OH240008   6.022   2.695  15.348 -0.0826 -0.1196  0.4728
 6198TIP3    H140009   5.952   2.758  15.330 -0.3323 -0.3126  0.7635
 6198TIP3    H240010   6.081   2.743  15.407 -0.4257 -0.2538  0.9321
 6199TIP3   OH240011   2.790   6.387   3.006 -0.3930 -0.2795  0.5990
 6199TIP3    H140012   2.760   6.296   3.000 -1.5515 -0.0811  2.6274
 6199TIP3    H240013   2.885   6.381   3.011 -0.0372 -1.0761 -3.3562
 6200TIP3   OH240014   1.085   3.864   1.003  0.2257  0.1052  0.0566
 6200TIP3    H140015   1.165   3.891   0.958  0.8639 -2.7178 -0.7156
 6200TIP3    H240016   1.113   3.842   1.092  0.1470 -0.0575  0.0416
 6201TIP3   OH240017   1.376   2.778   4.405 -0.1880  0.2356  0.1548
 6201TIP3    H140018   1.324   2.722   4.462 -1.2944  0.4108 -0.6506
 6201TIP3    H240019   1.389   2.859   4.456 -0.1217 -0.0662  0.6221
 6202TIP3   OH240020   5.815   0.768  12.641 -0.0873  0.2612 -0.2384
 6202TIP3    H140021   5.847   0.730  12.558  0.5095  2.7931 -1.2629
 6202TIP3    H240022   5.875   0.840  12.658 -1.7318  1.3838  1.0673
 6203TIP3   OH240023   3.619   2.915  14.858  0.5428  0.4330  0.0524
 6203TIP3    H140024   3.600   2.980  14.926  2.0945  1.6951 -0.6465
 6203TIP3    H240025   3.692   2.953  14.809  1.2084 -1.6467 -0.6792
 6204TIP3   OH240026   4.436   1.381  16.195 -0.1536  0.4468 -0.3458
 6204TIP3    H140027   4.373   1.442  16.232 -1.2031 -0.1779 -1.0712
 6204TIP3    H240028   4.416   1.297  16.236  0.5459  0.3441 -0.1966
 6205TIP3   OH240029   3.298   3.633   2.693  0.1417  0.4677  0.2098
 6205TIP3    H140030   3.283   3.726   2.710  0.8682  0.2985  2.1016
 6205TIP3    H240031   3.219   3.589   2.726  1.1294  0.2136  2.4130
 6206TIP3   OH240032   2.202   5.973   1.422 -0.0282 -0.1564 -0.1500
 6206TIP3    H140033   2.221   5.886   1.388 -1.3501 -0.3535 -0.4159
 6206TIP3    H240034   2.108   5.984   1.410 -0.0395  0.9274  0.7712
 6207TIP3   OH240035   4.018   6.073   1.388  0.1312 -0.1838 -0.2683
 6207TIP3    H140036   3.968   6.108   1.314  2.9006  1.3881 -1.5756
 6207TIP3    H240037   3.980   6.116   1.465 -1.1253  0.1751 -1.0497
 6208TIP3   OH240038   2.406   3.457  15.249 -0.0471  0.3215 -0.1861
 6208TIP3    H140039   2.435   3.409  15.326 -0.9469 -0.6535 -0.4415
 6208TIP3    H240040   2.401   3.392  15.180 -1.7068  0.6875 -0.4352
 6209TIP3   OH240041   4.876   3.951  11.261 -0.7621 -0.1595  0.6283
 6209TIP3    H140042   4.788   3.948  11.223 -0.9673 -0.8913  1.1193
 6209TIP3    H240043   4.866   3.910  11.347 -0.0518  0.2792  0.9325
 6210TIP3   OH240044   1.583   5.403  17.190 -0.3993 -0.1647 -0.3300
 6210TIP3    H140045   1.665   5.445  17.216 -0.2879  0.4033 -1.5307
 6210TIP3    H240046   1.515   5.455  17.233 -0.2315  0.8920 -1.2936
 6211TIP3   OH240047   6.642   1.217  14.469 -0.3883  0.8090 -0.8425
 6211TIP3    H140048   6.567   1.244  14.521 -0.0119  0.9922 -0.3905
 6211TIP3    H240049   6.667   1.131  14.504  0.8588  1.6271  0.3922
 6212TIP3   OH240050   6.604   3.272   2.198 -0.1982  0.1531 -0.2653
 6212TIP3    H140051   6.512   3.289   2.218 -0.1688 -0.7345  0.6845
 6212TIP3    H240052   6.652   3.308   2.272  0.4747  2.9762 -1.9178
 6213TIP3   OH240053   4.525   2.255  16.783 -0.2771  0.0866  0.2734
 6213TIP3    H140054   4.560   2.341  16.762 -0.6327  0.0193 -0.6345
 6213TIP3    H240055   4.601   2.197  16.782  0.0298  0.4448  1.3034
 6214TIP3   OH240056   1.225   1.307   0.704 -0.4201  0.6443  0.2362
 6214TIP3    H140057   1.136   1.278   0.725 -0.1277 -1.1062 -0.7017
 6214TIP3    H240058   1.213   1.384   0.649 -1.5280 -1.1858 -2.3032
 6215TIP3   OH240059   6.260   3.671   0.801 -0.2337 -0.4537  0.2086
 6215TIP3    H140060   6.177   3.624   0.799 -0.3422 -0.2289 -0.6228
 6215TIP3    H240061   6.236   3.763   0.799 -0.0038 -0.3379  1.4621
 6216TIP3   OH240062   6.077   4.651   2.481 -0.5221 -0.0196 -0.1048
 6216TIP3    H140063   6.088   4.563   2.444  0.1977  1.1290 -2.9035
 6216TIP3    H240064   6.162   4.671   2.521 -0.4490 -0.3145 -0.1086
 6217TIP3   OH240065   5.972   0.919   4.755  1.0577 -0.1933 -0.0402
 6217TIP3    H140066   6.041   0.853   4.764  0.7726 -0.6256 -0.9153
 6217TIP3    H240067   5.904   0.876   4.703 -0.2440 -0.0374  1.4551
 6218TIP3   OH240068   3.587   2.695  12.629  0.0459 -0.1522 -0.8210
 6218TIP3    H140069   3.607   2.674  12.720 -0.7217  2.1151 -0.0614
 6218TIP3    H240070   3.643   2.771  12.609  0.9626 -1.2299 -2.5973
 6219TIP3   OH240071   4.241   0.713   4.075 -0.6608  0.1893 -0.1255
 6219TIP3    H140072   4.182   0.787   4.063  0.4704  1.0751 -0.5263
 6219TIP3    H240073   4.329   0.751   4.064 -0.0666 -1.3003 -0.8170
 6220TIP3   OH240074   0.007   3.306  17.076  0.4016  0.2098 -0.2155
 6220TIP3    H140075   0.061   3.235  17.110 -0.4519  0.6333  2.1551
 6220TIP3    H240076  -0.068   3.262  17.035 -0.8723 -0.3402  2.5152
 6221TIP3   OH240077   4.458   0.632  15.311 -0.3011  0.3122 -0.1119
 6221TIP3    H140078   4.516   0.685  15.365 -0.3700 -0.1672  0.4348
 6221TIP3    H240079   4.461   0.675  15.225  1.1340  0.0983 -0.1935
 6222TIP3   OH240080   3.716   5.348   4.418 -0.1579 -0.4758  0.1178
 6222TIP3    H140081   3.722   5.300   4.335  1.7744  0.5208 -0.3738
 6222TIP3    H240082   3.741   5.285   4.485  1.0993 -0.5487 -0.3897
 6223TIP3   OH240083   6.009   4.922  15.489  0.1865 -0.2964 -0.3860
 6223TIP3    H140084   6.077   4.861  15.461  0.7987 -0.0475  0.5192
 6223TIP3    H240085   6.056   4.998  15.522 -0.3669 -1.0978  2.5910
 6224TIP3   OH240086   1.927   3.189  16.704 -0.3719  0.1369 -0.2655
 6224TIP3    H140087   1.973   3.105  16.713  1.8044  1.3327  0.5767
 6224TIP3    H240088   1.905   3.213  16.794  2.6189  2.2661  0.0380
 6225TIP3   OH240089   1.460   0.423  17.391  0.4429 -0.3672 -0.1511
 6225TIP3    H140090   1.534   0.414  17.331 -0.3119  0.8875 -1.3071
 6225TIP3    H240091   1.500   0.422  17.478  1.7882 -0.0853 -0.7440
 6226TIP3   OH240092   4.018   3.346   0.130  0.1076 -0.6006 -0.0919
 6226TIP3    H140093   4.067   3.266   0.148  0.8026 -0.6280 -1.9001
 6226TIP3    H240094   4.020   3.394   0.213  1.8902 -1.3107  0.3360
 6227TIP3   OH240095   6.460   3.021   0.367 -0.0729 -0.0468 -0.1768
 6227TIP3    H140096   6.388   2.972   0.326  1.4186 -0.3085 -2.7072
 6227TIP3    H240097   6.524   2.955   0.390  0.2424  0.3664  0.1454
 6228TIP3   OH240098   0.772   1.323   3.945  0.6971  0.1361 -0.5615
 6228TIP3    H140099   0.860   1.356   3.927  0.8076 -0.0007 -0.2854
 6228TIP3    H240100   0.726   1.328   3.862  1.7981 -2.4504 -1.4249
 6229TIP3   OH240101   6.156   6.503   1.700 -0.3137  0.0471  0.3558
 6229TIP3    H140102   6.171   6.459   1.616  0.0890 -1.7954  1.3204
 6229TIP3    H240103   6.132   6.432   1.759  0.9365  1.0592  2.1674
 6230TIP3   OH240104   1.724   1.458   4.796 -0.5242  0.5150 -0.1348
 6230TIP3    H140105   1.655   1.473   4.860  0.3197  0.4146  0.8099
 6230TIP3    H240106   1.677   1.429   4.717 -1.4492 -1.5103  1.0800
 6231TIP3   OH240107   1.832   5.528   1.814 -0.1505 -0.1416  0.4404
 6231TIP3    H140108   1.815   5.494   1.726 -1.4029  0.4533  0.4331
 6231TIP3    H240109   1.746   5.550   1.848  0.3986  0.4245  1.5028
 6232TIP3   OH240110   5.057   1.348   0.599 -0.6000 -0.6134  0.1210
 6232TIP3    H140111   5.082   1.257   0.619 -0.8016 -0.8864 -0.8440
 6232TIP3    H240112   5.050   1.390   0.685  0.1973 -1.3240  0.5508
 6233TIP3   OH240113   1.354   1.135  15.472 -0.0789  0.0319  0.4451
 6233TIP3    H140114   1.299   1.111  15.547 -2.1680  0.2395 -0.9509
 6233TIP3    H240115   1.371   1.228  15.484 -1.3326  0.3160  0.1292
 6234TIP3   OH240116   0.247   0.265   5.610  0.0482 -0.1191  0.0581
 6234TIP3    H140117   0.262   0.350   5.569 -1.6023 -0.4898 -1.3927
 6234TIP3    H240118   0.334   0.238   5.639  0.7233  1.7201 -0.0925
 6235TIP3   OH240119   3.461   2.609   4.211  0.2420 -0.7287 -0.4781
 6235TIP3    H140120   3.396   2.679   4.215  0.0481 -0.9504  1.5763
 6235TIP3    H240121   3.445   2.557   4.290  0.3064 -3.1909 -1.9908
 6236TIP3   OH240122   5.183   2.940  17.222 -0.4256  0.1718 -0.0809
 6236TIP3    H140123   5.234   3.014  17.255 -1.2286 -0.3263  2.4915
 6236TIP3    H240124   5.118   2.980  17.165  1.6654  0.9730 -2.0717
 6237TIP3   OH240125   3.692   3.703  13.424 -0.4801 -0.2113  0.4145
 6237TIP3    H140126   3.735   3.618  13.412 -0.4071 -0.0966 -0.1378
 6237TIP3    H240127   3.704   3.723  13.517  1.7286  0.3968  0.0353
 6238TIP3   OH240128   1.519   2.767  14.542 -0.2833 -0.1637  0.1055
 6238TIP3    H140129   1.587   2.774  14.475  0.2153 -4.2187 -0.0424
 6238TIP3    H240130   1.567   2.769  14.625  0.0319 -2.1732  0.0238
 6239TIP3   OH240131   0.656   4.215  12.877 -0.4784  0.0620  0.3739
 6239TIP3    H140132   0.705   4.135  12.894  0.4515  0.3496 -0.7995
 6239TIP3    H240133   0.609   4.197  12.795  0.5952  1.0577 -0.5001
 6240TIP3   OH240134   1.241   0.573  11.889  0.0019 -0.3645  0.4213
 6240TIP3    H140135   1.266   0.662  11.911 -0.1480 -0.4297  0.8590
 6240TIP3    H240136   1.295   0.518  11.946 -0.6939 -0.5221  0.9300
 6241TIP3   OH240137   4.950   2.771   2.808  0.1661  0.2903 -0.5324
 6241TIP3    H140138   5.008   2.695   2.803 -1.0664 -0.6659 -0.9988
 6241TIP3    H240139   5.000   2.843   2.772  1.0497 -0.5063 -0.9295
 6242TIP3   OH240140   3.810   5.098  12.816 -0.0787 -0.1145 -0.1993
 6242TIP3    H140141   3.894   5.075  12.855  0.0793  0.4549 -0.1959
 6242TIP3    H240142   3.745   5.054  12.870  0.1473  0.5178  0.5962
 6243TIP3   OH240143   1.352   5.618  15.821  0.0843 -0.1473  0.3201
 6243TIP3    H140144   1.271   5.595  15.866  0.0906 -1.3062 -0.2183
 6243TIP3    H240145   1.334   5.605  15.728  0.0541  2.3048 -0.0763
 6244TIP3   OH240146   0.810   1.720   4.397  0.0296  0.2819  0.1403
 6244TIP3    H140147   0.824   1.756   4.485  1.0772 -1.9177  0.9529
 6244TIP3    H240148   0.806   1.625   4.410  1.3332 -0.1975 -2.3062
 6245TIP3   OH240149   3.643   0.624   5.296 -0.4369  0.8521  0.2873
 6245TIP3    H140150   3.700   0.549   5.275 -0.5391  0.8954 -0.1540
 6245TIP3    H240151   3.702   0.690   5.332 -0.3202  0.6216  0.5200
 6246TIP3   OH240152   6.739   2.588  14.789 -0.1471  0.2279 -0.7561
 6246TIP3    H140153   6.697   2.553  14.868 -1.2992  1.2570 -0.8859
 6246TIP3    H240154   6.831   2.562  14.797 -0.1455  0.6945  1.1451
 6247TIP3   OH240155   1.333   1.109  16.307  0.0456 -0.3922  0.7670
 6247TIP3    H140156   1.279   1.030  16.313 -0.0110 -0.5442 -1.1924
 6247TIP3    H240157   1.271   1.177  16.282  0.1745  0.2205  2.0340
 6248TIP3   OH240158   6.718   1.450  13.015 -0.1154 -0.0380  0.0934
 6248TIP3    H140159   6.762   1.441  12.930  0.8017 -0.6146  0.6047
 6248TIP3    H240160   6.650   1.515  13.000 -1.2085 -1.4665 -1.5524
 6249TIP3   OH240161   2.996   0.615  11.085  0.3596  0.0847 -0.3779
 6249TIP3    H140162   2.904   0.597  11.106  0.9473 -0.1719  2.4216
 6249TIP3    H240163   3.033   0.529  11.065  0.5616 -0.2851  1.3667
 6250TIP3   OH240164   1.603   2.498  12.329 -1.0277  0.5439  0.3552
 6250TIP3    H140165   1.647   2.426  12.284  0.2709  0.8901  1.0155
 6250TIP3    H240166   1.651   2.507  12.411 -2.0731  1.2433  0.9116
 6251TIP3   OH240167   1.766   0.521   3.049  0.4461  0.0564  0.2024
 6251TIP3    H140168   1.693   0.573   3.014  1.4175  1.8723  0.7380
 6251TIP3    H240169   1.736   0.493   3.135  0.7471  1.7450  0.8960
 6252TIP3   OH240170   3.371   4.310   0.023 -0.5149  0.3068  0.3297
 6252TIP3    H140171   3.318   4.332   0.100 -0.2841  1.1533  0.2588
 6252TIP3    H240172   3.393   4.395  -0.016  0.2361 -0.0683 -0.0846
 6253TIP3   OH240173   6.111   5.857  13.718 -0.5258  0.4061  0.2377
 6253TIP3    H140174   6.061   5.807  13.782  0.7279  1.9136  2.4941
 6253TIP3    H240175   6.048   5.877  13.648 -1.6856 -2.0723  0.4705
 6254TIP3   OH240176   2.988   2.060  17.132  0.0295 -0.4794  0.4082
 6254TIP3    H140177   2.996   2.155  17.136 -1.2023 -0.2255 -1.7802
 6254TIP3    H240178   3.078   2.029  17.124  0.3109  0.7696 -2.1918
 6255TIP3   OH240179   5.252   5.202  11.021 -0.4489  0.6563 -0.2191
 6255TIP3    H140180   5.295   5.179  10.939  1.5505  1.5917  0.5046
 6255TIP3    H240181   5.249   5.298  11.021  0.8179  0.7377  1.3459
 6256TIP3   OH240182   1.872   0.818   0.001  0.2625 -0.1395  1.0769
 6256TIP3    H140183   1.916   0.832  -0.082 -1.0982  0.7038  0.4653
 6256TIP3    H240184   1.898   0.893   0.055 -1.5625  1.2115  0.1833
 6257TIP3   OH240185   6.373   0.476   0.970  0.1426  0.0070 -0.1511
 6257TIP3    H140186   6.439   0.486   0.901 -0.3661  1.3193 -0.4845
 6257TIP3    H240187   6.409   0.525   1.044 -0.3246  0.4943 -0.2434
 6258TIP3   OH240188   2.814   3.403   5.813 -0.9728 -0.2344 -0.2036
 6258TIP3    H140189   2.804   3.309   5.829 -0.0327 -0.1869  0.7768
 6258TIP3    H240190   2.905   3.421   5.835 -0.5189  0.5150 -2.4857
 6259TIP3   OH240191   3.271   6.613  15.410  0.7143  0.1940  0.5408
 6259TIP3    H140192   3.291   6.706  15.416  2.5945  0.0477 -1.9813
 6259TIP3    H240193   3.202   6.607  15.343 -0.0966 -0.1935  1.3841
 6260TIP3   OH240194   2.882   1.321   5.935  0.3667 -0.6690  0.1261
 6260TIP3    H140195   2.881   1.406   5.978  0.1316 -0.0166 -1.0987
 6260TIP3    H240196   2.826   1.333   5.858 -0.1955 -2.1251  0.2778
 6261TIP3   OH240197   1.978   6.000  14.869 -0.0432 -0.8440 -0.3552
 6261TIP3    H140198   1.978   6.073  14.932 -0.4256  0.8767 -2.2520
 6261TIP3    H240199   2.042   5.939  14.904 -0.8482 -0.3998  2.1595
 6262TIP3   OH240200   0.212   6.141  12.777 -0.7737  0.2169 -0.8287
 6262TIP3    H140201   0.209   6.047  12.756 -1.1695  0.0076  0.0745
 6262TIP3    H240202   0.301   6.156  12.808 -1.2053 -0.3082  0.8082
 6263TIP3   OH240203   4.324   0.321   0.314 -0.1248  0.1957 -0.0308
 6263TIP3    H140204   4.278   0.237   0.321  0.7735 -0.3423 -0.3317
 6263TIP3    H240205   4.261   0.386   0.344 -0.8080 -0.6008  0.3011
 6264TIP3   OH240206   4.701   0.226   1.680  0.5902  0.3879  0.2525
 6264TIP3    H140207   4.780   0.269   1.713  2.6189 -0.7884 -2.5941
 6264TIP3    H240208   4.699   0.142   1.725 -0.5307  1.3459  2.1232
 6265TIP3   OH240209   2.259   2.408   0.750 -0.0316  0.3362  0.0178
 6265TIP3    H140210   2.243   2.360   0.831  1.5152  1.6558  1.1858
 6265TIP3    H240211   2.245   2.344   0.680 -0.2073 -1.1765  1.3854
 6266TIP3   OH240212   0.495   4.486   5.969 -0.2685 -0.1654  0.0280
 6266TIP3    H140213   0.460   4.401   5.945  1.1309 -0.4224 -1.2770
 6266TIP3    H240214   0.420   4.546   5.964 -0.9874 -1.0833 -0.3097
 6267TIP3   OH240215   0.167   2.467   4.330  0.0237  0.0707  0.0363
 6267TIP3    H140216   0.078   2.440   4.353  0.5037 -1.0275  0.6876
 6267TIP3    H240217   0.163   2.563   4.326 -1.6286 -0.0131 -1.8533
 6268TIP3   OH240218   5.223   0.643   6.434 -0.2582  0.1213 -0.4634
 6268TIP3    H140219   5.131   0.626   6.413 -0.6288  1.3280  0.1184
 6268TIP3    H240220   5.240   0.729   6.398  0.7225 -0.1858 -0.7581
 6269TIP3   OH240221   1.733   5.884  15.467 -0.0706  0.1001 -0.1255
 6269TIP3    H140222   1.816   5.931  15.454  0.0105 -0.4852 -2.0979
 6269TIP3    H240223   1.667   5.952  15.471  0.5489  0.6834  2.8624
 6270TIP3   OH240224   6.077   0.472   1.766 -0.4245  0.4669 -0.2798
 6270TIP3    H140225   6.025   0.536   1.815  0.8658  2.4026 -1.3032
 6270TIP3    H240226   6.031   0.464   1.682 -0.6201 -0.0284 -0.1292
 6271TIP3   OH240227   1.610   0.867  12.691 -0.0681 -0.3078 -0.1347
 6271TIP3    H140228   1.690   0.885  12.741 -0.9271 -0.8069  1.4797
 6271TIP3    H240229   1.549   0.831  12.755 -2.3812  2.0951 -0.8113
 6272TIP3   OH240230   0.156   3.122   5.702 -0.0624 -0.1978  0.0457
 6272TIP3    H140231   0.086   3.185   5.687  0.7348  1.3866  2.3731
 6272TIP3    H240232   0.112   3.041   5.728 -1.0786  0.7581  1.4158
 6273TIP3   OH240233   5.064   4.988   5.997  0.1592 -0.1046 -0.3735
 6273TIP3    H140234   5.098   4.899   5.987  2.0407  0.7407 -2.1675
 6273TIP3    H240235   5.140   5.039   6.023 -1.0857  0.8831  1.5363
 6274TIP3   OH240236   2.518   4.621   4.473  0.1662  0.1281  0.1054
 6274TIP3    H140237   2.455   4.550   4.488 -0.1712  0.6628  1.2908
 6274TIP3    H240238   2.584   4.610   4.541 -0.8932  2.0392  1.5447
 6275TIP3   OH240239   5.796   6.020  16.646 -0.9459 -0.1047 -0.0365
 6275TIP3    H140240   5.853   5.951  16.680 -1.6518 -0.6648  0.0181
 6275TIP3    H240241   5.856   6.088  16.616 -0.1917 -1.3021 -1.3396
 6276TIP3   OH240242   2.509   5.418   5.708  0.3138 -0.1867 -0.2739
 6276TIP3    H140243   2.552   5.462   5.782  1.0891 -3.5148  1.4529
 6276TIP3    H240244   2.421   5.454   5.707  0.5031  0.5050  1.8221
 6277TIP3   OH240245   1.302   6.111   0.209 -0.3033  0.1188 -0.3290
 6277TIP3    H140246   1.392   6.141   0.217  0.3205 -1.5712 -0.5789
 6277TIP3    H240247   1.281   6.123   0.117 -1.0481  2.3005  0.0636
 6278TIP3   OH240248   1.193   6.328   5.231  0.1540  0.3491  0.0705
 6278TIP3    H140249   1.223   6.284   5.311  0.0817  1.6503  0.8437
 6278TIP3    H240250   1.126   6.270   5.195 -0.1868 -0.0126  1.2378
 6279TIP3   OH240251   6.616   6.658   2.313  0.5430  0.3300  0.6480
 6279TIP3    H140252   6.598   6.686   2.402 -0.1398 -1.9947  1.2807
 6279TIP3    H240253   6.530   6.646   2.273  0.8272  0.0143  0.1142
 6280TIP3   OH240254   2.758   5.821   5.102  0.1101 -0.2759 -0.0438
 6280TIP3    H140255   2.743   5.879   5.028  0.5633 -1.4552 -1.0943
 6280TIP3    H240256   2.671   5.792   5.128 -0.0604  0.2486 -0.0088
 6281TIP3   OH240257   0.050   3.797  16.507 -0.1036  0.5258  0.2364
 6281TIP3    H140258   0.050   3.892  16.520  0.9193  0.5510  0.1016
 6281TIP3    H240259   0.135   3.768  16.540 -0.5389 -0.3899  0.5890
 6282TIP3   OH240260   2.811   6.489  16.134  0.4031 -0.7605  0.2909
 6282TIP3    H140261   2.720   6.476  16.110  0.6791 -0.0239 -1.2845
 6282TIP3    H240262   2.829   6.421  16.200 -0.9056 -1.7410 -0.3328
 6283TIP3   OH240263   3.094   4.923  17.096 -0.3084 -0.2902 -0.1212
 6283TIP3    H140264   3.180   4.935  17.055 -0.8691 -1.7676 -1.8681
 6283TIP3    H240265   3.044   5.001  17.069  0.1484  0.0273 -0.0506
 6284TIP3   OH240266   5.791   5.719  16.364  0.2957 -0.3196  0.5719
 6284TIP3    H140267   5.716   5.678  16.319  0.7659 -1.5844  0.8807
 6284TIP3    H240268   5.860   5.722  16.298  0.5930 -1.0213  0.8407
 6285TIP3   OH240269   0.872   3.862   4.550 -1.2341  0.7441 -0.0920
 6285TIP3    H140270   0.917   3.825   4.626 -0.1790 -2.2101 -1.9432
 6285TIP3    H240271   0.943   3.890   4.492 -1.8386 -0.4044 -1.4418
 6286TIP3   OH240272   4.450   1.696   1.581 -0.7387  0.4357  0.0829
 6286TIP3    H140273   4.479   1.626   1.521 -2.1770 -0.1345  0.0255
 6286TIP3    H240274   4.377   1.658   1.629 -0.6611  1.4550  1.0491
 6287TIP3   OH240275   0.657   0.622   3.682 -0.4536  0.1518 -0.0236
 6287TIP3    H140276   0.703   0.610   3.599 -1.6945  0.6367 -0.8050
 6287TIP3    H240277   0.724   0.658   3.741  0.2508  0.5467 -1.0284
 6288TIP3   OH240278   6.304   3.181  11.602  0.8035  0.1481  0.7958
 6288TIP3    H140279   6.293   3.138  11.517  1.2465  0.4338  0.5867
 6288TIP3    H240280   6.399   3.177  11.618  0.6164 -0.8075  1.7630
 6289TIP3   OH240281   4.420   6.127   3.356  0.0322  0.1545  0.0588
 6289TIP3    H140282   4.510   6.120   3.323  0.1788 -0.6268  0.5945
 6289TIP3    H240283   4.377   6.186   3.294  0.7172 -0.0307 -0.6223
 6290TIP3   OH240284   5.719   0.117  12.573  0.3454 -0.4824  0.0276
 6290TIP3    H140285   5.687   0.134  12.485  1.5900 -0.7017 -0.4849
 6290TIP3    H240286   5.647   0.143  12.630 -0.0933  0.6129 -0.9979
 6291TIP3   OH240287   1.625   1.038   1.778 -0.0708 -0.1680  0.3747
 6291TIP3    H140288   1.549   1.080   1.741  0.1296  0.9977  1.2398
 6291TIP3    H240289   1.592   0.955   1.814 -1.2276  0.8809  1.8870
 6292TIP3   OH240290   4.050   5.091  11.067  0.6074 -0.3651 -0.4422
 6292TIP3    H140291   4.112   5.025  11.036 -0.5718 -0.6627 -2.3717
 6292TIP3    H240292   4.045   5.154  10.994 -1.4383 -0.4389 -0.4281
 6293TIP3   OH240293   5.932   5.346  11.679 -0.0599 -0.1803  0.1706
 6293TIP3    H140294   5.906   5.303  11.598 -0.5978  0.4014  0.0287
 6293TIP3    H240295   6.028   5.339  11.680 -0.1538 -1.8386  0.4233
 6294TIP3   OH240296   1.190   6.718  17.406  0.6105  0.3400 -0.2941
 6294TIP3    H140297   1.131   6.676  17.344  0.7838 -0.3218 -0.0205
 6294TIP3    H240298   1.163   6.684  17.492  1.7880 -0.4965 -0.2181
 6295TIP3   OH240299   3.645   5.160  16.557  0.7451  0.2251  0.1220
 6295TIP3    H140300   3.597   5.242  16.573  1.6900  0.2766  3.4738
 6295TIP3    H240301   3.691   5.175  16.475 -2.7736  1.1491 -1.9301
 6296TIP3   OH240302   1.012   2.527   1.070  0.0969 -0.4239 -0.2787
 6296TIP3    H140303   1.046   2.448   1.030  1.2957 -0.2876  0.4438
 6296TIP3    H240304   0.999   2.504   1.162 -0.7833 -0.1564 -0.3265
 6297TIP3   OH240305   4.739   2.641   3.131 -0.3151  0.0682 -0.5741
 6297TIP3    H140306   4.765   2.568   3.074  2.5831  0.6568 -0.1394
 6297TIP3    H240307   4.739   2.717   3.073  0.7714  0.3575 -0.2150
 6298TIP3   OH240308   3.759   5.158  11.469  0.1574  0.0146  0.0584
 6298TIP3    H140309   3.751   5.127  11.379  0.8719  1.9086 -0.7092
 6298TIP3    H240310   3.682   5.213  11.483 -0.6847 -1.3795  1.1175
 6299TIP3   OH240311   5.722   4.452  11.722  0.1368  0.0363  0.5176
 6299TIP3    H140312   5.673   4.379  11.759 -1.0702  0.2858 -0.5129
 6299TIP3    H240313   5.792   4.469  11.785  1.4258 -2.9977  0.0798
 6300TIP3   OH240314   5.788   5.291   2.743  0.4512 -0.2428 -0.3598
 6300TIP3    H140315   5.730   5.257   2.812  1.1800 -0.6875  0.0480
 6300TIP3    H240316   5.747   5.263   2.661 -1.0992  1.3575 -0.1836
 6301TIP3   OH240317   4.664   3.533  11.421  0.4731  0.3501 -0.6024
 6301TIP3    H140318   4.633   3.492  11.502  1.5604  1.0041  0.1768
 6301TIP3    H240319   4.759   3.536  11.431  0.5473  1.3879 -1.4413
 6302TIP3   OH240320   2.075   4.759  13.799  0.1366 -0.7637 -0.1663
 6302TIP3    H140321   2.057   4.696  13.870 -0.7626  1.1377  1.3823
 6302TIP3    H240322   2.170   4.769  13.800  0.1467 -0.8524  0.7236
 6303TIP3   OH240323   2.028   0.927  14.905  0.5828 -0.2562 -0.2849
 6303TIP3    H140324   2.019   0.889  14.992 -1.0920 -0.1706 -0.3758
 6303TIP3    H240325   2.014   0.854  14.845  2.8797 -0.5546 -0.5417
 6304TIP3   OH240326   4.947   0.950   0.402  0.3486 -0.0358 -1.1045
 6304TIP3    H140327   4.947   0.864   0.442  2.8652 -0.4101 -1.7720
 6304TIP3    H240328   4.873   0.995   0.443  0.0660 -1.8810  0.5748
 6305TIP3   OH240329   1.470   1.916   5.283  0.3945  0.4804 -0.2145
 6305TIP3    H140330   1.426   1.856   5.222  0.1818  0.4488 -0.0318
 6305TIP3    H240331   1.481   1.866   5.363  0.4945  0.5874 -0.1610
 6306TIP3   OH240332   3.045   3.604  12.392 -0.2159  0.5521  0.2855
 6306TIP3    H140333   2.962   3.582  12.349  0.1081  0.5286 -0.3365
 6306TIP3    H240334   3.107   3.614  12.320  0.2703  0.7959  0.7362
 6307TIP3   OH240335   6.268   4.377  10.232  0.4636  0.1953  0.3253
 6307TIP3    H140336   6.304   4.427  10.159  0.8555 -0.0647  0.3413
 6307TIP3    H240337   6.339   4.319  10.260  1.1132  1.8327  2.3570
 6308TIP3   OH240338   3.098   5.836  14.115 -0.5183  0.3828 -0.1786
 6308TIP3    H140339   3.070   5.887  14.191 -1.2355  1.5097 -1.1790
 6308TIP3    H240340   3.033   5.765  14.108 -1.2008  1.0278 -0.4908
 6309TIP3   OH240341   1.488   5.772  13.345  0.2855 -0.3983  0.2576
 6309TIP3    H140342   1.457   5.816  13.424  1.8415  0.2552  0.5389
 6309TIP3    H240343   1.521   5.688  13.375  1.1810 -0.0147  0.3640
 6310TIP3   OH240344   3.694   4.372  11.963  0.8860 -0.2151  0.0100
 6310TIP3    H140345   3.709   4.277  11.962  1.8094 -0.0737 -1.4567
 6310TIP3    H240346   3.712   4.398  12.053 -0.6585 -1.6022  0.7830
 6311TIP3   OH240347   4.913   5.111  15.946 -0.4255 -0.7351  0.3027
 6311TIP3    H140348   4.903   5.146  16.035 -1.0572 -1.2801  0.4542
 6311TIP3    H240349   4.920   5.016  15.958  0.6348 -0.7238 -0.1548
 6312TIP3   OH240350   2.426   6.568  14.693 -0.3521 -0.5270 -0.2878
 6312TIP3    H140351   2.483   6.521  14.633  0.9625  0.6220  0.0232
 6312TIP3    H240352   2.378   6.630  14.638  2.4812  2.1497 -0.0495
 6313TIP3   OH240353   0.548   0.367  11.735 -0.3950  0.0956 -0.1837
 6313TIP3    H140354   0.459   0.334  11.747 -0.1745 -0.8979 -1.0554
 6313TIP3    H240355   0.589   0.360  11.821 -1.1871  0.6851  0.2543
 6314TIP3   OH240356   5.409   0.336  12.580 -0.0265 -0.0315 -0.1906
 6314TIP3    H140357   5.437   0.427  12.571 -0.4086 -0.1041 -3.1820
 6314TIP3    H240358   5.468   0.287  12.524 -1.0785 -1.3408 -0.2137
 6315TIP3   OH240359   2.598   1.177   0.424 -0.2368 -0.2705  0.1618
 6315TIP3    H140360   2.582   1.268   0.399  0.3282 -0.6387 -1.6969
 6315TIP3    H240361   2.523   1.128   0.390 -0.8088 -0.4544  1.6248
 6316TIP3   OH240362   2.771   4.279   1.174  0.3390 -0.1685  0.1159
 6316TIP3    H140363   2.744   4.277   1.266 -0.4744 -2.5103 -0.0938
 6316TIP3    H240364   2.862   4.307   1.177  0.3621 -0.2788  1.6554
 6317TIP3   OH240365   4.721   5.714   5.547  0.3726  0.5584  0.2017
 6317TIP3    H140366   4.692   5.652   5.480  1.7279 -0.4329  0.4997
 6317TIP3    H240367   4.815   5.720   5.536  0.4119  1.7280  0.9140
 6318TIP3   OH240368   2.226   4.225   2.838 -0.0607  0.2280  0.4075
 6318TIP3    H140369   2.307   4.264   2.870  0.2207 -1.0261  1.2778
 6318TIP3    H240370   2.157   4.266   2.891 -0.2285  2.5545 -1.4680
 6319TIP3   OH240371   6.672   6.267  11.304 -0.5062  0.4817  0.0340
 6319TIP3    H140372   6.620   6.192  11.332 -2.2154  2.5894  2.9728
 6319TIP3    H240373   6.619   6.309  11.236  0.5391 -0.9200 -1.7558
 6320TIP3   OH240374   5.769   4.286   1.210 -0.1736  0.1570  0.4057
 6320TIP3    H140375   5.847   4.239   1.181 -1.8093 -1.7280 -1.2868
 6320TIP3    H240376   5.748   4.248   1.295 -0.7063 -1.2648 -0.3365
 6321TIP3   OH240377   2.449   5.572   4.887 -0.2300  0.4390  0.1111
 6321TIP3    H140378   2.377   5.513   4.910  0.2066  0.0166  0.3969
 6321TIP3    H240379   2.499   5.582   4.968  0.0642  0.6882 -0.1001
 6322TIP3   OH240380   1.198   2.424  16.173 -0.2995 -0.1892 -0.3107
 6322TIP3    H140381   1.195   2.390  16.084  1.7994  0.7202 -0.7907
 6322TIP3    H240382   1.222   2.349  16.227 -0.3323 -0.4648 -0.6771
 6323TIP3   OH240383   2.230   5.561  16.901  0.1563 -0.1218  0.3944
 6323TIP3    H140384   2.288   5.578  16.828 -0.8856 -0.1280 -0.4618
 6323TIP3    H240385   2.220   5.466  16.903  1.3955 -0.2634  1.5429
 6324TIP3   OH240386   3.932   4.985  12.141  0.5212 -0.4698  0.1982
 6324TIP3    H140387   3.973   4.909  12.182 -0.7902 -1.1631  0.3128
 6324TIP3    H240388   4.004   5.038  12.109  1.5044 -1.0932  1.3229
 6325TIP3   OH240389   4.758   6.647   4.841 -0.1185 -0.2440 -1.0848
 6325TIP3    H140390   4.749   6.553   4.858 -1.4436 -0.2026 -1.4877
 6325TIP3    H240391   4.759   6.686   4.928  0.8165 -0.6401 -0.8984
 6326TIP3   OH240392   2.347   1.427  15.351 -0.1368  0.5558  0.7392
 6326TIP3    H140393   2.283   1.493  15.325  0.0124  0.0291 -1.1712
 6326TIP3    H240394   2.432   1.471  15.342 -0.0316  0.1434 -0.6184
 6327TIP3   OH240395   1.709   0.630   3.633  0.1675 -0.1657 -0.1417
 6327TIP3    H140396   1.697   0.688   3.708 -0.3346 -1.4216  0.7763
 6327TIP3    H240397   1.779   0.570   3.659  0.8744  0.1650 -1.1883
 6328TIP3   OH240398   3.322   4.564  13.198  0.4859 -0.0282 -0.4916
 6328TIP3    H140399   3.353   4.624  13.265  0.9239 -0.9324  0.1279
 6328TIP3    H240400   3.291   4.487  13.246  1.0968 -0.8247 -1.3252
 6329TIP3   OH240401   1.487   1.971   6.452  0.6098  0.4321  0.4036
 6329TIP3    H140402   1.423   2.034   6.418  0.2896 -0.2974 -0.3746
 6329TIP3    H240403   1.467   1.966   6.546 -0.8305 -0.1438  0.0970
 6330TIP3   OH240404   3.950   5.868   4.456 -0.5669  0.1677 -0.1535
 6330TIP3    H140405   3.987   5.957   4.455  0.5020 -0.2612 -0.6629
 6330TIP3    H240406   3.866   5.878   4.501  1.0667  0.8542  3.1213
 6331TIP3   OH240407   4.482   5.000   4.963 -0.4699  0.4077 -0.3633
 6331TIP3    H140408   4.548   5.018   5.030 -1.4871 -1.2778  1.2045
 6331TIP3    H240409   4.477   4.904   4.959 -3.7106  0.4070  0.6140
 6332TIP3   OH240410   4.551   5.021  14.384 -0.2139  0.7636 -0.1215
 6332TIP3    H140411   4.632   4.981  14.417 -0.3211  0.8663  0.2690
 6332TIP3    H240412   4.539   5.099  14.438 -2.0270 -0.6739  1.7054
 6333TIP3   OH240413   2.498   4.261   5.319 -0.2615  0.1937  0.3304
 6333TIP3    H140414   2.535   4.343   5.287 -1.9857  0.4130 -1.2414
 6333TIP3    H240415   2.556   4.194   5.283 -0.0620  0.6284 -0.1782
 6334TIP3   OH240416   3.263   1.461  16.862 -0.6823 -0.3647  0.2019
 6334TIP3    H140417   3.228   1.402  16.795  0.6309 -0.5778 -0.3469
 6334TIP3    H240418   3.298   1.403  16.929 -1.2576 -0.1625  0.6814
 6335TIP3   OH240419   6.085   6.740   0.059 -0.3270  0.3123 -0.0998
 6335TIP3    H140420   6.154   6.807   0.051  0.3685 -0.3517  0.2178
 6335TIP3    H240421   6.005   6.791   0.074 -0.0450  1.1300 -1.2098
 6336TIP3   OH240422   1.577   3.270   1.184  0.0829 -0.0952 -0.2191
 6336TIP3    H140423   1.568   3.364   1.198  1.5048 -0.1443  1.3892
 6336TIP3    H240424   1.605   3.261   1.093 -2.4099  0.8259 -1.1738
 6337TIP3   OH240425   2.556   6.520   2.950  0.0811  0.1250  0.2296
 6337TIP3    H140426   2.584   6.561   2.868 -1.1761 -0.2832 -0.4377
 6337TIP3    H240427   2.636   6.488   2.990  0.6211 -0.7373 -1.4488
 6338TIP3   OH240428   3.532   4.340   4.172 -0.0824 -0.4644 -0.1302
 6338TIP3    H140429   3.593   4.273   4.139 -0.1991  0.0062 -1.3492
 6338TIP3    H240430   3.578   4.423   4.159 -0.2031 -0.2367  0.7804
 6339TIP3   OH240431   0.464   0.038  17.314 -0.7254  0.1292  0.0670
 6339TIP3    H140432   0.485  -0.040  17.364 -2.9792 -0.1170  0.7453
 6339TIP3    H240433   0.547   0.066  17.276  0.5312 -1.2897  1.6538
 6340TIP3   OH240434   0.786   5.214   0.160  0.2053  0.0431  0.2226
 6340TIP3    H140435   0.836   5.283   0.115 -0.5869 -0.5429 -1.6743
 6340TIP3    H240436   0.819   5.132   0.122 -0.0373 -0.5272  1.2234
 6341TIP3   OH240437   3.796   0.842  14.025  0.3252 -0.1429  0.5748
 6341TIP3    H140438   3.833   0.863  14.111  1.5731 -0.7931  0.2284
 6341TIP3    H240439   3.825   0.752  14.008 -0.0053 -0.0654 -0.4638
 6342TIP3   OH240440   1.212   4.056   5.309  0.1918  0.9314  0.7449
 6342TIP3    H140441   1.301   4.032   5.284 -1.0951 -3.1456 -0.7352
 6342TIP3    H240442   1.191   4.131   5.253  1.4194 -0.6724 -2.1108
 6343TIP3   OH240443   3.779   2.574   2.782 -0.1557 -0.3867 -0.2077
 6343TIP3    H140444   3.855   2.555   2.838  0.2891  0.2403 -0.5806
 6343TIP3    H240445   3.704   2.570   2.841  0.0943 -1.5905  0.0554
 6344TIP3   OH240446   6.739   3.827   4.191  0.0843 -0.5212 -0.4670
 6344TIP3    H140447   6.677   3.876   4.245 -0.8548 -1.4404 -0.6948
 6344TIP3    H240448   6.810   3.890   4.174  0.1088 -0.0108  1.2849
 6345TIP3   OH240449   2.754   2.423  14.476  0.7657  0.0124 -0.4701
 6345TIP3    H140450   2.722   2.391  14.391 -1.5054  2.3161 -0.6283
 6345TIP3    H240451   2.813   2.495  14.453  0.4472  0.3894 -0.1208
 6346TIP3   OH240452   0.006   3.590   0.180 -0.7878  0.0019 -0.2506
 6346TIP3    H140453   0.072   3.585   0.111 -1.2477  1.2382 -0.8220
 6346TIP3    H240454  -0.043   3.670   0.160 -1.5261 -0.1122  0.9886
 6347TIP3   OH240455   1.466   5.865   2.144  0.6534  0.5470  0.1994
 6347TIP3    H140456   1.374   5.872   2.166  0.6295  1.6877 -0.1936
 6347TIP3    H240457   1.504   5.949   2.170  1.6850 -0.0870  0.8144
 6348TIP3   OH240458   3.938   1.654  14.051  0.0525 -0.4406 -0.1051
 6348TIP3    H140459   3.888   1.734  14.042 -1.1483 -1.1540  0.0654
 6348TIP3    H240460   4.001   1.673  14.121  2.0858  1.4471 -2.2713
 6349TIP3   OH240461   3.896   3.047  11.300  0.9325  0.4503  0.4222
 6349TIP3    H140462   3.936   3.098  11.229  2.9483 -1.8844 -0.2595
 6349TIP3    H240463   3.969   3.027  11.359 -0.1207 -0.1986  1.5442
 6350TIP3   OH240464   3.887   2.966  13.940 -0.0987 -0.0136  0.4739
 6350TIP3    H140465   3.937   3.042  13.909  0.1166 -0.2236  0.3119
 6350TIP3    H240466   3.796   2.996  13.937 -0.0354  0.1465  0.1540
 6351TIP3   OH240467   2.623   2.820  11.379  0.4328  0.1923  0.0187
 6351TIP3    H140468   2.653   2.844  11.467  3.1109  0.9049 -0.9679
 6351TIP3    H240469   2.618   2.725  11.381  2.2519  0.0663  0.4903
 6352TIP3   OH240470   4.801   4.873  14.514  0.1758  0.0446 -0.2497
 6352TIP3    H140471   4.789   4.928  14.591 -1.4236 -2.5983  1.5613
 6352TIP3    H240472   4.862   4.805  14.543 -1.4455 -1.7331 -0.7903
 6353TIP3   OH240473   3.697   6.317  14.619 -0.0339  0.2233 -0.0623
 6353TIP3    H140474   3.689   6.228  14.655  0.3361  0.0553 -0.3796
 6353TIP3    H240475   3.707   6.373  14.696 -0.1615 -0.0258  0.1379
 6354TIP3   OH240476   3.888   1.869   5.297  0.6559 -0.1457  0.4074
 6354TIP3    H140477   3.932   1.832   5.373  0.2383 -1.2016  0.1640
 6354TIP3    H240478   3.830   1.936   5.332  0.6917 -0.4120  0.9797
 6355TIP3   OH240479   4.401   4.124  17.406 -0.0323 -0.3692 -0.4873
 6355TIP3    H140480   4.427   4.060  17.340 -0.1036  2.1780 -3.1869
 6355TIP3    H240481   4.310   4.146  17.384  0.8596  2.7477 -1.6426
 6356TIP3   OH240482   0.695   0.961  11.006 -0.1004  0.1723 -0.0108
 6356TIP3    H140483   0.673   0.947  10.914  0.5900  0.5579 -0.2367
 6356TIP3    H240484   0.771   1.019  11.004  0.6525 -0.7638  0.7604
 6357TIP3   OH240485   3.720   6.303   2.667  0.3616 -0.1450 -0.2003
 6357TIP3    H140486   3.814   6.308   2.680  0.1850 -1.2998  2.0543
 6357TIP3    H240487   3.683   6.308   2.755 -1.5293 -1.8871 -0.8079
 6358TIP3   OH240488   6.057   4.349   0.792 -0.1826 -0.8175 -0.1264
 6358TIP3    H140489   5.980   4.360   0.847 -0.7684  0.6962 -1.1980
 6358TIP3    H240490   6.124   4.404   0.833 -0.4269 -0.1843 -0.5780
 6359TIP3   OH240491   6.168   6.247  11.148 -0.2873 -0.0839 -0.4352
 6359TIP3    H140492   6.081   6.286  11.144 -0.7985 -1.0664  0.5340
 6359TIP3    H240493   6.227   6.321  11.165 -0.9680  0.5347 -0.7143
 6360TIP3   OH240494   3.136   0.654   4.475 -0.4380  0.1837  0.2298
 6360TIP3    H140495   3.219   0.620   4.510 -0.0560  2.0698  1.2818
 6360TIP3    H240496   3.114   0.593   4.404  1.0876 -1.1965  0.8559
 6361TIP3   OH240497   6.213   0.763  11.446 -0.3821  0.6251  0.7807
 6361TIP3    H140498   6.124   0.772  11.412 -0.6946 -1.2367  1.0217
 6361TIP3    H240499   6.258   0.708  11.382  0.0363 -0.0100  1.5982
 6362TIP3   OH240500   1.539   6.143  15.714 -0.1453  0.2921 -0.0913
 6362TIP3    H140501   1.485   6.187  15.649 -1.0496 -0.1345  0.3563
 6362TIP3    H240502   1.518   6.051  15.704  0.2107  0.1602  0.3530
 6363TIP3   OH240503   4.985   0.076  13.179 -0.0597  0.0656  0.1422
 6363TIP3    H140504   5.016  -0.001  13.227  0.6623  0.1322 -0.2055
 6363TIP3    H240505   4.916   0.041  13.122  2.0775 -0.9184 -2.0247
 6364TIP3   OH240506   5.563   6.387   1.692 -0.0696  0.3768  0.5540
 6364TIP3    H140507   5.633   6.450   1.677  1.3715 -0.9545  1.3703
 6364TIP3    H240508   5.608   6.307   1.719 -1.9152 -0.4729  1.3073
 6365TIP3   OH240509   0.577   4.674   1.878 -0.5657 -0.2910  0.2443
 6365TIP3    H140510   0.666   4.649   1.852 -0.9954 -3.0801  1.1101
 6365TIP3    H240511   0.586   4.762   1.913  2.0244 -0.8076  1.0868
 6366TIP3   OH240512   2.664   0.671  17.001  0.5983  0.5045  0.4323
 6366TIP3    H140513   2.649   0.755  17.044  0.5303  1.2577 -0.9880
 6366TIP3    H240514   2.758   0.669  16.986  0.7906 -0.2761  1.5839
 6367TIP3   OH240515   0.024   3.624   3.040  0.5771  0.1306 -0.6776
 6367TIP3    H140516   0.018   3.718   3.055 -2.4934  0.1612 -1.5342
 6367TIP3    H240517   0.026   3.585   3.127 -0.6396  0.9225 -0.2750
 6368TIP3   OH240518   3.348   6.029   5.689  0.1620  0.2472 -0.6451
 6368TIP3    H140519   3.306   6.113   5.708 -1.7343 -0.7360 -0.2118
 6368TIP3    H240520   3.314   5.969   5.756 -0.9039 -1.5592 -2.6539
 6369TIP3   OH240521   6.161   3.765  11.188 -0.4703  0.4578 -0.3548
 6369TIP3    H140522   6.164   3.671  11.203  0.7506 -0.2553 -4.0567
 6369TIP3    H240523   6.069   3.789  11.202 -0.8803 -1.3422  0.2206
 6370TIP3   OH240524   1.019   1.195  12.953  0.4080 -0.1288 -0.3592
 6370TIP3    H140525   0.933   1.168  12.923  0.6140  1.1317 -2.2689
 6370TIP3    H240526   1.002   1.270  13.011  0.2225  0.4835 -1.1892
 6371TIP3   OH240527   4.386   3.876  16.234 -0.2890 -0.1170 -0.2012
 6371TIP3    H140528   4.405   3.848  16.323  1.0385  0.1662 -0.3829
 6371TIP3    H240529   4.395   3.797  16.181  2.6609  0.3978 -0.5973
 6372TIP3   OH240530   1.437   2.189  13.481  0.4499 -0.1732 -0.6431
 6372TIP3    H140531   1.389   2.125  13.533  0.6771  0.1906  0.0204
 6372TIP3    H240532   1.527   2.185  13.515  0.6239 -0.0078 -1.0784
 6373TIP3   OH240533   1.861   1.186   5.439 -0.1845  0.3394 -0.1109
 6373TIP3    H140534   1.915   1.254   5.479 -0.8582  0.7436  0.1255
 6373TIP3    H240535   1.839   1.220   5.353  1.0538 -0.4223 -0.7683
 6374TIP3   OH240536   4.003   3.895   4.931 -0.4020 -0.2928 -0.2050
 6374TIP3    H140537   3.955   3.820   4.965 -0.7510  0.1772  0.3604
 6374TIP3    H240538   3.970   3.908   4.842 -2.1320  0.6897  0.5366
 6375TIP3   OH240539   5.212   0.547  10.987 -0.3556  0.4432  0.0976
 6375TIP3    H140540   5.238   0.455  10.982  1.1680  0.8302  0.5981
 6375TIP3    H240541   5.159   0.553  11.066  1.0385  0.3197  1.0711
 6376TIP3   OH240542   6.248   0.930   5.094  0.0880 -0.0371 -0.2485
 6376TIP3    H140543   6.174   0.883   5.133  0.2160 -0.2613 -0.2708
 6376TIP3    H240544   6.265   1.002   5.155 -0.9084  0.7314 -0.8611
 6377TIP3   OH240545   4.488   4.080   3.935  0.4200  0.2451 -0.5982
 6377TIP3    H140546   4.447   4.015   3.994  1.6961 -1.1134 -1.1426
 6377TIP3    H240547   4.553   4.124   3.990  0.9423 -0.3590 -0.7102
 6378TIP3   OH240548   0.418   6.574  15.846 -0.0097  0.2763 -0.3228
 6378TIP3    H140549   0.346   6.520  15.813  1.7786 -1.4575 -1.6165
 6378TIP3    H240550   0.415   6.653  15.793  0.2163 -0.6359 -1.7296
 6379TIP3   OH240551   5.346   1.916  13.909  0.1550 -0.2406  0.4089
 6379TIP3    H140552   5.332   1.951  13.998  1.3112 -1.9343  1.3047
 6379TIP3    H240553   5.415   1.971  13.872  0.1952  0.0063  0.8430
 6380TIP3   OH240554   5.413   4.596  12.731 -0.0337 -0.5259  0.5994
 6380TIP3    H140555   5.351   4.524  12.715 -0.2222 -0.4666  1.0358
 6380TIP3    H240556   5.484   4.581  12.669 -1.6018  0.7868 -1.6851
 6381TIP3   OH240557   4.768   3.052   6.470 -0.5950  0.9244  0.0593
 6381TIP3    H140558   4.831   3.007   6.526  0.7865 -0.0562 -2.1478
 6381TIP3    H240559   4.697   3.077   6.529  1.7560  1.9864  2.6602
 6382TIP3   OH240560   4.704   2.842   0.319 -0.2210 -0.3825 -0.1039
 6382TIP3    H140561   4.762   2.785   0.269 -0.2116 -0.4782  0.0161
 6382TIP3    H240562   4.655   2.782   0.376 -0.1096 -0.2556  0.1222
 6383TIP3   OH240563   2.081   4.351   3.021 -0.1735 -0.5845 -0.0813
 6383TIP3    H140564   2.002   4.344   3.075 -0.2142 -0.5350 -0.1338
 6383TIP3    H240565   2.146   4.391   3.078  0.5605 -2.8365  0.7556
 6384TIP3   OH240566   2.947   0.628  16.816 -0.6856 -0.4970 -0.1615
 6384TIP3    H140567   2.893   0.605  16.741 -0.0125  0.3760 -0.9467
 6384TIP3    H240568   3.036   0.634  16.780 -0.4637  0.6911  0.5400
 6385TIP3   OH240569   4.475   0.346  16.106  0.4708 -0.0794  0.3888
 6385TIP3    H140570   4.403   0.407  16.090  0.5581  0.1617  0.8910
 6385TIP3    H240571   4.441   0.261  16.078  0.4341  0.2321 -0.5452
 6386TIP3   OH240572   2.914   5.437  11.256 -0.1067  0.2305 -0.1898
 6386TIP3    H140573   2.963   5.425  11.175  3.0845 -1.0838  1.7141
 6386TIP3    H240574   2.859   5.359  11.262  0.9155 -0.5403 -0.3627
 6387TIP3   OH240575   5.718   2.970  16.432 -0.5777  0.4377 -0.1646
 6387TIP3    H140576   5.729   2.906  16.503  0.0793 -0.6057 -1.1648
 6387TIP3    H240577   5.718   3.055  16.476  0.7642 -0.1240  0.9937
 6388TIP3   OH240578   5.857   3.562   4.875 -0.0589  0.2459 -0.3716
 6388TIP3    H140579   5.849   3.653   4.905  1.2715 -0.2713  1.7954
 6388TIP3    H240580   5.881   3.514   4.954 -3.7874 -2.5558 -0.6910
 6389TIP3   OH240581   1.909   1.700   5.505  1.0406 -0.2843  0.0691
 6389TIP3    H140582   1.942   1.790   5.516  1.1266 -0.6414  4.6366
 6389TIP3    H240583   1.983   1.645   5.532  0.7044 -1.7786 -1.8595
 6390TIP3   OH240584   3.405   1.612   1.540  0.1722 -0.7469 -0.3510
 6390TIP3    H140585   3.366   1.686   1.586  0.6975  1.1925 -2.8003
 6390TIP3    H240586   3.336   1.579   1.483  0.9555  0.3239 -1.9966
 6391TIP3   OH240587   3.900   5.136   2.043  0.1563  0.0419  0.4917
 6391TIP3    H140588   3.906   5.083   2.122  2.1981 -0.3103  0.1413
 6391TIP3    H240589   3.885   5.225   2.075 -0.7759 -0.3376  1.1725
 6392TIP3   OH240590   2.175   6.454  16.385  0.1722 -0.0171  0.0997
 6392TIP3    H140591   2.149   6.385  16.446  1.0716 -0.3363  0.1293
 6392TIP3    H240592   2.094   6.504  16.370 -0.2989 -0.5773  0.7127
 6393TIP3   OH240593   1.416   5.445  14.078  0.2450 -0.0751  0.0723
 6393TIP3    H140594   1.503   5.487  14.081  1.1874 -1.5394 -2.7495
 6393TIP3    H240595   1.431   5.357  14.111 -0.0059 -0.4785 -0.8397
 6394TIP3   OH240596   4.812   2.149   2.032 -0.0359 -0.0606 -0.1389
 6394TIP3    H140597   4.784   2.240   2.048 -0.8937 -0.0149 -1.7024
 6394TIP3    H240598   4.753   2.118   1.963  0.1052 -1.8941  0.5234
 6395TIP3   OH240599   2.842   3.603   3.027 -0.3485 -0.2161  0.1507
 6395TIP3    H140600   2.763   3.551   3.008 -0.0829 -0.2474 -0.9267
 6395TIP3    H240601   2.901   3.541   3.069 -0.8426 -0.2262  0.8550
 6396TIP3   OH240602   5.360   1.501  16.960  0.2282  0.1955  0.6548
 6396TIP3    H140603   5.388   1.510  16.868  0.0971 -0.2236  0.5716
 6396TIP3    H240604   5.317   1.585  16.980 -0.9113 -0.1756 -0.0797
 6397TIP3   OH240605   6.348   1.744   2.329  0.0684 -0.1652 -0.4411
 6397TIP3    H140606   6.335   1.687   2.405 -1.7757  0.8066  0.0323
 6397TIP3    H240607   6.310   1.696   2.256 -1.8934  0.5576  0.0355
 6398TIP3   OH240608   4.120   2.721   4.119  0.0140  0.7639  0.4716
 6398TIP3    H140609   4.178   2.766   4.058  0.7503  0.4927  0.9497
 6398TIP3    H240610   4.137   2.763   4.204  0.1015  0.1592  0.7629
 6399TIP3   OH240611   1.980   4.302  15.140  0.5612 -0.3465  0.4338
 6399TIP3    H140612   2.070   4.269  15.138  0.6988 -0.0113  0.9480
 6399TIP3    H240613   1.926   4.223  15.145  0.8124 -0.5560 -0.0100
 6400TIP3   OH240614   0.747   4.163  13.274 -0.1941 -0.1484  0.2475
 6400TIP3    H140615   0.708   4.124  13.352 -2.3099  0.7873 -0.2591
 6400TIP3    H240616   0.767   4.088  13.218 -2.0509 -0.6924  0.2375
 6401TIP3   OH240617   3.139   5.420  12.014 -0.1155  0.1824  0.2802
 6401TIP3    H140618   3.126   5.382  12.100 -1.5117  0.8366  0.3721
 6401TIP3    H240619   3.052   5.447  11.985  0.1751 -0.7735 -1.6979
 6402TIP3   OH240620   4.444   4.187  13.272  0.8212  0.2664 -0.1324
 6402TIP3    H140621   4.385   4.242  13.323  1.6518  0.4897  0.6003
 6402TIP3    H240622   4.396   4.170  13.191  0.1524  1.2447  0.0401
 6403TIP3   OH240623   4.757   4.308   2.935 -0.4973  0.3540  0.5033
 6403TIP3    H140624   4.819   4.236   2.945  0.3340  0.7558 -1.3594
 6403TIP3    H240625   4.805   4.385   2.966 -0.0187  0.6681 -0.9519
 6404TIP3   OH240626   3.574   3.594  10.870  0.0006 -0.6676 -0.1492
 6404TIP3    H140627   3.649   3.542  10.900  1.8658  1.4506 -0.8664
 6404TIP3    H240628   3.572   3.582  10.775  0.3344  0.3685 -0.2994
 6405TIP3   OH240629   2.582   5.220  14.731  0.2924 -0.1512  0.2742
 6405TIP3    H140630   2.629   5.264  14.661  1.0977 -0.3777  0.6586
 6405TIP3    H240631   2.649   5.169  14.777 -0.5872 -1.6714 -0.0761
 6406TIP3   OH240632   0.640   1.838   3.912 -0.0540  0.3833 -0.3457
 6406TIP3    H140633   0.706   1.786   3.866 -0.1421  0.9096 -1.0851
 6406TIP3    H240634   0.659   1.825   4.005  0.9594  0.3617 -0.5453
 6407TIP3   OH240635   2.097   2.171   2.820  0.3667 -0.1027 -0.5279
 6407TIP3    H140636   2.104   2.094   2.763  0.8552 -0.9682  0.6506
 6407TIP3    H240637   2.146   2.147   2.899 -0.3123  1.0360  0.2754
 6408TIP3   OH240638   0.215   3.755  11.379 -0.2154 -0.1556  0.1191
 6408TIP3    H140639   0.216   3.841  11.422  0.8339  0.3358 -0.8156
 6408TIP3    H240640   0.298   3.752  11.331 -1.3022 -0.6705 -1.8358
 6409TIP3   OH240641   6.183   2.209   4.226  0.7970 -0.3082  0.6621
 6409TIP3    H140642   6.100   2.224   4.182  0.5001  1.6445  1.7864
 6409TIP3    H240643   6.218   2.130   4.185 -0.6574 -0.0373 -1.2128
 6410TIP3   OH240644   0.688   3.171   4.620  0.5967 -0.3423  0.0932
 6410TIP3    H140645   0.643   3.202   4.542  0.3631 -0.0053  0.3552
 6410TIP3    H240646   0.639   3.210   4.693  0.9549 -0.4541  0.3993
 6411TIP3   OH240647   4.151   1.888  16.396 -0.0778  0.0662 -0.1087
 6411TIP3    H140648   4.244   1.904  16.381  0.0114  0.4899  0.8805
 6411TIP3    H240649   4.117   1.865  16.309  1.0364 -0.5707 -0.4003
 6412TIP3   OH240650   3.707   4.273   3.920  0.0767  0.2837  0.6179
 6412TIP3    H140651   3.743   4.283   4.009  1.1830  0.4224  0.1652
 6412TIP3    H240652   3.712   4.360   3.882  1.0399 -0.0752 -0.1055
 6413TIP3   OH240653   0.851   3.412  13.829 -0.1453 -0.2213 -0.5606
 6413TIP3    H140654   0.809   3.360  13.897 -2.6826  1.3693 -0.7713
 6413TIP3    H240655   0.837   3.503  13.856  1.7082  0.4094 -1.5656
 6414TIP3   OH240656   2.601   3.533   1.263  0.6111  0.0759 -0.0618
 6414TIP3    H140657   2.684   3.543   1.310  0.6685 -0.6844  0.0086
 6414TIP3    H240658   2.574   3.623   1.242  0.7914  0.4066  1.0656
 6415TIP3   OH240659   1.709   6.489   1.335 -0.3207  0.0341  0.3649
 6415TIP3    H140660   1.739   6.508   1.424 -1.2363  0.8795  0.5186
 6415TIP3    H240661   1.731   6.568   1.285 -2.2499  0.7290  0.5034
 6416TIP3   OH240662   1.059   5.938   2.852 -0.2254  0.3526  0.6483
 6416TIP3    H140663   0.976   5.948   2.805 -0.3086 -0.3933  0.6192
 6416TIP3    H240664   1.111   5.880   2.796  0.0667  0.2821  0.9910
 6417TIP3   OH240665   1.423   0.057   4.902 -0.4338 -0.3403 -0.0015
 6417TIP3    H140666   1.399   0.115   4.975  0.3337  1.5753 -1.2121
 6417TIP3    H240667   1.498   0.008   4.934 -1.8598 -1.6662  1.4985
 6418TIP3   OH240668   6.737   1.024   2.856  0.1767  0.0849 -0.2694
 6418TIP3    H140669   6.816   0.972   2.873  0.7951  0.9805 -0.3458
 6418TIP3    H240670   6.763   1.085   2.787 -0.6114  0.3423 -0.3426
 6419TIP3   OH240671   3.975   4.585  15.943  0.2557 -0.0080 -0.4117
 6419TIP3    H140672   4.024   4.518  15.896  1.7927  0.6678  0.1588
 6419TIP3    H240673   3.964   4.548  16.031  3.9409  1.6184  0.9526
 6420TIP3   OH240674   1.261   5.446   2.732  0.4070  0.0269 -0.3003
 6420TIP3    H140675   1.296   5.370   2.780 -0.9091  0.2457  1.0792
 6420TIP3    H240676   1.250   5.415   2.643 -0.5661 -1.5889  0.3404
 6421TIP3   OH240677   2.004   5.764   4.283  0.0094 -0.2733 -0.5047
 6421TIP3    H140678   1.976   5.700   4.348 -0.7896 -0.6082 -1.1592
 6421TIP3    H240679   2.007   5.847   4.331 -1.6306 -0.3142 -0.2770
 6422TIP3   OH240680   1.089   0.153   1.346 -0.0845 -0.2090 -0.1807
 6422TIP3    H140681   1.153   0.196   1.290 -0.6973 -0.6910 -1.2828
 6422TIP3    H240682   1.019   0.217   1.357 -1.3095 -1.0699 -2.3650
 6423TIP3   OH240683   5.196   1.707  17.026 -0.2005  0.0016  0.1747
 6423TIP3    H140684   5.201   1.792  16.985  0.9917 -1.2578 -2.5383
 6423TIP3    H240685   5.154   1.723  17.110 -2.1249  2.8647 -1.1971
 6424TIP3   OH240686   0.530   0.274   1.525 -0.0409 -0.1059 -0.5797
 6424TIP3    H140687   0.537   0.178   1.519 -1.5880 -0.4860  1.8643
 6424TIP3    H240688   0.555   0.294   1.616 -3.2684  1.2880  0.1441
 6425TIP3   OH240689   3.102   0.985   0.200  0.1127 -0.8470 -1.1779
 6425TIP3    H140690   3.028   0.937   0.238  0.3749 -0.5312 -0.2458
 6425TIP3    H240691   3.178   0.932   0.221  0.2225 -0.8670 -1.6157
 6426TIP3   OH240692   4.096   2.227   3.888 -0.5509 -0.2602  0.2914
 6426TIP3    H140693   4.095   2.216   3.983 -3.2970  1.1142  0.5259
 6426TIP3    H240694   4.070   2.142   3.854  0.9350 -0.9096  0.6937
 6427TIP3   OH240695   3.171   0.933  15.461 -0.0733 -0.0167  0.0648
 6427TIP3    H140696   3.114   1.008  15.481 -0.2724  0.1923 -1.2136
 6427TIP3    H240697   3.192   0.896  15.547  0.5110  1.8502  0.8047
 6428TIP3   OH240698   2.595   0.299   2.886  0.1719  0.2176  0.1274
 6428TIP3    H140699   2.532   0.253   2.830  1.2856 -2.1344  0.6921
 6428TIP3    H240700   2.544   0.368   2.929 -1.9079 -1.2823  0.1820
 6429TIP3   OH240701   0.756   0.934  14.529  0.4662 -0.0300  0.3804
 6429TIP3    H140702   0.825   0.928  14.463  0.1188 -0.8845  0.0815
 6429TIP3    H240703   0.691   0.870  14.502 -0.4900  0.8070  0.6187
 6430TIP3   OH240704   2.680   2.431   3.507 -0.2680  0.3380  0.0665
 6430TIP3    H140705   2.713   2.506   3.457 -1.6753  0.5094 -0.6466
 6430TIP3    H240706   2.639   2.374   3.441 -0.3240 -0.4521  0.7668
 6431TIP3   OH240707   4.604   6.633  16.357 -0.4671 -0.8057  0.1627
 6431TIP3    H140708   4.633   6.717  16.320  0.4607 -1.9609 -1.9059
 6431TIP3    H240709   4.535   6.657  16.418 -0.8332  1.4184 -0.9994
 6432TIP3   OH240710   4.361   0.583   5.956 -0.0159 -0.0947  0.2546
 6432TIP3    H140711   4.382   0.498   5.995 -2.0853 -0.6974  0.1894
 6432TIP3    H240712   4.290   0.618   6.010  1.9565  2.5113  1.3854
 6433TIP3   OH240713   3.662   3.306  15.945 -0.4650  0.0861 -0.2615
 6433TIP3    H140714   3.608   3.262  16.011 -1.6721  3.2412  1.0604
 6433TIP3    H240715   3.752   3.281  15.966 -1.0882 -2.0352  0.0873
 6434TIP3   OH240716   1.659   4.648  15.499 -0.0897 -0.2439  0.3370
 6434TIP3    H140717   1.617   4.562  15.508  0.5875 -0.4162  2.4994
 6434TIP3    H240718   1.603   4.707  15.549  0.5183  0.1616  0.5440
 6435TIP3   OH240719   2.281   5.416   1.269  0.4795  0.0921  0.4305
 6435TIP3    H140720   2.218   5.388   1.202 -0.0788  1.0823  0.5109
 6435TIP3    H240721   2.244   5.385   1.351  0.5589 -0.1023  0.3935
 6436TIP3   OH240722   4.707   5.695  13.626  0.3232  0.8283  0.2873
 6436TIP3    H140723   4.746   5.614  13.594 -2.9227 -0.8301  0.1441
 6436TIP3    H240724   4.743   5.707  13.713  1.8408  0.0056 -0.1929
 6437TIP3   OH240725   5.405   3.701   5.704 -0.6044  0.3018  0.1752
 6437TIP3    H140726   5.457   3.733   5.630 -1.7549 -0.9443 -1.2328
 6437TIP3    H240727   5.363   3.779   5.739 -0.0666  0.9216 -0.5201
 6438TIP3   OH240728   0.614   0.442   5.168  0.0857 -0.2406 -0.3172
 6438TIP3    H140729   0.557   0.393   5.109 -0.0699 -0.2762 -0.1397
 6438TIP3    H240730   0.698   0.398   5.163  0.5313  0.7002 -1.7299
 6439TIP3   OH240731   4.503   2.578  11.795  0.1632  0.2557  0.3521
 6439TIP3    H140732   4.418   2.533  11.786 -0.3621  1.1808  0.5272
 6439TIP3    H240733   4.556   2.542  11.723  0.0693 -1.2753  1.0043
 6440TIP3   OH240734   6.627   0.732   4.909  0.0186  0.2088  0.8945
 6440TIP3    H140735   6.590   0.665   4.966  0.7052 -0.1790  0.8952
 6440TIP3    H240736   6.555   0.794   4.895 -1.1856 -1.3971 -0.5095
 6441TIP3   OH240737   0.579   2.208   5.734  0.2217 -0.0156 -0.0572
 6441TIP3    H140738   0.515   2.157   5.684 -1.3243  0.8088  0.9741
 6441TIP3    H240739   0.620   2.264   5.669 -2.3669  1.6674 -0.4150
 6442TIP3   OH240740   0.969   3.266   5.294 -0.1068 -0.3398 -0.1211
 6442TIP3    H140741   0.985   3.351   5.333 -0.9323  0.0981 -0.7042
 6442TIP3    H240742   1.034   3.259   5.223 -1.7939  1.0368 -1.8944
 6443TIP3   OH240743   4.962   2.070   3.164  0.3023 -0.3362 -0.2412
 6443TIP3    H140744   4.933   2.128   3.234  1.8065  2.6281 -1.8599
 6443TIP3    H240745   5.057   2.065   3.176  0.3151 -1.7464 -0.7374
 6444TIP3   OH240746   4.326   2.500   3.163  0.5099 -0.4197  0.9163
 6444TIP3    H140747   4.256   2.533   3.220  0.6482 -0.0493  0.8756
 6444TIP3    H240748   4.349   2.415   3.200  0.0965 -0.5072  0.9799
 6445TIP3   OH240749   6.732   6.588   4.050 -0.3351 -0.4826  0.7114
 6445TIP3    H140750   6.734   6.604   3.956 -1.4796  0.7153  0.8649
 6445TIP3    H240751   6.657   6.638   4.082  1.0492  0.5774  2.5237
 6446TIP3   OH240752   3.538   4.115   3.250  0.4070  0.0967  0.0472
 6446TIP3    H140753   3.570   4.079   3.167  1.1978  0.8316  0.0087
 6446TIP3    H240754   3.520   4.207   3.231 -0.3988  0.0308  0.4421
 6447TIP3   OH240755   4.693   1.904  13.420 -0.5458  0.1422 -0.3966
 6447TIP3    H140756   4.777   1.911  13.376 -1.6249 -0.0196 -2.6509
 6447TIP3    H240757   4.662   1.816  13.400 -2.0071  0.7777 -1.1839
 6448TIP3   OH240758   1.107   4.025  15.638 -0.7113  0.8283 -0.5611
 6448TIP3    H140759   1.090   3.961  15.706 -1.6648 -0.3588 -1.8580
 6448TIP3    H240760   1.027   4.079  15.636 -0.5473  1.0742 -0.5088
 6449TIP3   OH240761   4.232   5.342   1.104  0.0726  0.0955 -0.7317
 6449TIP3    H140762   4.278   5.263   1.134 -2.0096 -0.9619 -0.1258
 6449TIP3    H240763   4.165   5.357   1.171 -1.3326  0.7638 -2.2368
 6450TIP3   OH240764   4.517   1.991  14.563  0.0438  0.3071  0.5959
 6450TIP3    H140765   4.566   2.074  14.569  0.5253 -0.0048  1.1872
 6450TIP3    H240766   4.585   1.924  14.568 -0.0154 -0.1790 -2.8254
 6451TIP3   OH240767   4.371   0.489  12.435  0.2784  0.3884 -0.0305
 6451TIP3    H140768   4.346   0.574  12.473  1.5855  0.9560 -0.3865
 6451TIP3    H240769   4.341   0.425  12.500  0.1799  1.1776  0.7333
 6452TIP3   OH240770   3.258   4.357   4.209  0.3175 -0.6542  0.1185
 6452TIP3    H140771   3.351   4.352   4.187  0.7463 -1.2392  1.8862
 6452TIP3    H240772   3.230   4.266   4.216 -1.1893 -0.6011 -3.1642
 6453TIP3   OH240773   2.116   5.619  10.806  0.1716 -0.2436  0.0174
 6453TIP3    H140774   2.194   5.670  10.783 -0.9079  1.0960 -0.8748
 6453TIP3    H240775   2.129   5.595  10.897  2.4306 -1.5943 -0.5836
 6454TIP3   OH240776   1.590   6.219   5.830 -0.1600  0.1742  0.1883
 6454TIP3    H140777   1.620   6.310   5.838 -0.2830  0.2462 -0.1422
 6454TIP3    H240778   1.569   6.193   5.920  3.2580 -0.7173  0.8619
 6455TIP3   OH240779   6.676   1.672   3.584 -0.1115 -0.5766  0.2028
 6455TIP3    H140780   6.605   1.612   3.606  0.4962 -1.3249  0.1519
 6455TIP3    H240781   6.648   1.713   3.502 -1.4305  0.6976  1.2392
 6456TIP3   OH240782   1.131   3.319   0.579 -0.0765 -0.0968  0.4685
 6456TIP3    H140783   1.045   3.340   0.617  1.1751  2.4902  2.1473
 6456TIP3    H240784   1.128   3.224   0.566 -2.3537 -0.4469  2.6430
 6457TIP3   OH240785   6.470   2.827  11.459  0.4716  0.0197  0.1628
 6457TIP3    H140786   6.491   2.894  11.394  0.9245 -0.4798 -0.2114
 6457TIP3    H240787   6.554   2.805  11.499  0.3264 -0.3405  0.2721
 6458TIP3   OH240788   6.040   3.652  13.015  0.1342 -0.2902  0.0310
 6458TIP3    H140789   5.994   3.582  12.968 -0.3828 -0.7484  1.1889
 6458TIP3    H240790   6.011   3.732  12.973  0.0191 -0.7117 -0.7165
 6459TIP3   OH240791   0.085   3.294  11.076 -0.3802 -0.0779 -0.1500
 6459TIP3    H140792   0.003   3.333  11.108 -0.7762  0.3291 -1.5653
 6459TIP3    H240793   0.154   3.344  11.120 -0.8580 -0.5592  1.2198
 6460TIP3   OH240794   1.045   5.601  12.868 -0.1644 -0.7187 -0.4129
 6460TIP3    H140795   1.139   5.595  12.848 -0.2495 -2.1829 -0.4906
 6460TIP3    H240796   1.017   5.682  12.826  1.1996  0.1099  0.1939
 6461TIP3   OH240797   5.811   0.614  15.023 -0.4178  0.5864  0.3003
 6461TIP3    H140798   5.745   0.561  15.067  0.3220 -0.9366 -0.3385
 6461TIP3    H240799   5.819   0.693  15.077 -1.5041  0.0352  1.3181
 6462TIP3   OH240800   3.287   3.281   4.009  0.1385 -0.3944  0.1101
 6462TIP3    H140801   3.259   3.364   3.969 -0.9900  0.0586  1.7162
 6462TIP3    H240802   3.375   3.299   4.042 -0.3189  0.3760  0.9521
 6463TIP3   OH240803   0.423   3.387   0.343 -0.8229  0.1771  0.2439
 6463TIP3    H140804   0.490   3.317   0.343 -0.8293  0.1710  0.8447
 6463TIP3    H240805   0.473   3.468   0.345 -0.8048  0.2145 -0.8230
 6464TIP3   OH240806   4.857   5.285  13.776 -0.2870 -0.1639 -0.3868
 6464TIP3    H140807   4.869   5.192  13.762  2.9134  0.4605 -2.6239
 6464TIP3    H240808   4.803   5.314  13.702 -0.1206 -0.0357 -0.4589
 6465TIP3   OH240809   4.308   1.986  13.630 -0.0702  0.2723  0.0466
 6465TIP3    H140810   4.318   1.896  13.661 -1.3271  0.5037  1.2301
 6465TIP3    H240811   4.273   1.976  13.541 -0.2997 -0.4147  0.2005
 6466TIP3   OH240812   2.843   4.580   2.287  0.4842  0.1686  0.0133
 6466TIP3    H140813   2.914   4.519   2.266  2.5034  2.4853 -0.4141
 6466TIP3    H240814   2.789   4.582   2.208  1.6047  0.4868 -0.7701
 6467TIP3   OH240815   1.561   3.724  15.966 -0.2160 -0.1303 -0.4201
 6467TIP3    H140816   1.539   3.803  16.015  0.3462  0.6442 -1.3951
 6467TIP3    H240817   1.646   3.697  16.001 -0.6184 -0.5781  0.2327
 6468TIP3   OH240818   2.659   2.290  11.208  0.2509 -0.3748 -0.3948
 6468TIP3    H140819   2.581   2.274  11.156 -0.2690  0.1449  0.2038
 6468TIP3    H240820   2.668   2.385  11.208  0.4044 -0.3856  0.2219
 6469TIP3   OH240821   5.339   4.286   2.529  0.1450 -0.3200 -0.5151
 6469TIP3    H140822   5.428   4.316   2.508 -1.1402  2.1882 -3.0096
 6469TIP3    H240823   5.312   4.340   2.603  0.6755 -1.1822  0.3382
 6470TIP3   OH240824   4.183   3.595   3.898  0.6659  0.1803 -0.7608
 6470TIP3    H140825   4.195   3.660   3.829 -0.0900 -0.1464 -1.2164
 6470TIP3    H240826   4.208   3.640   3.979  3.2289  0.0396 -1.4015
 6471TIP3   OH240827   2.484   1.863   5.006 -0.1555  0.2740 -0.1825
 6471TIP3    H140828   2.468   1.904   5.091 -2.8504  1.7772 -1.2748
 6471TIP3    H240829   2.549   1.919   4.964  0.2209  0.2651  0.3757
 6472TIP3   OH240830   2.524   3.895   5.485 -0.5778 -0.0979 -0.3419
 6472TIP3    H140831   2.455   3.835   5.513 -0.6767 -0.3028 -1.0117
 6472TIP3    H240832   2.477   3.974   5.458 -0.7630 -0.9360 -2.7161
 6473TIP3   OH240833   1.230   1.962  17.276 -0.1967  0.1769 -0.0585
 6473TIP3    H140834   1.207   1.935  17.187  0.9844 -1.4929  0.0895
 6473TIP3    H240835   1.165   1.919  17.332  0.7820 -1.2513  0.0566
 6474TIP3   OH240836   2.096   5.966   2.202 -0.3247  0.0927 -0.3125
 6474TIP3    H140837   2.118   6.059   2.210  1.1779 -0.3168  0.8146
 6474TIP3    H240838   2.137   5.939   2.120  3.8847 -0.6659  1.7593
 6475TIP3   OH240839   6.092   0.581  15.104  0.4241  0.4370 -0.5301
 6475TIP3    H140840   6.161   0.529  15.063 -0.4389 -1.1168 -0.0934
 6475TIP3    H240841   6.016   0.568  15.048  0.2484  1.4662 -0.5499
 6476TIP3   OH240842   2.429   3.774   4.155 -0.0157  0.6753 -0.3188
 6476TIP3    H140843   2.336   3.793   4.169 -0.6217 -0.8161 -1.8752
 6476TIP3    H240844   2.450   3.818   4.072  0.3043 -0.0240 -0.6197
 6477TIP3   OH240845   3.385   5.384  14.565 -0.7910 -0.9261  0.1282
 6477TIP3    H140846   3.367   5.335  14.645  0.7503 -1.9041 -0.0805
 6477TIP3    H240847   3.401   5.317  14.498 -2.1053 -0.1322 -1.0517
 6478TIP3   OH240848   5.763   5.228   1.227 -0.6102 -0.0078  0.1926
 6478TIP3    H140849   5.738   5.264   1.313  0.0968  1.3957 -0.1496
 6478TIP3    H240850   5.682   5.195   1.190 -1.3451  1.3432  0.5219
 6479TIP3   OH240851   1.598   5.497   3.851  0.3079  0.2961  0.2770
 6479TIP3    H140852   1.630   5.553   3.779 -0.4863 -0.9784 -1.1363
 6479TIP3    H240853   1.557   5.423   3.806 -1.7084  0.2620  2.0561
 6480TIP3   OH240854   4.134   3.091   0.627  0.0150  0.7991 -0.2868
 6480TIP3    H140855   4.070   3.023   0.604 -0.3343  1.5288 -1.5791
 6480TIP3    H240856   4.177   3.112   0.544  0.7960  1.4732  0.2777
 6481TIP3   OH240857   6.133   2.056   3.202  0.0744  0.2518 -0.1987
 6481TIP3    H140858   6.055   2.072   3.255 -1.4199 -0.2765 -2.1178
 6481TIP3    H240859   6.169   2.143   3.186  0.7444  0.4151  1.8284
 6482TIP3   OH240860   5.330   0.087   5.964  0.2951  0.7824 -0.5360
 6482TIP3    H140861   5.342   0.040   6.047 -0.7954  1.2499 -0.0928
 6482TIP3    H240862   5.280   0.027   5.910  2.1422 -0.0694 -1.3851
 6483TIP3   OH240863   2.182   1.590  13.303  0.8591  0.0748  0.1300
 6483TIP3    H140864   2.126   1.665  13.323 -0.0356 -0.7312  0.7367
 6483TIP3    H240865   2.179   1.583  13.207 -0.4861 -0.2384  0.1732
 6484TIP3   OH240866   1.468   3.470  17.098  0.0267 -0.1098  0.3875
 6484TIP3    H140867   1.448   3.520  17.019 -0.5104 -0.9961 -0.0567
 6484TIP3    H240868   1.561   3.486  17.114 -0.6688  3.3008  1.8864
 6485TIP3   OH240869   2.315   6.580  11.580  0.3477 -0.1292 -0.2275
 6485TIP3    H140870   2.338   6.501  11.629 -0.7361 -0.0282  0.4807
 6485TIP3    H240871   2.235   6.612  11.622 -1.1126 -0.4785 -2.5488
 6486TIP3   OH240872   6.344   2.090  17.335 -0.2611 -0.4297 -0.2093
 6486TIP3    H140873   6.294   2.067  17.257  0.3257 -0.7052 -0.5092
 6486TIP3    H240874   6.363   2.006  17.377 -1.4945 -0.2274  0.8226
 6487TIP3   OH240875   5.509   4.793  13.607 -0.0872 -0.4018 -0.5408
 6487TIP3    H140876   5.597   4.755  13.605  0.9004  1.7239 -0.3025
 6487TIP3    H240877   5.513   4.859  13.676 -2.4103 -1.4054  0.6245
 6488TIP3   OH240878   3.372   4.633   3.325  0.4880  0.1965 -0.7764
 6488TIP3    H140879   3.438   4.670   3.267  0.4400 -1.2350 -1.8037
 6488TIP3    H240880   3.289   4.668   3.293  0.6767  1.7777  0.3449
 6489TIP3   OH240881   0.008   1.321  16.733 -0.2833  0.3640 -0.6275
 6489TIP3    H140882  -0.029   1.407  16.755 -1.8332 -0.4116 -0.0403
 6489TIP3    H240883   0.045   1.290  16.815 -0.1363  0.2717 -0.7293
 6490TIP3   OH240884   3.044   5.411  17.198  0.1434 -0.1592 -0.2795
 6490TIP3    H140885   3.007   5.430  17.284 -1.3070 -0.5126 -0.7897
 6490TIP3    H240886   2.998   5.471  17.139 -0.1720 -1.1286 -1.0481
 6491TIP3   OH240887   3.520   0.396  13.023  0.1910 -0.4286  0.7550
 6491TIP3    H140888   3.560   0.383  13.109  0.3621  3.6000  1.4867
 6491TIP3    H240889   3.582   0.453  12.976 -1.4147  0.1496 -0.7886
 6492TIP3   OH240890   5.143   4.021  17.264  0.6957 -0.2554 -0.0881
 6492TIP3    H140891   5.064   4.048  17.219  0.6375 -0.7525 -0.2905
 6492TIP3    H240892   5.117   3.945  17.316  0.2927  1.4089  2.3094
 6493TIP3   OH240893   0.347   2.280   4.306  0.7499 -0.2058 -0.2582
 6493TIP3    H140894   0.413   2.348   4.293  0.1922  0.2376 -0.7879
 6493TIP3    H240895   0.268   2.327   4.331  0.8591 -0.7918  1.3661
 6494TIP3   OH240896   2.238   2.856  15.128  0.3048  0.2348 -0.0867
 6494TIP3    H140897   2.249   2.792  15.197  3.4656  0.4372 -0.2227
 6494TIP3    H240898   2.188   2.927  15.168  2.1762  0.4235  2.1439
 6495TIP3   OH240899   0.212   3.811  12.653  0.0131  0.2524 -0.2360
 6495TIP3    H140900   0.262   3.886  12.623  0.1892 -0.1825 -1.0296
 6495TIP3    H240901   0.148   3.794  12.584 -0.5071  0.1170  0.2629
 6496TIP3   OH240902   2.688   1.813  15.692 -0.1635  0.4666  0.6520
 6496TIP3    H140903   2.623   1.803  15.622  1.0715 -0.1454 -0.4629
 6496TIP3    H240904   2.768   1.839  15.646  0.4266  1.0341  1.9727
 6497TIP3   OH240905   6.371   0.387  14.234  0.0779  0.2723  0.1671
 6497TIP3    H140906   6.459   0.351  14.241 -1.0217 -2.5111  0.9748
 6497TIP3    H240907   6.358   0.436  14.315  1.2279  1.7409 -0.4786
 6498TIP3   OH240908   1.056   0.293  17.030 -0.5961 -0.4306  0.1542
 6498TIP3    H140909   1.151   0.294  17.016 -0.8943 -1.3120 -2.7051
 6498TIP3    H240910   1.037   0.205  17.062 -0.5950 -0.9483 -1.1947
 6499TIP3   OH240911   3.744   1.434  14.009  0.1014  0.2599 -0.2187
 6499TIP3    H140912   3.739   1.372  14.081 -2.5607 -0.7049 -1.1007
 6499TIP3    H240913   3.819   1.489  14.029  1.3360 -1.9577  1.6316
 6500TIP3   OH240914   0.117   2.196   0.376  0.3133  0.3835 -0.2503
 6500TIP3    H140915   0.138   2.254   0.450 -2.0319  0.0923  0.7170
 6500TIP3    H240916   0.188   2.132   0.376  0.7169  0.7658  1.3779
 6501TIP3   OH240917   3.448   4.569  10.851 -0.3653  0.3408  0.0568
 6501TIP3    H140918   3.364   4.611  10.866 -0.8612 -0.7595  0.5073
 6501TIP3    H240919   3.453   4.500  10.918  1.3874  1.0707  0.7611
 6502TIP3   OH240920   0.723   1.767   2.451 -0.1208 -0.5528  0.5517
 6502TIP3    H140921   0.748   1.818   2.528  1.0410  2.2015 -1.4823
 6502TIP3    H240922   0.787   1.696   2.448 -0.7817 -1.2946  2.5967
 6503TIP3   OH240923   0.205   6.678  11.086 -0.2582  0.0893 -0.0149
 6503TIP3    H140924   0.193   6.728  11.005  0.0506 -0.6119 -0.5100
 6503TIP3    H240925   0.136   6.612  11.084 -1.2731  1.0707  1.1149
 6504TIP3   OH240926   6.352   5.951   5.826  0.0770 -0.2454  0.3330
 6504TIP3    H140927   6.435   5.950   5.872  0.7311  2.3199 -0.6530
 6504TIP3    H240928   6.288   5.981   5.891  0.5037  0.7919  0.2764
 6505TIP3   OH240929   3.852   1.517   1.958  0.0106  0.2302  0.1418
 6505TIP3    H140930   3.915   1.451   1.929  0.3012  0.7530 -0.4382
 6505TIP3    H240931   3.891   1.600   1.932 -0.9313  0.5608 -0.2477
 6506TIP3   OH240932   0.952   5.158  14.879  0.3674  0.7315  0.9727
 6506TIP3    H140933   0.973   5.200  14.796  0.5072  0.1144  0.6898
 6506TIP3    H240934   0.878   5.101  14.860  1.9219 -1.2954  0.6627
 6507TIP3   OH240935   4.189   4.642  10.306  0.0390  0.1110  0.3935
 6507TIP3    H140936   4.125   4.657  10.237  2.0044 -1.4950 -1.9690
 6507TIP3    H240937   4.204   4.548  10.305  3.9818  0.5304 -0.8837
 6508TIP3   OH240938   6.402   1.638  11.065  0.5116 -0.5268  0.6409
 6508TIP3    H140939   6.467   1.684  11.012 -0.5533 -1.0577 -1.2130
 6508TIP3    H240940   6.327   1.697  11.067 -0.2291 -1.4086 -0.2780
 6509TIP3   OH240941   0.226   4.377  13.863 -0.0663  0.3699 -0.1302
 6509TIP3    H140942   0.161   4.390  13.794  0.2214  2.2469 -0.0762
 6509TIP3    H240943   0.227   4.459  13.912  1.5685 -0.0209  0.5482
 6510TIP3   OH240944   0.040   5.967  15.910 -0.1688  0.2225  0.4647
 6510TIP3    H140945  -0.043   5.921  15.892  0.4289 -1.5570  1.9292
 6510TIP3    H240946   0.030   6.052  15.867 -1.8210 -0.8190 -1.3773
 6511TIP3   OH240947   6.153   1.048  16.710 -0.5705  0.3450  0.1273
 6511TIP3    H140948   6.064   1.025  16.734 -0.1208  0.0716  1.6787
 6511TIP3    H240949   6.146   1.083  16.622 -2.3726  1.3416  0.6134
 6512TIP3   OH240950   5.667   5.200  15.532  1.0031  0.4250 -0.3546
 6512TIP3    H140951   5.585   5.173  15.490  2.0726 -0.0178 -2.2913
 6512TIP3    H240952   5.710   5.119  15.556  0.1227  0.6765  2.3539
 6513TIP3   OH240953   4.690   5.165   5.734 -0.9295 -0.1156  0.1536
 6513TIP3    H140954   4.753   5.213   5.788 -0.6128  0.4393 -0.6770
 6513TIP3    H240955   4.737   5.086   5.707 -0.5603  0.3065 -0.4805
 6514TIP3   OH240956   4.559   1.629   3.585  1.0367 -0.0598  0.5009
 6514TIP3    H140957   4.597   1.714   3.607 -0.5474  0.7084  0.3994
 6514TIP3    H240958   4.520   1.598   3.667  0.1747  0.1073  0.1714
 6515TIP3   OH240959   2.904   3.403   2.148  0.3691 -0.5633 -0.5215
 6515TIP3    H140960   2.971   3.468   2.172  0.1685  0.0629 -1.5950
 6515TIP3    H240961   2.824   3.435   2.191  0.9294 -1.8415  1.5754
 6516TIP3   OH240962   4.314   0.347  10.678 -0.3244  0.3241 -0.0482
 6516TIP3    H140963   4.333   0.262  10.718  0.2814  0.4181 -0.1368
 6516TIP3    H240964   4.346   0.411  10.742  0.0939  0.4786 -0.4080
 6517TIP3   OH240965   1.774   6.334  11.867  0.3508  0.1710 -0.3470
 6517TIP3    H140966   1.710   6.312  11.799 -1.7183  0.3004  1.4376
 6517TIP3    H240967   1.846   6.376  11.820 -1.1053  0.5258 -2.4042
 6518TIP3   OH240968   5.541   3.150   3.936  0.2665 -0.0584  0.2884
 6518TIP3    H140969   5.524   3.116   4.024  0.2694 -2.1383 -0.4679
 6518TIP3    H240970   5.465   3.125   3.885  0.7086  0.2415 -0.5377
 6519TIP3   OH240971   6.374   4.874  14.808 -0.0502  0.0209  0.0261
 6519TIP3    H140972   6.375   4.813  14.734  1.9016  0.8682 -0.7039
 6519TIP3    H240973   6.453   4.853  14.858  0.0063  1.1468  0.4447
 6520TIP3   OH240974   2.200   6.293   1.899  0.4354 -0.4378 -0.2166
 6520TIP3    H140975   2.276   6.325   1.947  0.8670 -2.0874  0.2802
 6520TIP3    H240976   2.234   6.224   1.843 -0.8993 -2.6106  1.4626
 6521TIP3   OH240977   3.780   2.730  14.675 -0.8191 -0.6390  0.3960
 6521TIP3    H140978   3.757   2.723  14.768 -0.9319  1.9648  0.6212
 6521TIP3    H240979   3.697   2.752  14.631 -0.6466 -1.2551 -0.2710
 6522TIP3   OH240980   0.237   2.595   3.387  0.2045  1.1055  0.1629
 6522TIP3    H140981   0.153   2.597   3.342 -0.5692  0.6373  1.5491
 6522TIP3    H240982   0.268   2.505   3.376  1.0777  1.5421 -1.2708
 6523TIP3   OH240983   5.541   6.403  15.636  0.1195 -0.0737  0.1429
 6523TIP3    H140984   5.623   6.452  15.644 -0.0153  0.1135  0.3774
 6523TIP3    H240985   5.565   6.313  15.659  0.2098  0.0252  0.4379
 6524TIP3   OH240986   0.406   3.785  11.171 -0.5047  0.5370  0.6786
 6524TIP3    H140987   0.394   3.705  11.120 -0.4908  0.3448  0.9740
 6524TIP3    H240988   0.394   3.856  11.108 -0.1617  0.2979  0.3356
 6525TIP3   OH240989   3.787   5.644  12.775 -0.0977  0.7036 -0.4235
 6525TIP3    H140990   3.828   5.563  12.806  0.6188  1.0113 -0.5506
 6525TIP3    H240991   3.825   5.659  12.689 -2.3705 -0.3542 -1.7193
 6526TIP3   OH240992   5.079   2.277   1.499 -0.0593  0.0486  0.5565
 6526TIP3    H140993   5.015   2.321   1.555  0.3023  1.9546 -0.4531
 6526TIP3    H240994   5.026   2.225   1.439 -0.6810  1.2962 -0.0124
 6527TIP3   OH240995   0.474   1.376  16.113 -0.1643  1.0304 -0.0168
 6527TIP3    H140996   0.442   1.339  16.195 -0.2031  2.0776  0.4619
 6527TIP3    H240997   0.394   1.403  16.067 -0.2201 -0.5448 -0.9230
 6528TIP3   OH240998   0.465   4.262  12.619  0.3051  0.1141  0.0538
 6528TIP3    H140999   0.396   4.312  12.664  0.1482 -1.2425  1.4128
 6528TIP3    H241000   0.451   4.281  12.526 -1.3027  0.6202  0.3555
 6529TIP3   OH241001   4.665   1.391   1.297 -0.4954 -0.5754  0.6388
 6529TIP3    H141002   4.760   1.396   1.290 -0.4938  2.6325  1.6259
 6529TIP3    H241003   4.633   1.409   1.208 -0.1634  0.6058  0.7429
 6530TIP3   OH241004   3.736   5.780  13.030 -0.3910  0.0474 -0.7174
 6530TIP3    H141005   3.701   5.757  13.117 -1.4490 -0.1366 -1.1758
 6530TIP3    H241006   3.761   5.696  12.991  2.3994  0.2875  0.3027
 6531TIP3   OH241007   3.692   3.371   2.158 -0.1838 -0.2928  0.5850
 6531TIP3    H141008   3.750   3.443   2.135  0.2721 -0.9414 -0.3559
 6531TIP3    H241009   3.618   3.380   2.098  0.2889 -1.1148 -0.1246
 6532TIP3   OH241010   3.092   1.029  11.234 -0.0793 -0.3083  0.5200
 6532TIP3    H141011   3.165   1.001  11.290  0.4077  0.9890  0.5726
 6532TIP3    H241012   3.061   1.110  11.274 -1.5436 -0.8139  0.4632
 6533TIP3   OH241013   6.738   5.614   4.602 -0.2405  0.6958 -0.0848
 6533TIP3    H141014   6.791   5.681   4.558  0.6145 -1.3697 -2.4123
 6533TIP3    H241015   6.799   5.572   4.663 -0.6354  1.6224  0.9826
 6534TIP3   OH241016   1.765   4.393  12.868 -0.2442 -0.3190 -0.9454
 6534TIP3    H141017   1.749   4.437  12.785 -1.0801 -0.9593 -1.1462
 6534TIP3    H241018   1.844   4.342  12.854  2.0902  2.7409 -0.0176
 6535TIP3   OH241019   4.556   1.793   1.814  0.5180  0.1418  0.6011
 6535TIP3    H141020   4.531   1.781   1.722  0.8520  0.4168  0.4753
 6535TIP3    H241021   4.472   1.796   1.860  0.1550  3.1236 -0.0699
 6536TIP3   OH241022   4.575   3.824  15.015 -0.4681  0.4333  0.5358
 6536TIP3    H141023   4.550   3.753  15.074  1.9737 -0.1049  1.0473
 6536TIP3    H241024   4.658   3.856  15.050 -0.1496  1.7229 -1.2527
 6537TIP3   OH241025   0.112   2.131  12.982  0.0028 -0.1493 -0.2417
 6537TIP3    H141026   0.126   2.098  12.893  1.3890  0.4765 -0.2832
 6537TIP3    H241027   0.195   2.172  13.005 -0.8328  1.0328  0.7725
 6538TIP3   OH241028   4.971   3.979   1.431  0.4384 -0.7391 -0.2501
 6538TIP3    H141029   4.931   4.014   1.511 -0.8410 -1.1864 -0.6738
 6538TIP3    H241030   4.932   3.892   1.421  0.6842 -0.7422 -1.2874
 6539TIP3   OH241031   2.894   2.302  10.472 -0.2031 -0.7751 -0.0342
 6539TIP3    H141032   2.818   2.358  10.490  1.6697  2.8068 -2.1427
 6539TIP3    H241033   2.877   2.267  10.384  0.6922  0.4065 -0.7064
 6540TIP3   OH241034   5.349   5.988  16.072  0.2120 -0.0897 -0.4994
 6540TIP3    H141035   5.290   5.914  16.058 -1.0742  1.1328 -1.7688
 6540TIP3    H241036   5.368   5.986  16.166 -0.7870 -1.2775 -0.3035
 6541TIP3   OH241037   4.050   2.271   1.821  0.4389  0.1344 -0.7741
 6541TIP3    H141038   4.015   2.317   1.897  1.4879  0.4582 -0.4781
 6541TIP3    H241039   4.012   2.318   1.746 -0.9538 -0.4642 -0.4793
 6542TIP3   OH241040   1.622   6.429   5.400 -0.0387 -0.2465  0.1168
 6542TIP3    H141041   1.660   6.345   5.429  0.9983 -0.7343 -2.4190
 6542TIP3    H241042   1.689   6.468   5.345 -2.0512  0.2779 -2.1304
 6543TIP3   OH241043   2.633   6.592   2.080 -0.0233  0.0570  0.2660
 6543TIP3    H141044   2.653   6.605   1.987  0.6432  0.8148  0.4995
 6543TIP3    H241045   2.604   6.678   2.111  0.4573 -0.0036  0.9210
 6544TIP3   OH241046   0.907   5.894   1.061 -0.0207 -0.2533 -0.0426
 6544TIP3    H141047   0.992   5.887   1.105  0.2596  0.4203 -0.4546
 6544TIP3    H241048   0.929   5.924   0.973 -0.8408  2.4574  0.5899
 6545TIP3   OH241049   1.795   3.963   0.715  0.3376  0.5215 -0.1492
 6545TIP3    H141050   1.800   3.922   0.628 -0.9027  1.8171 -0.8865
 6545TIP3    H241051   1.753   3.897   0.770 -1.0598  0.5146 -1.1572
 6546TIP3   OH241052   3.076   5.022  17.413  0.0688  0.2329  0.5453
 6546TIP3    H141053   3.068   4.958  17.483  1.7660  0.8053  1.2895
 6546TIP3    H241054   3.159   5.001  17.370 -1.8595 -1.5378 -2.8234
 6547TIP3   OH241055   5.251   2.834   4.063 -0.3997  0.2054  0.3330
 6547TIP3    H141056   5.191   2.796   4.128  0.1716 -0.1840  0.6406
 6547TIP3    H241057   5.283   2.914   4.105  2.6397 -1.7412  2.0872
 6548TIP3   OH241058   5.958   5.282  14.907  0.1763 -0.1242 -1.2730
 6548TIP3    H141059   6.008   5.331  14.841  0.9208  1.7151  0.5572
 6548TIP3    H241060   5.867   5.293  14.880  0.3662  1.8021 -1.2815
 6549TIP3   OH241061   0.459   0.624  13.717  0.1387  0.0436  0.3452
 6549TIP3    H141062   0.392   0.673  13.765  0.2253 -1.0591  1.6520
 6549TIP3    H241063   0.521   0.596  13.785  1.4426  0.2778 -0.7161
 6550TIP3   OH241064   3.184   3.841  14.390 -0.0748  0.3588 -0.4682
 6550TIP3    H141065   3.104   3.892  14.377 -1.1752 -1.1464  0.2092
 6550TIP3    H241066   3.242   3.870  14.319 -0.2620  3.2074  0.4043
 6551TIP3   OH241067   4.358   4.572  13.263 -0.1028  0.0310 -0.2800
 6551TIP3    H141068   4.454   4.573  13.258  0.0703 -2.2921  0.9565
 6551TIP3    H241069   4.339   4.573  13.357 -1.4225  2.4313 -0.5050
 6552TIP3   OH241070   3.435   3.000   0.352  0.0726 -0.0405  0.1670
 6552TIP3    H141071   3.526   3.016   0.328  0.0414  1.3215  0.8544
 6552TIP3    H241072   3.427   2.905   0.358  1.0732 -0.2391 -1.2831
 6553TIP3   OH241073   6.364   4.996   0.660  0.1709  0.3504  0.3252
 6553TIP3    H141074   6.372   4.920   0.603 -0.9635  0.9294 -0.6629
 6553TIP3    H241075   6.452   5.034   0.662  0.8343 -1.1560  1.1266
 6554TIP3   OH241076   3.983   2.695  11.007 -0.1408 -0.3872 -0.8049
 6554TIP3    H141077   3.934   2.760  11.058  1.3430  1.0903 -1.1817
 6554TIP3    H241078   3.987   2.731  10.919 -0.1561 -1.5028 -1.2824
 6555TIP3   OH241079   2.903   6.477  10.279  0.0478 -0.2096 -0.4735
 6555TIP3    H141080   2.861   6.504  10.198 -1.2602 -0.1653  0.1848
 6555TIP3    H241081   2.953   6.399  10.256 -0.9035 -0.6337 -1.1883
 6556TIP3   OH241082   1.540   1.511  17.342  0.5583  0.6383 -0.4896
 6556TIP3    H141083   1.492   1.534  17.263  0.8847  0.1984 -0.8217
 6556TIP3    H241084   1.626   1.482  17.311  0.3684 -0.4609 -0.0664
 6557TIP3   OH241085   1.408   3.196  10.407  0.5498 -0.0169 -0.2494
 6557TIP3    H141086   1.324   3.170  10.443  0.6446 -1.3697 -0.9601
 6557TIP3    H241087   1.412   3.291  10.422 -1.4943  0.2488 -1.0422
 6558TIP3   OH241088   5.338   0.698   1.563  0.1544 -0.2209  0.2803
 6558TIP3    H141089   5.329   0.764   1.493 -0.6372 -0.6344 -0.0163
 6558TIP3    H241090   5.428   0.666   1.554  0.1182 -0.1418 -0.4382
 6559TIP3   OH241091   6.665   6.206  16.275 -0.3686 -0.6421  0.6177
 6559TIP3    H141092   6.701   6.281  16.323 -1.1820 -0.7775  1.4484
 6559TIP3    H241093   6.742   6.157  16.246  0.2673  1.1864 -1.0988
 6560TIP3   OH241094   2.396   3.868   6.206 -0.6615 -0.2980  0.4723
 6560TIP3    H141095   2.345   3.885   6.285 -0.9842 -0.9947  0.4203
 6560TIP3    H241096   2.372   3.779   6.181  1.2306 -0.9789  0.9448
 6561TIP3   OH241097   0.156   4.779   0.468 -0.5917 -0.7270  0.2258
 6561TIP3    H141098   0.158   4.848   0.402  0.4539 -0.3824  0.5957
 6561TIP3    H241099   0.169   4.698   0.418 -0.5740 -0.5376 -0.0784
 6562TIP3   OH241100   4.968   1.084  11.772  0.1504  0.7396  1.0347
 6562TIP3    H141101   4.958   1.026  11.847 -2.0147 -0.7330 -0.3017
 6562TIP3    H241102   4.891   1.141  11.774 -0.9462 -0.5368 -0.9864
 6563TIP3   OH241103   0.710   3.157   1.797  0.4637  0.0760 -0.0947
 6563TIP3    H141104   0.635   3.211   1.774 -0.2768 -0.5986  0.6750
 6563TIP3    H241105   0.715   3.092   1.728  0.5866  0.3653 -0.3588
 6564TIP3   OH241106   2.535   0.775  11.866  0.6571  0.5976 -0.2138
 6564TIP3    H141107   2.503   0.764  11.777 -1.5058  0.7054  0.4851
 6564TIP3    H241108   2.489   0.708  11.916  0.6679  1.4965  1.0585
 6565TIP3   OH241109   6.560   0.291  13.756  0.0498  0.2575 -0.1508
 6565TIP3    H141110   6.473   0.299  13.718 -1.0343  1.9693  2.3873
 6565TIP3    H241111   6.546   0.248  13.840  1.4475  1.4267  0.7390
 6566TIP3   OH241112   5.051   6.047  13.217  0.3536 -0.2283  0.2219
 6566TIP3    H141113   4.987   6.016  13.153 -1.0380  0.6352  1.1556
 6566TIP3    H241114   5.084   5.968  13.259 -0.8563 -0.6402  0.4221
 6567TIP3   OH241115   0.186   5.745  13.033 -0.3182  0.7557 -0.2922
 6567TIP3    H141116   0.167   5.834  13.062 -0.0737  0.6716  0.1404
 6567TIP3    H241117   0.198   5.695  13.115  2.3456  0.9145 -0.4828
 6568TIP3   OH241118   5.599   5.593  16.543  0.2757 -0.2262 -0.5512
 6568TIP3    H141119   5.686   5.590  16.504  0.5940 -0.4791  0.1556
 6568TIP3    H241120   5.555   5.514  16.511 -0.1061  0.4775 -1.8191
 6569TIP3   OH241121   4.547   6.026  15.562 -0.4876  0.1923 -0.1884
 6569TIP3    H141122   4.513   5.958  15.504  1.0643  0.3430 -1.3453
 6569TIP3    H241123   4.640   6.033  15.538 -0.0771  1.0900  1.5216
 6570TIP3   OH241124   6.552   4.149   2.337  0.0386 -0.3605 -0.5126
 6570TIP3    H141125   6.574   4.095   2.413 -0.1110 -0.4472 -0.5300
 6570TIP3    H241126   6.525   4.086   2.270 -0.6320 -0.2338 -0.3655
 6571TIP3   OH241127   4.327   4.921  14.900 -0.3907 -0.0408  0.2567
 6571TIP3    H141128   4.294   4.950  14.815 -0.2491  0.7976  0.4845
 6571TIP3    H241129   4.294   4.984  14.963 -1.6338 -1.4167  1.0421
 6572TIP3   OH241130   2.884   5.141   6.690  0.5524 -0.0912  0.0868
 6572TIP3    H141131   2.925   5.082   6.627 -0.3338  0.9588 -1.5715
 6572TIP3    H241132   2.955   5.199   6.719  0.5010  1.1805 -2.1116
 6573TIP3   OH241133   6.572   0.513   0.769 -0.0444  0.4474  0.3707
 6573TIP3    H141134   6.591   0.426   0.805  2.4825  2.2037  3.8092
 6573TIP3    H241135   6.634   0.522   0.696  0.0909 -0.3888  0.3654
 6574TIP3   OH241136   1.271   5.242   2.389 -0.6054 -0.4853 -0.5719
 6574TIP3    H141137   1.237   5.293   2.316 -1.2579 -1.4932 -0.9929
 6574TIP3    H241138   1.327   5.303   2.437 -2.6317  1.1626 -0.1106
 6575TIP3   OH241139   4.864   2.152  12.366 -0.5639 -0.0573  0.0208
 6575TIP3    H141140   4.856   2.103  12.284 -0.1739  0.5003 -0.3627
 6575TIP3    H241141   4.952   2.133  12.398  0.3617  1.9050 -1.1673
 6576TIP3   OH241142   3.406   0.141  11.708 -0.7774  0.1364  0.1035
 6576TIP3    H141143   3.489   0.188  11.716 -1.3117  1.1277  0.0061
 6576TIP3    H241144   3.429   0.060  11.663  0.0901  0.5532 -0.2400
 6577TIP3   OH241145   0.979   2.436   1.321  0.6883  0.2324 -0.1053
 6577TIP3    H141146   1.030   2.382   1.382 -0.1473  0.6425  0.9934
 6577TIP3    H241147   0.916   2.482   1.377 -0.3553  0.3436 -1.3368
 6578TIP3   OH241148   3.561   4.227   6.271 -0.5098  0.4097  0.0059
 6578TIP3    H141149   3.605   4.143   6.254  0.9651  0.4244  3.1099
 6578TIP3    H241150   3.486   4.204   6.326 -0.7099  1.0507  0.0077
 6579TIP3   OH241151   3.376   0.757  11.075  0.5888  0.1212 -0.3607
 6579TIP3    H141152   3.343   0.846  11.061 -0.0606 -0.1572 -0.6334
 6579TIP3    H241153   3.458   0.770  11.122  0.5743  0.8734 -0.5183
 6580TIP3   OH241154   5.966   5.349   1.790 -0.2080  0.4358  0.0605
 6580TIP3    H141155   6.026   5.291   1.743  0.7765  0.8351  0.7796
 6580TIP3    H241156   5.880   5.329   1.754  0.4039  0.1582 -1.3168
 6581TIP3   OH241157   2.943   1.762  11.043  0.4297 -0.0781  0.8034
 6581TIP3    H141158   2.959   1.705  10.967  0.5871  1.2714 -0.2295
 6581TIP3    H241159   2.858   1.734  11.077  1.1322 -1.8484  1.2135
 6582TIP3   OH241160   5.368   0.061   1.625  0.5992  0.7803 -0.1562
 6582TIP3    H141161   5.420   0.058   1.545  1.1463 -1.8369  0.1906
 6582TIP3    H241162   5.419   0.009   1.688 -0.1172  2.2407  1.7181
 6583TIP3   OH241163   3.154   6.570   3.920 -0.7610  0.2489  0.2615
 6583TIP3    H141164   3.199   6.650   3.949 -0.7695  0.1228  0.6330
 6583TIP3    H241165   3.100   6.545   3.995 -0.2290 -0.4883  0.4042
 6584TIP3   OH241166   6.527   0.890  16.423 -0.0646 -0.3034  0.2939
 6584TIP3    H141167   6.519   0.812  16.369 -0.2731  1.1868 -1.9898
 6584TIP3    H241168   6.617   0.921  16.408 -0.4863  0.7684 -0.1549
 6585TIP3   OH241169   4.883   0.665   1.376  0.2651 -0.5043  0.8938
 6585TIP3    H141170   4.828   0.645   1.451  0.2604 -0.3035  0.9460
 6585TIP3    H241171   4.972   0.646   1.405  0.0505 -3.4983 -0.0580
 6586TIP3   OH241172   3.732   6.685  11.124  0.0597  0.0719 -0.2052
 6586TIP3    H141173   3.730   6.701  11.030 -0.3352  1.2023 -0.0182
 6586TIP3    H241174   3.646   6.714  11.156 -1.4841 -4.1101 -0.0256
 6587TIP3   OH241175   0.268   3.604   1.887  0.1472  0.0957 -0.1117
 6587TIP3    H141176   0.350   3.574   1.848  0.7963 -1.3878  2.1523
 6587TIP3    H241177   0.200   3.552   1.844  0.6055 -0.0399 -0.6788
 6588TIP3   OH241178   5.584   1.682  14.616  0.1825 -0.4943  0.4358
 6588TIP3    H141179   5.554   1.602  14.573  1.1410 -0.5690 -0.1075
 6588TIP3    H241180   5.679   1.674  14.621  0.4448  1.1814 -0.8481
 6589TIP3   OH241181   1.039   0.698  12.443  0.5707  0.1090 -0.2024
 6589TIP3    H141182   0.966   0.637  12.450  0.0019  0.5388 -1.9698
 6589TIP3    H241183   1.117   0.643  12.448  0.1335 -0.4617  0.6838
 6590TIP3   OH241184   5.680   1.863   3.446 -0.0124 -0.3813 -0.3314
 6590TIP3    H141185   5.717   1.819   3.523 -0.0585 -3.1703 -1.7563
 6590TIP3    H241186   5.616   1.925   3.482  1.5655  0.0810  1.9126
 6591TIP3   OH241187   0.999   1.582  11.716 -0.3799  0.0095 -0.6155
 6591TIP3    H141188   1.028   1.671  11.699 -0.7433  0.2912  0.1976
 6591TIP3    H241189   0.927   1.591  11.778 -1.1930 -0.7744 -1.4057
 6592TIP3   OH241190   0.395   0.718   3.494 -0.2615  0.0752 -0.0566
 6592TIP3    H141191   0.350   0.700   3.576 -1.5659  1.5214 -0.4035
 6592TIP3    H241192   0.342   0.676   3.426  0.5739 -0.7461 -0.2303
 6593TIP3   OH241193   6.196   5.704  11.032  0.0987 -0.2765 -0.1822
 6593TIP3    H141194   6.187   5.791  11.071 -1.3148 -0.6607  0.4271
 6593TIP3    H241195   6.260   5.715  10.962  0.8361  0.9820  0.6566
 6594TIP3   OH241196   1.261   2.780  15.375  0.3538  0.1213  0.8093
 6594TIP3    H141197   1.200   2.717  15.413 -0.2471  0.2641  0.0914
 6594TIP3    H241198   1.284   2.743  15.290  0.9385  0.2789  0.8932
 6595TIP3   OH241199   3.925   6.157   6.625  0.2786  0.1734 -0.0516
 6595TIP3    H141200   3.862   6.111   6.680  1.7885 -1.0718  0.7099
 6595TIP3    H241201   3.873   6.197   6.556 -1.3733 -0.4419  0.8037
 6596TIP3   OH241202   5.859   4.609   1.845 -0.1258  0.1264  0.2658
 6596TIP3    H141203   5.812   4.527   1.864  2.8875 -1.7013  0.5009
 6596TIP3    H241204   5.821   4.672   1.905 -1.2987 -1.6059  1.4486
 6597TIP3   OH241205   1.490   5.999   1.457 -0.0051  0.5773  0.4865
 6597TIP3    H141206   1.540   6.041   1.387  0.2099  1.3344  1.0803
 6597TIP3    H241207   1.549   5.999   1.532  0.1260 -1.1029  0.4255
 6598TIP3   OH241208   2.098   4.059   6.195  0.4197  0.6746  0.1152
 6598TIP3    H141209   2.071   4.111   6.270 -0.9902  0.0437  0.0752
 6598TIP3    H241210   2.068   3.970   6.214  1.6323  0.1246 -0.4013
 6599TIP3   OH241211   2.808   1.115  16.356  0.1345  0.1935  0.0922
 6599TIP3    H141212   2.864   1.185  16.322  2.4134 -1.2273  0.6951
 6599TIP3    H241213   2.815   1.122  16.451 -1.6708  0.6582  0.2319
 6600TIP3   OH241214   1.015   5.546  16.959  0.4629  0.0844 -0.0795
 6600TIP3    H141215   0.988   5.635  16.982  0.0476 -0.1971  0.5364
 6600TIP3    H241216   0.935   5.502  16.932  0.8844  0.2995 -1.7783
 6601TIP3   OH241217   3.109   3.037  13.875 -0.4803  0.5633 -0.1255
 6601TIP3    H141218   3.040   3.099  13.851 -1.2808 -0.7590 -1.4118
 6601TIP3    H241219   3.087   3.008  13.964 -1.6604  0.0885 -0.5597
 6602TIP3   OH241220   0.487   4.977   3.773 -0.0014  0.3475  0.0057
 6602TIP3    H141221   0.495   4.882   3.774 -1.9382  0.1425  0.3963
 6602TIP3    H241222   0.566   5.007   3.728 -0.0346 -1.5204 -1.4308
 6603TIP3   OH241223   3.431   1.940  14.502 -0.4086  0.2974  0.3569
 6603TIP3    H141224   3.486   1.968  14.429 -0.2782 -0.8453 -0.0193
 6603TIP3    H241225   3.397   1.854  14.474 -1.2660  0.3517  1.1659
 6604TIP3   OH241226   6.462   4.253   4.050  0.7157 -0.0553  0.0801
 6604TIP3    H141227   6.528   4.215   3.993  0.0115 -0.1511 -0.6885
 6604TIP3    H241228   6.429   4.179   4.102 -0.4703 -0.4875 -1.2319
 6605TIP3   OH241229   1.114   6.425  14.740  0.4309  0.1458 -0.0808
 6605TIP3    H141230   1.114   6.492  14.671  0.1660  0.9770  0.7125
 6605TIP3    H241231   1.063   6.464  14.811  0.7739 -0.6679  0.6234
 6606TIP3   OH241232   6.443   0.168   1.784 -0.4408 -1.1107  0.3783
 6606TIP3    H141233   6.401   0.180   1.699 -0.5607 -1.7750  0.3377
 6606TIP3    H241234   6.404   0.235   1.841 -0.5015 -0.7946 -0.0340
 6607TIP3   OH241235   0.710   3.401   2.094  0.1922 -0.3409  0.3729
 6607TIP3    H141236   0.760   3.451   2.158  1.3915 -0.8307 -0.1579
 6607TIP3    H241237   0.618   3.419   2.116  0.5714  1.5939  0.5650
 6608TIP3   OH241238   1.701   6.759   2.338  0.3165 -0.5186 -0.2430
 6608TIP3    H141239   1.646   6.753   2.260  1.0427 -1.0903 -0.7297
 6608TIP3    H241240   1.640   6.778   2.409 -0.4430 -0.6713 -0.8405
 6609TIP3   OH241241   6.382   1.190   2.793  0.4800 -0.0526 -0.0901
 6609TIP3    H141242   6.426   1.176   2.709  0.9788 -0.8407  0.2819
 6609TIP3    H241243   6.339   1.275   2.785  0.1032 -0.3461 -1.3154
 6610TIP3   OH241244   1.923   2.856   1.154  0.9526 -0.3545  0.5273
 6610TIP3    H141245   1.924   2.882   1.246  2.7809 -0.3102  0.5460
 6610TIP3    H241246   1.834   2.871   1.124  0.4317 -0.0209  2.1975
 6611TIP3   OH241247   4.100   1.686   4.907 -0.6317 -0.0570 -0.1127
 6611TIP3    H141248   4.083   1.595   4.882 -1.9540  0.2515 -0.4040
 6611TIP3    H241249   4.154   1.721   4.836  0.7142 -0.8679  0.4798
 6612TIP3   OH241250   2.074   4.957   4.556 -0.4296 -0.5860  0.1159
 6612TIP3    H141251   2.015   5.029   4.535 -2.0848 -1.9480 -0.1256
 6612TIP3    H241252   2.122   4.987   4.633 -1.0276  0.7886 -0.0193
 6613TIP3   OH241253   0.637   0.308  16.151 -0.1092  0.0896 -0.3593
 6613TIP3    H141254   0.551   0.338  16.122 -0.0085  0.1141 -0.6347
 6613TIP3    H241255   0.667   0.250  16.080 -0.7108 -1.4249  0.5682
 6614TIP3   OH241256   1.407   4.040  14.163  0.5928  0.3430 -0.0799
 6614TIP3    H141257   1.473   3.974  14.188 -0.4772 -0.1610  1.5545
 6614TIP3    H241258   1.397   4.028  14.069  1.7556 -0.5814 -0.1163
 6615TIP3   OH241259   5.505   1.216   5.350  0.0220  0.2583 -0.1225
 6615TIP3    H141260   5.482   1.127   5.325  0.5104 -1.3341  4.2237
 6615TIP3    H241261   5.589   1.232   5.308  0.1455 -1.5066 -0.6294
 6616TIP3   OH241262   4.719   6.125  11.295 -0.4327  0.3041  0.2562
 6616TIP3    H141263   4.709   6.190  11.364  0.4699  1.4886 -0.6842
 6616TIP3    H241264   4.648   6.062  11.310 -0.6457  0.8892  1.8429
 6617TIP3   OH241265   3.762   0.262   6.068 -0.0458  0.1618 -0.2902
 6617TIP3    H141266   3.832   0.198   6.054  1.0483  1.4013 -0.6648
 6617TIP3    H241267   3.776   0.292   6.158 -1.9968 -1.7751  0.7418
 6618TIP3   OH241268   0.963   4.566   4.617  0.8824 -0.3941 -0.1958
 6618TIP3    H141269   0.947   4.550   4.710 -1.1379  1.1058 -0.2261
 6618TIP3    H241270   0.876   4.567   4.578  1.5411  1.1158 -1.7281
 6619TIP3   OH241271   5.718   6.291  17.189  0.3178 -0.1133 -0.1192
 6619TIP3    H141272   5.721   6.378  17.149 -1.3118  0.5388  1.0902
 6619TIP3    H241273   5.674   6.236  17.123 -1.4380  0.7238  0.2902
 6620TIP3   OH241274   5.028   6.436   5.964 -0.1009 -0.0224 -0.4372
 6620TIP3    H141275   4.975   6.357   5.960  1.4030 -1.0454 -0.8400
 6620TIP3    H241276   5.053   6.444   6.056 -0.2658 -0.0086 -0.3939
 6621TIP3   OH241277   2.704   1.074   4.872 -0.1864  0.1436  0.3083
 6621TIP3    H141278   2.705   1.118   4.957  0.6513 -0.9714  0.9102
 6621TIP3    H241279   2.797   1.061   4.852 -0.3983 -0.8356 -0.0974
 6622TIP3   OH241280   1.152   6.768   0.483  0.8986 -0.3937  0.0058
 6622TIP3    H141281   1.142   6.859   0.454  2.6828  0.7353  2.5277
 6622TIP3    H241282   1.078   6.753   0.541  1.3297 -0.0295  0.6674
 6623TIP3   OH241283   1.497   3.971   6.347  0.3439  0.6715  0.6110
 6623TIP3    H141284   1.439   3.894   6.341  0.1155  0.6547  2.5333
 6623TIP3    H241285   1.491   4.011   6.260 -0.6614 -0.6746  0.0085
 6624TIP3   OH241286   6.415   4.965   2.515  0.2941 -0.8688 -0.2959
 6624TIP3    H141287   6.484   4.901   2.526 -0.1176 -1.0444  1.5002
 6624TIP3    H241288   6.413   5.014   2.598 -1.5624 -0.7182 -0.3813
 6625TIP3   OH241289   2.463   4.583  10.817  0.2936  0.0645 -0.1360
 6625TIP3    H141290   2.394   4.618  10.760 -0.1679  0.1013  0.4292
 6625TIP3    H241291   2.498   4.660  10.862 -0.1683 -0.0904  0.5082
 6626TIP3   OH241292   6.390   0.296  10.078  0.0770  0.2834 -0.2399
 6626TIP3    H141293   6.379   0.203  10.096  0.6188 -0.0805 -1.6943
 6626TIP3    H241294   6.304   0.334  10.099 -0.0714 -0.4865  0.6043
 6627TIP3   OH241295   5.768   5.799  15.654  0.5955  0.0438 -0.0386
 6627TIP3    H141296   5.824   5.776  15.580 -0.4564 -0.4515 -0.7077
 6627TIP3    H241297   5.721   5.718  15.675  2.5584 -0.5394  2.7379
 6628TIP3   OH241298   5.835   1.432   1.156 -0.2396  0.5751  0.0518
 6628TIP3    H141299   5.780   1.355   1.173  0.0503  0.5541  0.9334
 6628TIP3    H241300   5.888   1.442   1.235 -0.7636  2.0987  0.2403
 6629TIP3   OH241301   3.156   0.049  15.734 -0.1583  0.3401  0.1412
 6629TIP3    H141302   3.168  -0.015  15.805 -1.6256 -0.1895 -0.0532
 6629TIP3    H241303   3.085   0.105  15.765  0.9985  1.8166  0.2336
 6630TIP3   OH241304   3.848   2.358  13.263 -0.0107 -0.0889  0.2551
 6630TIP3    H141305   3.876   2.442  13.300 -0.6303  0.9595 -1.5740
 6630TIP3    H241306   3.846   2.372  13.169 -1.8765 -1.6185  0.0058
 6631TIP3   OH241307   2.007   2.913  15.535 -0.0375 -0.3064 -0.4137
 6631TIP3    H141308   2.045   2.871  15.613  1.9107  0.1645 -1.0560
 6631TIP3    H241309   1.939   2.971  15.570 -1.4386 -2.4414  0.6509
 6632TIP3   OH241310   6.315   4.444  15.879 -0.4014 -0.1166 -0.1305
 6632TIP3    H141311   6.291   4.358  15.844 -0.6012  0.3237 -1.1316
 6632TIP3    H241312   6.231   4.491  15.885 -0.7412 -0.9363  3.2514
 6633TIP3   OH241313   2.894   4.244   6.047  0.5572  0.2445 -0.3039
 6633TIP3    H141314   2.870   4.163   6.093  2.1387  0.8449  1.7214
 6633TIP3    H241315   2.935   4.213   5.966  1.3489 -1.0454  0.5336
 6634TIP3   OH241316   5.192   2.945  12.345  0.0828  0.1663  0.6574
 6634TIP3    H141317   5.109   2.988  12.325  0.7943  1.4014  0.2791
 6634TIP3    H241318   5.237   2.938  12.261 -0.1481 -1.6665  0.6434
 6635TIP3   OH241319   6.648   0.400  11.272  0.0092  0.1261 -0.0634
 6635TIP3    H141320   6.721   0.444  11.229  1.1300 -1.2609  0.3689
 6635TIP3    H241321   6.570   0.445  11.237  1.0108  1.1642 -1.0644
 6636TIP3   OH241322   2.655   3.987  11.302 -0.0616  0.7103  0.0520
 6636TIP3    H141323   2.656   4.077  11.272 -1.0410  0.6437 -0.2181
 6636TIP3    H241324   2.647   3.935  11.222 -0.6146  0.4388  0.2776
 6637TIP3   OH241325   2.062   6.715   0.717 -0.0575 -0.1366  0.1834
 6637TIP3    H141326   2.151   6.696   0.747  0.8338  1.9244 -0.9056
 6637TIP3    H241327   2.034   6.788   0.772 -1.9100 -1.9388  1.8071
 6638TIP3   OH241328   1.762   2.914  14.065  0.3970 -0.3337 -0.4358
 6638TIP3    H141329   1.735   3.004  14.052  0.2823 -0.2032  0.5699
 6638TIP3    H241330   1.857   2.915  14.057  0.5205  0.1336  0.7966
 6639TIP3   OH241331   2.092   1.274   5.618  0.1059 -0.1779  0.2324
 6639TIP3    H141332   2.112   1.368   5.611  2.2349 -0.5184  0.9098
 6639TIP3    H241333   2.176   1.234   5.640 -0.7889 -2.2495  0.0587
 6640TIP3   OH241334   5.342   3.087  15.158 -0.1188  0.6310  0.3641
 6640TIP3    H141335   5.322   3.072  15.250 -2.1905  0.4637 -0.0758
 6640TIP3    H241336   5.354   3.182  15.151 -1.6203  0.8527  0.5330
 6641TIP3   OH241337   6.181   0.971  16.028  0.2976 -0.3503 -0.0895
 6641TIP3    H141338   6.132   1.031  15.972 -0.3846 -0.5637  0.2728
 6641TIP3    H241339   6.123   0.952  16.101  1.0947 -0.2597  0.5835
 6642TIP3   OH241340   2.123   2.351   2.324  0.1614  0.3125  0.2640
 6642TIP3    H141341   2.170   2.329   2.244 -1.8010  0.7679 -1.0957
 6642TIP3    H241342   2.036   2.379   2.294 -0.1881  1.8581  2.4515
 6643TIP3   OH241343   3.459   0.008   2.941  0.4707  0.1242  0.4379
 6643TIP3    H141344   3.519  -0.042   2.886  0.3445 -0.7877  1.1060
 6643TIP3    H241345   3.380   0.019   2.889  0.8400  0.4408 -0.0617
 6644TIP3   OH241346   0.034   0.296   2.973 -0.2283  0.3683 -0.1108
 6644TIP3    H141347   0.102   0.299   3.041 -0.1692  0.0300 -0.1538
 6644TIP3    H241348  -0.031   0.360   3.002 -1.3419 -1.3748  1.5070
 6645TIP3   OH241349   2.658   4.585  17.342  0.0188  0.0069  0.0056
 6645TIP3    H141350   2.614   4.653  17.393 -0.1932 -1.3156  1.6346
 6645TIP3    H241351   2.751   4.608  17.345  0.1389 -0.6096  1.9199
 6646TIP3   OH241352   4.042   1.000   5.150  0.0599  0.7719  0.3347
 6646TIP3    H141353   4.075   1.076   5.198  1.2183 -0.2559  1.2313
 6646TIP3    H241354   4.070   0.925   5.202  1.3261 -0.4009 -1.9245
 6647TIP3   OH241355   0.908   1.248   4.688 -0.2383 -0.9081  0.0457
 6647TIP3    H141356   0.928   1.296   4.769 -1.2711  1.5618 -1.0538
 6647TIP3    H241357   0.893   1.158   4.716  0.8431 -0.4361  2.3837
 6648TIP3   OH241358   6.525   1.450   4.368 -0.4156 -0.0513 -0.2146
 6648TIP3    H141359   6.452   1.402   4.405 -0.8267  0.6126 -0.1460
 6648TIP3    H241360   6.591   1.450   4.437 -1.6160  2.1787  1.0277
 6649TIP3   OH241361   5.437   2.650  14.306 -0.2528  0.7232 -0.2345
 6649TIP3    H141362   5.388   2.708  14.364  1.5358  2.1902 -0.0962
 6649TIP3    H241363   5.386   2.649  14.225 -2.1302 -0.3682  0.8952
 6650TIP3   OH241364   3.036   2.194  15.487  0.0043 -0.4094  0.0148
 6650TIP3    H141365   2.985   2.165  15.563  0.0671 -2.6097 -0.6983
 6650TIP3    H241366   2.975   2.187  15.414  0.0140  1.4676 -0.2233
 6651TIP3   OH241367   2.124   1.213   4.907 -0.2685 -0.1471 -0.3701
 6651TIP3    H141368   2.140   1.225   5.001  1.6143  0.1304 -0.6952
 6651TIP3    H241369   2.176   1.281   4.865 -2.6706  1.0767 -1.5897
 6652TIP3   OH241370   3.949   0.217  13.541 -0.0483 -0.0899  0.9045
 6652TIP3    H141371   3.948   0.205  13.446 -0.1619 -0.2377  0.9233
 6652TIP3    H241372   4.041   0.233  13.562  0.0164 -0.3078  0.7981
 6653TIP3   OH241373   2.753   5.999  11.666 -0.6422  0.1207 -0.5660
 6653TIP3    H141374   2.686   5.931  11.668 -1.1021  0.5903  0.2488
 6653TIP3    H241375   2.775   6.008  11.573 -1.6290 -0.1014 -0.8287
 6654TIP3   OH241376   5.176   3.316  16.522  0.0364  0.3810  0.1023
 6654TIP3    H141377   5.111   3.348  16.459 -0.1004 -0.1902 -0.0468
 6654TIP3    H241378   5.171   3.379  16.594  0.1684  1.0187 -0.4342
 6655TIP3   OH241379   2.175   4.497  10.715 -0.3186  0.3150 -0.0862
 6655TIP3    H141380   2.210   4.432  10.653 -0.1957 -0.4325  0.7478
 6655TIP3    H241381   2.221   4.578  10.693  0.2351 -0.1038 -0.5162
 6656TIP3   OH241382   1.629   5.998  17.034  0.2685  0.1108  0.2848
 6656TIP3    H141383   1.705   6.055  17.042  0.8864 -0.2329 -2.2141
 6656TIP3    H241384   1.564   6.035  17.094  1.8739  1.2971  1.3533
 6657TIP3   OH241385   5.464   1.768   2.336  0.6772  0.0181  0.2453
 6657TIP3    H141386   5.405   1.825   2.386  2.1937  0.4375  1.6289
 6657TIP3    H241387   5.522   1.829   2.291 -0.9675 -0.3259 -2.5592
 6658TIP3   OH241388   3.559   2.332  14.578  0.4546 -0.1909  0.1335
 6658TIP3    H141389   3.593   2.350  14.490  0.4569  0.2510  0.2212
 6658TIP3    H241390   3.611   2.388  14.636  0.8358 -0.8920  0.4851
 6659TIP3   OH241391   0.571   4.605  15.010 -0.5176 -0.0964 -0.2990
 6659TIP3    H141392   0.618   4.559  15.080  0.5902  0.1285 -0.8820
 6659TIP3    H241393   0.609   4.572  14.929  0.7120  2.1955 -0.7503
 6660TIP3   OH241394   3.166   2.955  10.872  0.5743 -0.3975 -0.1402
 6660TIP3    H141395   3.075   2.968  10.898  0.6981 -0.6427  0.4227
 6660TIP3    H241396   3.162   2.884  10.807  0.1582  0.8615 -1.5536
 6661TIP3   OH241397   5.565   4.060  15.095 -0.4433 -0.5372  0.0888
 6661TIP3    H141398   5.564   3.967  15.114 -1.7051 -0.6744 -0.5532
 6661TIP3    H241399   5.475   4.081  15.071  0.1350  0.5033 -1.3566
 6662TIP3   OH241400   2.998   2.257  11.714 -0.0549 -0.0637  0.4360
 6662TIP3    H141401   3.033   2.247  11.626 -1.5357 -1.7093 -0.0311
 6662TIP3    H241402   3.073   2.240  11.772  0.9158  0.9800 -0.4873
 6663TIP3   OH241403   0.233   3.136   2.686  0.0967 -0.2419 -0.0634
 6663TIP3    H141404   0.142   3.153   2.709 -0.5895 -2.2758 -1.0147
 6663TIP3    H241405   0.276   3.114   2.769 -0.4893 -0.1583  0.2648
 6664TIP3   OH241406   5.917   5.377   0.139 -0.0387 -0.2410  0.3746
 6664TIP3    H141407   5.914   5.418   0.225  0.1250  1.9062 -0.5802
 6664TIP3    H241408   5.879   5.442   0.080 -0.1072 -1.6336 -1.1970
 6665TIP3   OH241409   1.009   0.078  12.653 -0.6970  0.3899  0.0888
 6665TIP3    H141410   1.007   0.151  12.591  0.7070  1.3956  1.1493
 6665TIP3    H241411   1.059   0.010  12.609 -0.8893  0.5622 -0.4034
 6666TIP3   OH241412   6.497   5.031   6.254  0.0399  0.1977  0.4310
 6666TIP3    H141413   6.460   5.003   6.170  0.3764  1.5395 -0.1828
 6666TIP3    H241414   6.591   5.029   6.240  0.2304 -1.8873  1.5654
 6667TIP3   OH241415   6.517   1.544   3.354 -0.1412  0.4493  0.8063
 6667TIP3    H141416   6.577   1.494   3.410 -0.8800 -1.5913 -0.0950
 6667TIP3    H241417   6.519   1.497   3.271 -1.3204  1.6421  0.0789
 6668TIP3   OH241418   0.215   3.074   4.018 -0.5257  0.3460  0.1275
 6668TIP3    H141419   0.168   3.120   3.949 -1.7708 -0.8473  0.1220
 6668TIP3    H241420   0.308   3.087   3.997 -0.8351 -0.9755 -2.5063
 6669TIP3   OH241421   6.341   5.392   1.042 -0.5828 -0.0117 -0.2908
 6669TIP3    H141422   6.310   5.351   1.123 -2.7046 -0.8049 -1.4334
 6669TIP3    H241423   6.271   5.453   1.018  0.4002  0.8400 -1.1306
 6670TIP3   OH241424   3.571   1.836   0.376 -0.2970  0.4869  0.7080
 6670TIP3    H141425   3.572   1.897   0.302  1.0913 -1.1213 -0.6979
 6670TIP3    H241426   3.495   1.780   0.360  0.2265 -0.1099  0.2422
 6671TIP3   OH241427   0.471   4.459  14.437  0.4518  0.0626  0.1008
 6671TIP3    H141428   0.403   4.477  14.372  0.3008 -0.8553 -0.0043
 6671TIP3    H241429   0.435   4.388  14.490  0.2017  1.3652  1.7559
 6672TIP3   OH241430   1.423   0.491  14.631  0.1197 -0.1599 -0.0584
 6672TIP3    H141431   1.378   0.481  14.547 -1.6956 -0.8934  0.9668
 6672TIP3    H241432   1.356   0.518  14.692  0.7808 -2.3092  1.7660
 6673TIP3   OH241433   2.285   0.648  14.325 -0.2765  0.4266  0.6111
 6673TIP3    H141434   2.329   0.703  14.390  0.6696  1.1131 -0.5911
 6673TIP3    H241435   2.346   0.575  14.310 -1.3103 -0.7547  1.8367
 6674TIP3   OH241436   3.780   4.721  12.107  0.1186  0.0679 -0.3164
 6674TIP3    H141437   3.732   4.802  12.123 -1.8231 -1.3363  1.4702
 6674TIP3    H241438   3.730   4.654  12.153  2.9149 -1.8024  0.2427
 6675TIP3   OH241439   1.511   1.076   5.216 -0.2864 -0.0938 -0.2266
 6675TIP3    H141440   1.522   1.160   5.170 -1.0314 -0.2390 -0.6889
 6675TIP3    H241441   1.422   1.080   5.251 -0.5122 -0.9074 -0.7005
 6676TIP3   OH241442   1.793   5.363   4.595  0.1305 -0.8612  0.5175
 6676TIP3    H141443   1.804   5.405   4.510 -0.5293 -2.6499 -0.4916
 6676TIP3    H241444   1.869   5.392   4.646  2.9361 -3.0574 -2.0871
 6677TIP3   OH241445   1.622   3.728   1.307 -0.5088 -0.2729 -0.2778
 6677TIP3    H141446   1.669   3.673   1.369  0.4922  1.9254  1.0542
 6677TIP3    H241447   1.531   3.726   1.336  0.0024  1.0204  1.6185
 6678TIP3   OH241448   6.433   1.913   4.301 -0.4468  0.0295  0.3870
 6678TIP3    H141449   6.348   1.900   4.259 -0.4647 -2.0194  0.9349
 6678TIP3    H241450   6.476   1.981   4.249 -1.2519 -0.9823 -1.7182
 6679TIP3   OH241451   4.623   1.857   5.625  0.1642  0.1269  0.2280
 6679TIP3    H141452   4.589   1.773   5.655 -0.3471 -0.1432 -1.0281
 6679TIP3    H241453   4.680   1.835   5.551 -0.4488  0.9089 -0.5022
 6680TIP3   OH241454   0.918   6.174  14.949 -0.2162  0.8730  0.0186
 6680TIP3    H141455   0.947   6.265  14.951 -0.7429  1.2531 -3.6037
 6680TIP3    H241456   0.998   6.123  14.935 -0.2168  1.0187 -0.5132
 6681TIP3   OH241457   4.179   4.206   1.380 -0.0920  0.4162 -0.5396
 6681TIP3    H141458   4.188   4.112   1.363  0.3607  0.6468 -1.7322
 6681TIP3    H241459   4.134   4.240   1.302 -3.3308  0.7330  1.2941
 6682TIP3   OH241460   6.369   4.391  17.265  0.1190  0.3511 -0.2665
 6682TIP3    H141461   6.399   4.481  17.276  3.5209 -0.4869 -1.3800
 6682TIP3    H241462   6.343   4.386  17.173 -0.8617  0.3653  0.0002
 6683TIP3   OH241463   3.344   5.249   2.449  0.4068 -0.8787  0.3572
 6683TIP3    H141464   3.428   5.259   2.494  0.6568 -1.4412  0.0202
 6683TIP3    H241465   3.352   5.304   2.371  0.5457 -1.0975  0.2149
 6684TIP3   OH241466   5.992   1.456  13.109 -0.3266  0.2874 -0.0863
 6684TIP3    H141467   5.927   1.387  13.114  0.1095 -0.0539  1.0159
 6684TIP3    H241468   6.005   1.470  13.015 -0.5722 -0.9680 -0.3144
 6685TIP3   OH241469   5.963   0.176   2.961  0.3600 -0.2911  0.4317
 6685TIP3    H141470   5.977   0.269   2.977  0.0125 -0.2981  0.8062
 6685TIP3    H241471   6.042   0.147   2.917  0.8204  0.0021  1.0541
 6686TIP3   OH241472   4.955   6.667   4.638 -0.1058 -0.2581 -0.2346
 6686TIP3    H141473   5.045   6.668   4.671  0.2813  3.4714 -0.9827
 6686TIP3    H241474   4.905   6.621   4.706  2.0271 -0.5379  1.2288
 6687TIP3   OH241475   0.381   0.132   5.934  0.1773 -0.5605  0.3596
 6687TIP3    H141476   0.422   0.091   5.858 -0.5610 -0.4480 -0.1095
 6687TIP3    H241477   0.388   0.067   6.004 -0.8852 -1.4682 -0.3450
 6688TIP3   OH241478   3.602   1.735   3.193 -0.0216 -0.8676 -0.0812
 6688TIP3    H141479   3.612   1.646   3.228 -2.8317 -0.7099  1.4168
 6688TIP3    H241480   3.646   1.791   3.257 -0.3566 -1.0233  0.2952
 6689TIP3   OH241481   2.130   3.036   0.402 -0.1245 -0.4163  0.4202
 6689TIP3    H141482   2.137   3.088   0.321 -0.0729  2.1913  1.9789
 6689TIP3    H241483   2.069   2.966   0.380  0.3188 -0.1328 -2.0322
 6690TIP3   OH241484   5.805   0.627  17.002 -0.1966 -0.3799  0.6634
 6690TIP3    H141485   5.738   0.695  17.010  0.6218  0.4958  0.2353
 6690TIP3    H241486   5.830   0.628  16.910  0.3999 -0.7032  0.8148
 6691TIP3   OH241487   6.055   5.494   5.486  0.3126 -0.0980  0.1905
 6691TIP3    H141488   6.051   5.518   5.393 -2.1516  2.3845  0.8216
 6691TIP3    H241489   6.055   5.398   5.485 -0.5914 -0.1499 -2.3537
 6692TIP3   OH241490   2.123   0.782  11.614 -0.2482 -0.5238 -0.4156
 6692TIP3    H141491   2.098   0.699  11.572 -0.2283 -1.4050  1.2316
 6692TIP3    H241492   2.124   0.845  11.543  0.9864 -2.1880 -1.9649
 6693TIP3   OH241493   1.321   5.940   2.435 -0.1369 -0.4452 -0.2495
 6693TIP3    H141494   1.231   5.923   2.462  0.5375 -1.7181  1.3537
 6693TIP3    H241495   1.334   6.033   2.454 -0.8814 -0.4297  0.2560
 6694TIP3   OH241496   6.257   3.998  12.535  0.2585 -0.7732  0.2840
 6694TIP3    H141497   6.317   4.067  12.506 -0.7880  0.3593  0.7018
 6694TIP3    H241498   6.308   3.945  12.595  0.1043  1.9927  3.1346
 6695TIP3   OH241499   5.724   0.096   4.483 -0.1514  0.1197  0.1168
 6695TIP3    H141500   5.780   0.166   4.449  1.8931 -0.4349  2.1345
 6695TIP3    H241501   5.686   0.133   4.563 -0.8449 -0.3372  0.0060
 6696TIP3   OH241502   4.922   5.263  14.373  0.1391  0.0453 -0.4793
 6696TIP3    H141503   4.859   5.261  14.301 -0.6106  1.5154  0.0802
 6696TIP3    H241504   4.961   5.351  14.368  2.8378 -1.0934 -1.3427
 6697TIP3   OH241505   5.962   6.182   0.868  0.3177  0.1049  0.7675
 6697TIP3    H141506   5.909   6.107   0.843  0.6943 -0.2298  0.9645
 6697TIP3    H241507   6.045   6.145   0.897  0.7308  0.6301  0.2937
 6698TIP3   OH241508   4.535   5.592  16.457 -0.0756 -0.3150  0.4063
 6698TIP3    H141509   4.538   5.580  16.362  1.2205  1.0633  0.2368
 6698TIP3    H241510   4.453   5.637  16.474  0.4837  1.0036 -0.2857
 6699TIP3   OH241511   0.966   6.285   0.927 -0.3073  0.0417 -0.2248
 6699TIP3    H141512   1.031   6.351   0.950 -0.1044  0.2559 -1.3813
 6699TIP3    H241513   1.018   6.207   0.906 -0.4371  0.1548 -0.9599
 6700TIP3   OH241514   5.610   3.364  12.576 -0.1102 -0.1133 -0.1824
 6700TIP3    H141515   5.520   3.331  12.583 -0.2315  0.1118 -0.6182
 6700TIP3    H241516   5.602   3.458  12.595  0.3863 -0.4710  2.1195
 6701TIP3   OH241517   0.832   6.034  14.472  0.0525 -0.1241 -0.9940
 6701TIP3    H141518   0.926   6.014  14.466 -0.0449 -1.1584  0.5175
 6701TIP3    H241519   0.801   5.981  14.545 -1.5224  0.9389 -0.8538
 6702TIP3   OH241520   1.669   5.629   5.515  0.2956 -0.1047 -0.0753
 6702TIP3    H141521   1.637   5.575   5.588  0.4731 -0.6730 -0.4136
 6702TIP3    H241522   1.620   5.711   5.523 -0.0282 -0.3383  0.4062
 6703TIP3   OH241523   3.406   6.742   2.587 -0.7806 -0.2453 -0.5658
 6703TIP3    H141524   3.418   6.697   2.671 -3.1324 -0.0392 -0.0426
 6703TIP3    H241525   3.311   6.745   2.575 -0.6143  2.1792 -1.9068
 6704TIP3   OH241526   6.241   1.463   3.114  0.2820 -0.0984 -0.2798
 6704TIP3    H141527   6.215   1.534   3.173  1.4428  0.1063 -0.0029
 6704TIP3    H241528   6.208   1.384   3.156 -0.9661  0.2556 -0.5586
 6705TIP3   OH241529   3.406   5.497  13.344  0.1861 -0.8798  0.2516
 6705TIP3    H141530   3.356   5.422  13.310  0.6228 -1.5964  1.1499
 6705TIP3    H241531   3.497   5.473  13.330  0.3331  0.1691 -0.8339
 6706TIP3   OH241532   3.107   0.486   2.059  0.0737 -0.3954 -0.2369
 6706TIP3    H141533   3.066   0.565   2.024 -1.9441 -2.3349 -2.6760
 6706TIP3    H241534   3.195   0.487   2.023 -0.6362 -0.2453 -2.0995
 6707TIP3   OH241535   2.109   5.368  13.857 -0.4310  0.3874 -0.1407
 6707TIP3    H141536   2.157   5.449  13.876 -1.7799  0.8391  1.6888
 6707TIP3    H241537   2.065   5.347  13.939  0.4650 -2.6769 -0.3128
 6708TIP3   OH241538   6.484   4.214  10.256 -0.3162  0.4982  0.3510
 6708TIP3    H141539   6.483   4.127  10.216 -3.1009  0.5916  0.0035
 6708TIP3    H241540   6.577   4.233  10.270  0.3929 -2.4697  0.3771
 6709TIP3   OH241541   1.395   6.322   5.501  0.1533  0.4504  0.5561
 6709TIP3    H141542   1.471   6.374   5.477  2.6540 -2.2283  2.1169
 6709TIP3    H241543   1.371   6.352   5.588 -0.5565  1.2111  0.1131
 6710TIP3   OH241544   3.871   5.874   4.907 -0.3955  0.3586  0.1789
 6710TIP3    H141545   3.814   5.858   4.831  0.0130 -0.5589  0.0528
 6710TIP3    H241546   3.959   5.876   4.872 -0.3566  2.6103  0.2541
 6711TIP3   OH241547   0.275   1.420  15.914  0.4449  0.1402 -0.2303
 6711TIP3    H141548   0.201   1.375  15.874 -1.2385  1.4812  1.2267
 6711TIP3    H241549   0.279   1.504  15.868 -0.4127  0.9840  1.1627
 6712TIP3   OH241550   5.358   2.013  14.250 -0.0692  0.1376  0.6422
 6712TIP3    H141551   5.453   2.022  14.252 -0.1878  1.6704  1.1298
 6712TIP3    H241552   5.342   1.921  14.268  1.2981  0.1419  2.1432
 6713TIP3   OH241553   3.261   0.619  10.845 -0.0436  0.0306 -0.4042
 6713TIP3    H141554   3.240   0.706  10.811 -0.8976 -0.2914 -0.7122
 6713TIP3    H241555   3.281   0.634  10.937 -0.3291  0.5307 -0.4196
 6714TIP3   OH241556   3.552   3.712   0.705  0.2812 -0.0126  0.2855
 6714TIP3    H141557   3.606   3.639   0.737  2.1143  1.5793  1.0226
 6714TIP3    H241558   3.471   3.670   0.676  1.4637 -2.4008  0.1419
 6715TIP3   OH241559   1.889   2.858   4.986  0.3742  0.3964 -0.1166
 6715TIP3    H141560   1.982   2.841   4.991 -0.1177 -2.6708  0.3907
 6715TIP3    H241561   1.860   2.814   4.906 -0.6697  1.3128 -0.2776
 6716TIP3   OH241562   1.948   6.589  13.110  0.6291 -0.0595  0.2317
 6716TIP3    H141563   1.885   6.659  13.092  0.6436  0.2501  1.2791
 6716TIP3    H241564   1.960   6.545  13.026  0.6432  1.2140 -0.4527
 6717TIP3   OH241565   1.898   4.290   3.190 -0.5256 -0.2297 -0.3569
 6717TIP3    H141566   1.872   4.292   3.282 -1.8210  0.6882 -0.7287
 6717TIP3    H241567   1.895   4.197   3.167  2.9518 -0.9381  1.3367
 6718TIP3   OH241568   2.439   3.284   1.741 -0.4930  0.1080  0.9590
 6718TIP3    H141569   2.369   3.314   1.800 -0.5053  1.4218  0.3126
 6718TIP3    H241570   2.445   3.352   1.674  0.6989 -0.5042  0.4070
 6719TIP3   OH241571   1.726   4.979  13.655 -0.4323  0.1666 -0.3462
 6719TIP3    H141572   1.636   5.003  13.676 -0.9636 -0.9234 -1.2500
 6719TIP3    H241573   1.750   5.037  13.582 -0.2279  0.7586  0.1787
 6720TIP3   OH241574   0.888   4.987  17.207 -0.3167 -0.6121 -0.6409
 6720TIP3    H141575   0.801   5.025  17.198 -0.4025 -0.7904 -0.5800
 6720TIP3    H241576   0.893   4.960  17.299  0.3863  0.7960 -0.2369
 6721TIP3   OH241577   0.783   0.681  15.304 -0.2147 -0.3767  0.1984
 6721TIP3    H141578   0.819   0.697  15.391 -2.6894  0.3265  1.1885
 6721TIP3    H241579   0.823   0.598  15.276  2.3964  0.5286  0.9267
 6722TIP3   OH241580   3.592   1.071  15.199 -0.0945 -0.4718 -0.5663
 6722TIP3    H141581   3.602   1.067  15.294  1.2374  0.2015 -0.6582
 6722TIP3    H241582   3.557   0.985  15.175 -1.3855 -0.3146  0.6210
 6723TIP3   OH241583   0.927   1.376   3.404  0.1660  0.5514 -0.0879
 6723TIP3    H141584   0.982   1.299   3.417 -0.3085  0.6071  2.7213
 6723TIP3    H241585   0.843   1.342   3.375 -0.6050 -0.2662  2.7713
 6724TIP3   OH241586   6.078   6.638   5.723  0.1324  0.2037  0.5848
 6724TIP3    H141587   6.023   6.577   5.674  0.9809  0.0274 -0.1667
 6724TIP3    H241588   6.119   6.692   5.656  0.3079  0.8118  1.1808
 6725TIP3   OH241589   4.703   6.225   3.305 -0.1762  0.0281 -0.3734
 6725TIP3    H141590   4.664   6.311   3.291 -0.5898  0.0871  0.9740
 6725TIP3    H241591   4.770   6.240   3.372 -0.9664 -0.8555  0.6573
 6726TIP3   OH241592   0.225   6.472   3.383  0.1724 -0.1459 -0.2983
 6726TIP3    H141593   0.183   6.450   3.300 -0.9131  1.5664 -0.2543
 6726TIP3    H241594   0.192   6.406   3.444 -1.1599  0.1513 -0.6574
 6727TIP3   OH241595   1.260   4.010  14.997  0.1170 -0.2438 -0.0190
 6727TIP3    H141596   1.303   3.926  15.008  2.4583  0.6028 -1.8362
 6727TIP3    H241597   1.326   4.074  15.025  0.1217  1.1051 -2.7951
 6728TIP3   OH241598   2.447   1.233  10.714  0.4857  0.2754 -0.2929
 6728TIP3    H141599   2.524   1.253  10.661  1.0363 -0.6736  0.1227
 6728TIP3    H241600   2.482   1.210  10.800 -0.4350  2.2884  0.6666
 6729TIP3   OH241601   5.381   6.591   1.834 -0.0106 -0.4435 -0.0433
 6729TIP3    H141602   5.451   6.638   1.880  0.0775 -1.4411  0.8608
 6729TIP3    H241603   5.425   6.520   1.789 -0.5812 -2.0076  1.7633
 6730TIP3   OH241604   4.617   4.505   4.000 -0.8462 -0.5480  0.0157
 6730TIP3    H141605   4.686   4.462   4.050 -1.0131 -0.7791  0.0492
 6730TIP3    H241606   4.537   4.491   4.051 -0.9649 -0.5196 -0.1596
 6731TIP3   OH241607   5.284   4.901  16.587 -0.1498 -0.0227  0.1472
 6731TIP3    H141608   5.325   4.873  16.669 -1.3102 -1.0997  0.3965
 6731TIP3    H241609   5.190   4.890  16.602 -0.5131  1.6084 -0.6802
 6732TIP3   OH241610   3.985   0.492  11.613 -0.4365 -0.1655 -0.3187
 6732TIP3    H141611   4.077   0.515  11.601 -0.4607 -0.6424 -1.7022
 6732TIP3    H241612   3.976   0.408  11.567 -1.3597 -0.5985  0.6172
 6733TIP3   OH241613   1.610   1.907   2.284 -0.3921 -0.3469 -0.1433
 6733TIP3    H141614   1.689   1.955   2.261 -0.1224 -0.8861 -0.3707
 6733TIP3    H241615   1.599   1.844   2.212 -1.2707  0.0128 -0.3444
 6734TIP3   OH241616   6.604   1.343   4.979 -0.0716 -0.6418 -0.0400
 6734TIP3    H141617   6.556   1.377   5.054  0.2408 -1.8458  0.7220
 6734TIP3    H241618   6.636   1.421   4.934  0.0292  0.0991  1.2631
 6735TIP3   OH241619   3.772   5.963   6.493  0.0665 -0.3673  0.3880
 6735TIP3    H141620   3.819   6.034   6.449 -3.2215  0.2601 -2.5131
 6735TIP3    H241621   3.832   5.889   6.491  2.5139  1.4733  0.9139
 6736TIP3   OH241622   0.746   6.022  16.769 -0.9913 -0.2966 -0.0366
 6736TIP3    H141623   0.786   5.942  16.735 -1.3307 -0.3828 -0.2415
 6736TIP3    H241624   0.776   6.091  16.710 -0.5014 -0.2305  0.2832
 6737TIP3   OH241625   5.840   0.717  12.308 -0.4542  0.5476 -0.8739
 6737TIP3    H141626   5.757   0.753  12.337 -0.9750 -0.2122 -1.3707
 6737TIP3    H241627   5.904   0.787  12.322 -0.6451  0.2566  2.0784
 6738TIP3   OH241628   0.045   0.236   0.586 -0.8266  0.2118 -0.2599
 6738TIP3    H141629   0.109   0.287   0.635 -0.9119  0.4463 -0.3912
 6738TIP3    H241630  -0.035   0.242   0.638 -1.6264  2.4985 -1.5939
 6739TIP3   OH241631   1.545   5.253   3.738 -0.0803  0.2362  0.3699
 6739TIP3    H141632   1.574   5.226   3.825  0.1189  0.9444  0.5286
 6739TIP3    H241633   1.476   5.190   3.716 -1.0641  0.8224  1.6081
 6740TIP3   OH241634   5.880   4.516  13.870  0.4175 -0.3521 -0.2437
 6740TIP3    H141635   5.917   4.434  13.837  1.9323  0.3735 -0.4370
 6740TIP3    H241636   5.948   4.552  13.927 -0.2018  0.7817 -0.1903
 6741TIP3   OH241637   6.339   6.705   0.236  0.6009 -0.2167  0.3158
 6741TIP3    H141638   6.329   6.633   0.175 -0.4176 -0.1762  0.4230
 6741TIP3    H241639   6.397   6.671   0.304  0.9167 -0.6007 -0.1394
 6742TIP3   OH241640   3.477   0.145   3.847  0.0151 -0.0989 -0.0432
 6742TIP3    H141641   3.497   0.238   3.859  0.3628 -0.3867  1.9188
 6742TIP3    H241642   3.542   0.115   3.783  2.3409  0.2482  2.0011
 6743TIP3   OH241643   5.029   5.714  14.615 -0.8081  0.2770  0.1811
 6743TIP3    H141644   5.085   5.741  14.541  0.3526 -0.8338  0.6058
 6743TIP3    H241645   4.987   5.795  14.644 -1.0892  0.7939 -1.5104
 6744TIP3   OH241646   3.534   6.657   1.075  0.1265  0.1421  0.0813
 6744TIP3    H141647   3.492   6.689   1.155  1.2614 -0.6188  1.0152
 6744TIP3    H241648   3.545   6.735   1.021 -1.6024  0.5105  0.1900
 6745TIP3   OH241649   2.180   6.092  13.173  0.3302 -0.3922  0.2447
 6745TIP3    H141650   2.098   6.106  13.126 -0.8337  0.1448  2.3419
 6745TIP3    H241651   2.173   6.145  13.252  2.1985 -1.2790  1.0795
 6746TIP3   OH241652   2.853   6.142   2.383 -0.0950 -0.0777  0.1319
 6746TIP3    H141653   2.786   6.150   2.315 -0.6696 -0.3932  0.6519
 6746TIP3    H241654   2.890   6.230   2.391  1.2453 -0.3812 -1.8319
 6747TIP3   OH241655   6.232   0.355  11.057  0.0841  0.2469 -0.0932
 6747TIP3    H141656   6.192   0.430  11.013 -1.2835  0.5269  1.5391
 6747TIP3    H241657   6.276   0.306  10.987 -2.0145  0.6463 -1.7793
 6748TIP3   OH241658   3.154   4.883   2.975 -0.0244  0.3618  0.1725
 6748TIP3    H141659   3.185   4.805   2.928  3.2107  2.3430 -1.3536
 6748TIP3    H241660   3.060   4.885   2.958  0.2220 -1.7316 -2.0438
 6749TIP3   OH241661   1.262   5.251   0.425  0.4107  0.4756  0.2143
 6749TIP3    H141662   1.322   5.283   0.357 -0.6814  0.5953 -0.7286
 6749TIP3    H241663   1.253   5.158   0.406 -1.0416  0.7833 -0.7520
 6750TIP3   OH241664   6.104   2.777   3.593 -0.3477  0.1592 -0.6601
 6750TIP3    H141665   6.086   2.690   3.626  2.0281 -0.2363 -0.1698
 6750TIP3    H241666   6.197   2.774   3.568 -0.8414  1.8238 -3.0069
 6751TIP3   OH241667   5.071   5.545   4.698 -0.3339  0.1044  0.5589
 6751TIP3    H141668   5.163   5.569   4.702 -0.4659  0.6069  0.7230
 6751TIP3    H241669   5.065   5.479   4.629  0.2418 -0.3871  0.9679
 6752TIP3   OH241670   1.168   0.064  16.631  0.1701 -0.1372  0.1016
 6752TIP3    H141671   1.146  -0.022  16.595 -2.1853  0.8678 -1.0741
 6752TIP3    H241672   1.216   0.108  16.561 -0.6221  0.2973 -0.1731
 6753TIP3   OH241673   4.490   1.100  14.660 -0.1010  0.4458 -0.3125
 6753TIP3    H141674   4.456   1.146  14.583  1.6269  0.4903 -1.0910
 6753TIP3    H241675   4.574   1.143  14.678 -0.0098 -0.2430  0.9799
 6754TIP3   OH241676   6.312   1.697   5.302 -0.0107  0.1876 -0.0601
 6754TIP3    H141677   6.398   1.732   5.279  0.3226 -2.1264 -2.9160
 6754TIP3    H241678   6.252   1.737   5.239 -0.3687 -0.9175 -0.4446
 6755TIP3   OH241679   2.988   6.039  15.465 -0.0562  0.0769 -0.3680
 6755TIP3    H141680   2.989   5.973  15.395 -0.1736  0.6326 -0.8953
 6755TIP3    H241681   2.938   5.998  15.535  1.4440 -1.1574  0.0602
 6756TIP3   OH241682   0.872   5.474  12.362 -0.1704 -0.6615  0.2820
 6756TIP3    H141683   0.910   5.413  12.425  0.7750 -0.3166  0.0522
 6756TIP3    H241684   0.791   5.504  12.404  0.4554 -0.4224  1.3457
 6757TIP3   OH241685   4.488   2.577   5.683  0.2198 -0.9243 -0.2914
 6757TIP3    H141686   4.567   2.525   5.666  1.5166  0.5662  0.8827
 6757TIP3    H241687   4.445   2.532   5.755  1.7240 -0.0734  1.2229
 6758TIP3   OH241688   2.987   6.180   1.288 -0.1384  0.2004  0.1519
 6758TIP3    H141689   2.957   6.114   1.226  0.4878  0.7201 -0.7164
 6758TIP3    H241690   3.027   6.248   1.234 -1.2084  1.5466  0.9840
 6759TIP3   OH241691   6.473   2.665   5.225  0.0320 -0.8393  0.0820
 6759TIP3    H141692   6.546   2.718   5.193  0.8157 -0.0991  2.8700
 6759TIP3    H241693   6.425   2.641   5.146  2.4483 -0.1320 -1.7178
 6760TIP3   OH241694   6.694   0.036  13.050  0.0692  0.4792  0.5374
 6760TIP3    H141695   6.699   0.131  13.052 -0.3049  0.5115  0.1284
 6760TIP3    H241696   6.775   0.006  13.092 -0.1996  0.9787  1.4224
 6761TIP3   OH241697   1.687   4.218   2.117  0.2953 -0.2076 -0.0123
 6761TIP3    H141698   1.668   4.263   2.034  3.0981  1.6745  0.2555
 6761TIP3    H241699   1.615   4.155   2.126  0.5518 -1.5316 -4.5597
 6762TIP3   OH241700   4.663   1.709  14.912  0.0285  0.0575 -0.1384
 6762TIP3    H141701   4.728   1.711  14.982 -0.5533 -0.8988  0.4548
 6762TIP3    H241702   4.606   1.784  14.930  1.4812  1.4837 -1.2126
 6763TIP3   OH241703   3.976   3.062  16.576  0.4098 -0.3613 -0.3562
 6763TIP3    H141704   3.943   3.049  16.487 -0.7401 -3.0336  0.3556
 6763TIP3    H241705   3.942   3.147  16.603 -1.2972 -0.5882 -1.6353
 6764TIP3   OH241706   4.799   6.657   1.451 -0.3457  0.3940  0.3270
 6764TIP3    H141707   4.731   6.719   1.424  0.7171  1.3268 -0.2740
 6764TIP3    H241708   4.849   6.704   1.518  0.3068  0.0894  0.0584
 6765TIP3   OH241709   1.334   2.908   0.790 -0.1609 -0.6954  0.7503
 6765TIP3    H141710   1.307   2.864   0.871 -0.6432 -1.1911  0.3379
 6765TIP3    H241711   1.302   2.850   0.720  2.6058 -1.7153  0.1909
 6766TIP3   OH241712   0.976   2.953   2.945  0.1196 -0.3208 -0.1628
 6766TIP3    H141713   0.922   3.027   2.970 -1.0855 -1.1172 -0.3128
 6766TIP3    H241714   0.935   2.878   2.988  0.2431 -1.1536 -1.4460
 6767TIP3   OH241715   4.632   0.741  16.851  0.2698 -0.3180  0.0263
 6767TIP3    H141716   4.590   0.798  16.916  2.6442  0.0238  1.3830
 6767TIP3    H241717   4.694   0.689  16.902  1.2110 -1.0436 -1.7955
 6768TIP3   OH241718   0.588   0.475  15.389 -0.3891 -0.1596 -0.4321
 6768TIP3    H141719   0.638   0.413  15.337 -1.0326 -1.2686  0.2287
 6768TIP3    H241720   0.575   0.550  15.331  0.1553 -0.7566 -1.3528
 6769TIP3   OH241721   6.546   4.329  11.882  0.3599 -0.1499  0.0178
 6769TIP3    H141722   6.609   4.312  11.951  0.3780  1.0623  0.3239
 6769TIP3    H241723   6.598   4.335  11.802  0.1625 -3.3651 -0.4753
 6770TIP3   OH241724   6.588   5.261  14.313  0.1271 -0.2525 -0.2711
 6770TIP3    H141725   6.539   5.180  14.324  1.3338 -0.7269  2.6968
 6770TIP3    H241726   6.532   5.328  14.352 -0.5777  0.2881 -2.1176
 6771TIP3   OH241727   6.527   1.728  12.099 -0.7867 -0.1211  0.1918
 6771TIP3    H141728   6.492   1.640  12.083  0.7159 -0.5466 -1.0137
 6771TIP3    H241729   6.616   1.725  12.064  0.1437  1.1856  2.2654
 6772TIP3   OH241730   1.431   6.767  13.308  0.3276  0.1989 -0.0906
 6772TIP3    H141731   1.434   6.693  13.369 -1.7041 -0.0932 -0.2692
 6772TIP3    H241732   1.522   6.791  13.295  1.0499 -2.2777 -0.0383
 6773TIP3   OH241733   6.590   1.606   0.846  0.2910  0.1389  0.1724
 6773TIP3    H141734   6.680   1.575   0.853  1.0067  2.2405  1.0652
 6773TIP3    H241735   6.550   1.586   0.931 -0.6071 -2.0690 -0.6789
 6774TIP3   OH241736   4.299   1.322  11.792 -0.1125  0.0064  0.0685
 6774TIP3    H141737   4.366   1.383  11.763 -0.0232 -0.2183 -0.1976
 6774TIP3    H241738   4.221   1.376  11.803  0.4364  0.5176  1.6803
 6775TIP3   OH241739   5.894   4.242   0.569 -0.1779  0.0270 -0.0399
 6775TIP3    H141740   5.946   4.282   0.639  1.0338  0.7611 -1.3130
 6775TIP3    H241741   5.874   4.314   0.510 -3.2737 -0.0999  0.7108
 6776TIP3   OH241742   1.087   0.413   2.351  0.0721  0.3724 -0.2017
 6776TIP3    H141743   1.069   0.498   2.312 -0.6660 -0.1693 -1.0871
 6776TIP3    H241744   1.110   0.356   2.277 -0.0489 -0.3397  0.2904
 6777TIP3   OH241745   3.151   5.168  16.381 -0.2072  0.4907 -0.4319
 6777TIP3    H141746   3.216   5.106  16.415  0.9007  0.8225 -1.8652
 6777TIP3    H241747   3.155   5.242  16.440 -1.1966 -0.5423  1.0177
 6778TIP3   OH241748   4.323   4.195  12.739 -0.1696  0.3676 -0.0516
 6778TIP3    H141749   4.241   4.145  12.745  0.3498 -0.4321  0.5061
 6778TIP3    H241750   4.325   4.247  12.819 -0.4089  0.8309 -0.3418
 6779TIP3   OH241751   2.141   0.519   2.880  0.0527  0.6721  0.2893
 6779TIP3    H141752   2.102   0.581   2.818  0.4699 -0.2225 -0.9000
 6779TIP3    H241753   2.088   0.440   2.872  1.7211 -0.4012 -1.0192
 6780TIP3   OH241754   5.867   3.944  16.766 -0.3365 -0.7451 -0.6441
 6780TIP3    H141755   5.959   3.953  16.740  0.4048 -2.0433  1.2994
 6780TIP3    H241756   5.868   3.955  16.861 -2.1521 -1.2082 -0.5386
 6781TIP3   OH241757   0.727   2.759  15.702 -0.4073 -0.5572 -0.4817
 6781TIP3    H141758   0.783   2.836  15.700 -0.5394 -0.3342  1.7583
 6781TIP3    H241759   0.669   2.769  15.627  1.2030  0.2073 -1.6979
 6782TIP3   OH241760   3.069   6.199   3.553  0.1721  0.9568  0.6208
 6782TIP3    H141761   3.100   6.115   3.587 -0.5787  1.1665  1.8925
 6782TIP3    H241762   3.044   6.180   3.462  0.5027 -0.0596  0.7263
 6783TIP3   OH241763   3.502   6.018  12.148 -0.0875  0.2217  0.5138
 6783TIP3    H141764   3.524   5.963  12.073 -1.9448 -0.9558  0.7518
 6783TIP3    H241765   3.413   6.048  12.130  0.2392  1.6903  1.2589
 6784TIP3   OH241766   4.961   1.633   6.830  0.4780 -0.3054 -0.2248
 6784TIP3    H141767   4.995   1.553   6.870  1.4938  1.1064  1.9343
 6784TIP3    H241768   5.038   1.689   6.819 -0.6201  2.2226  2.9566
 6785TIP3   OH241769   0.801   3.273  15.900 -0.3907 -0.4810  0.1645
 6785TIP3    H141770   0.778   3.191  15.944  1.8083 -1.5454 -0.5486
 6785TIP3    H241771   0.854   3.320  15.963  1.5816 -1.3827 -0.7435
 6786TIP3   OH241772   5.325   1.956  12.176  0.0188  0.2451  0.2529
 6786TIP3    H141773   5.361   1.902  12.106  1.2769  0.8677  0.3810
 6786TIP3    H241774   5.364   2.042  12.162  2.3977 -0.1789  3.1260
 6787TIP3   OH241775   3.783   6.391  13.905  0.1872  0.9623  0.0537
 6787TIP3    H141776   3.764   6.477  13.943 -1.5448  0.2363  0.9566
 6787TIP3    H241777   3.841   6.349  13.969 -0.8334  0.6321  0.8061
 6788TIP3   OH241778   6.507   2.894   1.609  0.3817  0.0553  0.2368
 6788TIP3    H141779   6.480   2.816   1.656  1.4528 -0.4083  0.0977
 6788TIP3    H241780   6.589   2.870   1.566  0.5693  1.1536 -0.0572
 6789TIP3   OH241781   0.963   2.329  15.727  0.0900 -0.3897 -0.3435
 6789TIP3    H141782   0.944   2.416  15.762  0.5053  0.0030 -1.0552
 6789TIP3    H241783   0.884   2.279  15.743 -0.4308  0.3386 -0.5640
 6790TIP3   OH241784   0.671   4.051  10.561  0.2200 -0.0765 -0.3574
 6790TIP3    H141785   0.703   4.129  10.516  0.4293 -0.4264 -0.8260
 6790TIP3    H241786   0.675   3.982  10.495  0.2372 -0.5309  0.1106
 6791TIP3   OH241787   4.354   0.703  17.188 -0.8708 -0.1479  0.0535
 6791TIP3    H141788   4.306   0.647  17.127  0.2049  2.0766 -3.0923
 6791TIP3    H241789   4.402   0.764  17.132  2.6699  0.1823  3.0902
 6792TIP3   OH241790   1.864   6.689  14.665  0.5223 -0.7880 -0.4009
 6792TIP3    H141791   1.901   6.617  14.716  0.8119 -1.8499 -2.0393
 6792TIP3    H241792   1.833   6.752  14.731  3.0140 -0.9659  1.0608
 6793TIP3   OH241793   2.724   2.321  16.842 -0.1673  0.1737 -0.3136
 6793TIP3    H141794   2.693   2.344  16.755  2.0291  1.3044 -0.8745
 6793TIP3    H241795   2.731   2.226  16.842 -2.6964 -0.0793 -0.4054
 6794TIP3   OH241796   0.901   1.798  11.428 -0.3198  0.4233  0.2451
 6794TIP3    H141797   0.991   1.775  11.453 -0.3459 -0.0922 -0.1188
 6794TIP3    H241798   0.908   1.824  11.336 -0.6830 -0.5384 -0.0707
 6795TIP3   OH241799   0.855   6.286   1.215 -0.3462  0.0727 -0.2415
 6795TIP3    H141800   0.901   6.202   1.224 -0.3359 -0.1069 -1.7307
 6795TIP3    H241801   0.895   6.342   1.281  0.3837 -0.7799  0.0654
 6796TIP3   OH241802   5.789   0.353   6.657  0.2390 -0.1905 -0.0645
 6796TIP3    H141803   5.700   0.384   6.638  0.0393 -0.6985  0.0375
 6796TIP3    H241804   5.800   0.275   6.604  0.1148 -0.9304  0.9675
 6797TIP3   OH241805   1.621   2.055  13.968 -0.2235 -0.4757  0.5113
 6797TIP3    H141806   1.714   2.068  13.949  0.0163 -2.0919  0.4334
 6797TIP3    H241807   1.611   1.960  13.974 -1.7587 -0.2992  1.1309
 6798TIP3   OH241808   1.625   3.326   1.685 -0.5767 -0.4575 -0.0374
 6798TIP3    H141809   1.674   3.256   1.642 -1.2142 -0.4264 -0.8538
 6798TIP3    H241810   1.641   3.314   1.778  1.0630 -0.3763 -0.2894
 6799TIP3   OH241811   3.523   6.150  15.603  0.2573  0.1321  0.2684
 6799TIP3    H141812   3.471   6.069  15.603  0.6527 -0.1266 -0.3195
 6799TIP3    H241813   3.470   6.212  15.652 -0.0068 -0.5182  0.8256
 6800TIP3   OH241814   4.145   5.062   1.529 -0.1842  0.1172  0.3557
 6800TIP3    H141815   4.053   5.067   1.555 -0.4136 -1.1368 -0.1168
 6800TIP3    H241816   4.165   4.968   1.533  0.8544  0.2991 -0.2818
 6801TIP3   OH241817   5.168   4.341   2.275 -0.0275  0.5322 -0.1105
 6801TIP3    H141818   5.200   4.362   2.362  1.1488  0.8941 -0.6079
 6801TIP3    H241819   5.147   4.425   2.236  0.6712  0.4861 -0.6138
 6802TIP3   OH241820   0.713   1.715  17.259 -0.6840 -0.6345 -0.3048
 6802TIP3    H141821   0.766   1.791  17.281 -1.0082 -0.1431 -1.1664
 6802TIP3    H241822   0.644   1.714  17.326  1.1726 -2.1370  1.7346
 6803TIP3   OH241823   6.093   5.634   2.717 -0.0731 -0.0105 -0.7341
 6803TIP3    H141824   6.185   5.656   2.731 -0.0604 -0.5778  0.2127
 6803TIP3    H241825   6.044   5.699   2.767 -0.2120  0.5243 -1.5502
 6804TIP3   OH241826   6.202   5.440  16.169  0.3467 -0.1932 -0.2627
 6804TIP3    H141827   6.291   5.451  16.137  0.9675  1.4282  1.7981
 6804TIP3    H241828   6.146   5.477  16.100  1.2571 -0.8705 -1.3966
 6805TIP3   OH241829   5.356   2.409   6.417 -0.2324 -0.3164 -0.1795
 6805TIP3    H141830   5.298   2.473   6.375 -0.3119  0.0981  0.5566
 6805TIP3    H241831   5.427   2.462   6.454 -0.9495 -0.5060  1.5288
 6806TIP3   OH241832   3.410   4.757   1.859 -0.0522 -0.3151  0.0438
 6806TIP3    H141833   3.485   4.717   1.815  0.4139  1.8457 -1.3128
 6806TIP3    H241834   3.440   4.771   1.949  1.2650  0.6380 -0.5072
 6807TIP3   OH241835   2.778   3.527  14.576  0.0604  0.2557 -0.3213
 6807TIP3    H141836   2.709   3.558  14.635 -0.3377  1.2411 -1.2712
 6807TIP3    H241837   2.731   3.482  14.506  0.3698  0.8194 -0.9084
 6808TIP3   OH241838   0.968   2.130   0.665  0.2899 -0.2555 -0.4684
 6808TIP3    H141839   0.991   2.222   0.679 -1.6092  0.0787  0.8071
 6808TIP3    H241840   0.922   2.104   0.745 -0.6509 -1.8318 -1.4675
 6809TIP3   OH241841   2.117   4.266   3.594 -0.4319  0.2512  0.1114
 6809TIP3    H141842   2.106   4.329   3.523  1.7005 -0.1242 -0.6291
 6809TIP3    H241843   2.084   4.184   3.559 -0.2662  0.2705 -0.0880
 6810TIP3   OH241844   4.163   1.802   2.863 -0.2149  0.2410  0.1707
 6810TIP3    H141845   4.094   1.791   2.798 -0.3865  2.2995 -0.0357
 6810TIP3    H241846   4.125   1.860   2.929  1.0686  0.8281  0.4222
 6811TIP3   OH241847   4.274   5.498   1.404  0.2304  0.0912  0.5001
 6811TIP3    H141848   4.198   5.492   1.461  0.1432  0.1818  0.3920
 6811TIP3    H241849   4.251   5.563   1.338 -0.4349 -1.4039 -0.8062
 6812TIP3   OH241850   6.195   3.663  13.787  0.2001  0.4769 -0.3779
 6812TIP3    H141851   6.169   3.617  13.707  1.7657 -0.2771 -0.5035
 6812TIP3    H241852   6.117   3.710  13.814 -0.4173  0.6450 -2.2765
 6813TIP3   OH241853   1.981   4.068   1.698 -0.0367  0.6147 -0.3603
 6813TIP3    H141854   1.915   4.122   1.655  0.1985  1.1706 -0.0231
 6813TIP3    H241855   2.007   4.118   1.775 -1.4864 -0.9780  1.2829
 6814TIP3   OH241856   5.489   3.371   5.551 -0.4014  0.1611  0.2038
 6814TIP3    H141857   5.552   3.303   5.576 -0.2572 -0.4821 -1.7641
 6814TIP3    H241858   5.468   3.414   5.633  2.9926  0.7499  0.9312
 6815TIP3   OH241859   4.870   4.203  12.525 -0.3804 -0.2493  0.5345
 6815TIP3    H141860   4.902   4.145  12.594  0.5451 -0.5829 -0.1628
 6815TIP3    H241861   4.822   4.145  12.466 -0.7905 -0.0392  0.6591
 6816TIP3   OH241862   4.314   5.216  13.411  0.2045 -0.5110 -0.1820
 6816TIP3    H141863   4.270   5.271  13.346 -1.4108 -1.6550 -0.1234
 6816TIP3    H241864   4.379   5.166  13.360  1.7189  1.3987 -0.2235
 6817TIP3   OH241865   2.576   3.516  17.012  0.2518  0.4980 -0.3233
 6817TIP3    H141866   2.600   3.531  16.921 -1.1503  2.7826 -0.3867
 6817TIP3    H241867   2.591   3.600  17.056 -3.6175  0.9751  0.4296
 6818TIP3   OH241868   5.846   5.083   0.863 -0.0214  0.1184  0.3805
 6818TIP3    H141869   5.785   5.154   0.878  1.1595  1.2746 -0.0868
 6818TIP3    H241870   5.840   5.029   0.941 -2.7399 -0.6865 -0.2999
 6819TIP3   OH241871   2.364   1.799   2.654  0.3587 -0.3662 -0.9256
 6819TIP3    H141872   2.279   1.841   2.650 -1.2344 -3.0350  1.2872
 6819TIP3    H241873   2.348   1.709   2.628  2.3449 -1.1055  0.1940
 6820TIP3   OH241874   4.946   5.340   1.863  0.4832 -0.4061  0.0199
 6820TIP3    H141875   4.851   5.343   1.854  0.3785  0.0607  1.0823
 6820TIP3    H241876   4.964   5.394   1.940  1.6642  0.0469 -0.5448
 6821TIP3   OH241877   4.747   5.059   1.487 -0.3071 -0.8135  0.4409
 6821TIP3    H141878   4.793   5.138   1.460 -0.6751 -0.1940  1.6071
 6821TIP3    H241879   4.669   5.090   1.533  0.3877 -1.8106  2.4090
 6822TIP3   OH241880   6.389   3.838  16.249  0.1988  0.0015  0.0968
 6822TIP3    H141881   6.435   3.831  16.165  2.4877  2.3715  1.0204
 6822TIP3    H241882   6.451   3.802  16.313 -0.2582  0.9524  1.0995
 6823TIP3   OH241883   5.967   0.853  13.878 -0.2248  0.4239  0.3546
 6823TIP3    H141884   5.950   0.771  13.925  1.8599 -0.2210  0.0661
 6823TIP3    H241885   6.053   0.841  13.838 -1.1413  1.6329 -2.2042
 6824TIP3   OH241886   5.108   5.298  15.545 -0.0881 -0.0333  0.7326
 6824TIP3    H141887   5.067   5.340  15.469  0.9483  0.0271  0.1956
 6824TIP3    H241888   5.184   5.252  15.509  0.8181  0.5698  1.8302
 6825TIP3   OH241889   0.574   3.714  14.215  0.2562  0.4856 -0.0745
 6825TIP3    H141890   0.498   3.714  14.157  0.3067  1.1233 -0.1482
 6825TIP3    H241891   0.635   3.775  14.175  0.7404  0.1073  0.0797
 6826TIP3   OH241892   5.236   3.614  14.166 -0.4415  0.0924  0.6183
 6826TIP3    H141893   5.330   3.632  14.165 -0.4745  0.5101  2.3247
 6826TIP3    H241894   5.223   3.552  14.094  1.1205  0.0346  0.3455
 6827TIP3   OH241895   6.276   1.398  14.164  0.1370  0.5358 -0.3033
 6827TIP3    H141896   6.368   1.423  14.173  0.5664 -0.8551 -0.4984
 6827TIP3    H241897   6.228   1.481  14.159  1.1252  1.3522  2.0840
 6828TIP3   OH241898   3.622   4.482  13.302 -0.8921  0.3184  0.3212
 6828TIP3    H141899   3.662   4.548  13.245 -1.2212  0.7751  0.6079
 6828TIP3    H241900   3.669   4.401  13.282 -0.8729  0.5085 -0.4629
 6829TIP3   OH241901   0.452   3.567  16.760  0.0400  0.6766  0.6636
 6829TIP3    H141902   0.536   3.548  16.802 -0.1092  1.3366  1.2861
 6829TIP3    H241903   0.388   3.515  16.808  0.1204 -0.0942 -0.0314
 6830TIP3   OH241904   4.649   1.426   3.019  0.8675  0.2020  0.4892
 6830TIP3    H141905   4.584   1.361   3.046  0.5770 -0.0020 -0.6545
 6830TIP3    H241906   4.598   1.495   2.976  1.3332  0.4197  0.2766
 6831TIP3   OH241907   0.485   2.631  12.279  0.5014 -0.3139  0.0129
 6831TIP3    H141908   0.537   2.554  12.301  1.4303  0.0331 -0.9051
 6831TIP3    H241909   0.547   2.703  12.279  0.3186 -0.0818 -2.3320
 6832TIP3   OH241910   5.667   3.087  14.289  0.7673 -0.7586 -0.2987
 6832TIP3    H141911   5.700   3.011  14.335  0.4796 -0.2758  0.7400
 6832TIP3    H241912   5.691   3.073  14.197  0.1003 -2.4133 -0.2361
 6833TIP3   OH241913   5.665   2.177   3.144 -0.1577 -0.5697 -0.0613
 6833TIP3    H141914   5.744   2.225   3.117 -0.4262  0.3053  0.6459
 6833TIP3    H241915   5.696   2.089   3.164  0.4189 -0.6008 -1.0286
 6834TIP3   OH241916   3.028   2.699  16.593 -0.2919 -0.1867  0.2639
 6834TIP3    H141917   2.982   2.782  16.586  0.5640  0.2626 -0.1600
 6834TIP3    H241918   2.960   2.633  16.584 -1.1654  0.4569  1.8629
 6835TIP3   OH241919   0.505   3.362   4.258 -0.5211 -0.3144 -0.8814
 6835TIP3    H141920   0.484   3.336   4.347  0.7606  0.8364 -0.1979
 6835TIP3    H241921   0.497   3.457   4.258 -0.8754 -0.3224 -2.1137
 6836TIP3   OH241922   5.124   3.398  15.875  0.2800 -0.1723 -0.4094
 6836TIP3    H141923   5.197   3.392  15.813  1.0432 -0.6033  0.5068
 6836TIP3    H241924   5.081   3.481  15.854  2.0675  0.9426  0.1283
 6837TIP3   OH241925   4.084   4.101   6.230 -0.4997  0.3201  0.9414
 6837TIP3    H141926   4.179   4.113   6.234 -0.3116 -1.0605  1.2695
 6837TIP3    H241927   4.056   4.103   6.322 -0.6047 -0.4727  0.9335
 6838TIP3   OH241928   4.742   2.164  16.536  0.2516 -0.0782  0.0936
 6838TIP3    H141929   4.724   2.076  16.569  2.8740 -1.7229 -2.2759
 6838TIP3    H241930   4.796   2.205  16.604  1.2124 -1.3827  0.1661
 6839TIP3   OH241931   2.420   0.315  13.900 -1.1680 -0.4769  0.1985
 6839TIP3    H141932   2.477   0.245  13.866  1.4150  1.2663  0.6230
 6839TIP3    H241933   2.396   0.366  13.823 -0.3072  0.0079  0.2320
 6840TIP3   OH241934   4.730   2.527   5.956  0.2591  0.3457 -0.2359
 6840TIP3    H141935   4.793   2.577   6.009 -0.3392 -0.0784  0.9019
 6840TIP3    H241936   4.674   2.484   6.020 -1.4063  0.9647 -1.2356
 6841TIP3   OH241937   4.920   5.835  15.321 -0.2732 -0.1545 -0.4463
 6841TIP3    H141938   4.924   5.845  15.226 -3.9418  0.2168 -0.6933
 6841TIP3    H241939   4.892   5.745  15.335 -1.5509  0.3144  0.1527
 6842TIP3   OH241940   3.115   2.354   2.412 -0.2278 -0.0535  0.4033
 6842TIP3    H141941   3.050   2.287   2.387 -0.4892  0.0426  0.8110
 6842TIP3    H241942   3.186   2.342   2.349 -1.2355  0.7501 -0.9467
 6843TIP3   OH241943   0.429   0.230   6.400  0.1937  0.1911  0.5986
 6843TIP3    H141944   0.358   0.219   6.463  1.3955 -0.1632  1.9384
 6843TIP3    H241945   0.424   0.322   6.374 -0.1553  0.4204  1.4328
 6844TIP3   OH241946   6.194   3.995   5.696  0.2330  0.1564  0.8577
 6844TIP3    H141947   6.235   3.920   5.737 -0.6322 -0.7970  0.0381
 6844TIP3    H241948   6.208   4.067   5.757  1.5185 -0.5451  1.4189
 6845TIP3   OH241949   2.390   5.360   2.184  0.4906  0.3756 -0.2011
 6845TIP3    H141950   2.357   5.421   2.119 -0.4958 -1.8792 -1.9741
 6845TIP3    H241951   2.312   5.330   2.231  0.8958  0.1688  0.3548
 6846TIP3   OH241952   1.663   2.873  13.243 -0.1525  0.3107 -0.0043
 6846TIP3    H141953   1.754   2.876  13.273  0.1522 -0.6769 -0.7627
 6846TIP3    H241954   1.647   2.780  13.225 -1.5946  0.3412  0.9461
 6847TIP3   OH241955   5.470   6.567  17.397  0.0335 -0.1591 -0.6747
 6847TIP3    H141956   5.434   6.484  17.366  0.8733 -0.5268 -0.6939
 6847TIP3    H241957   5.547   6.542  17.449  0.2404  0.5990 -0.6053
 6848TIP3   OH241958   4.580   0.384  11.193 -0.3631  0.2299  0.0810
 6848TIP3    H141959   4.564   0.428  11.109  0.4519  1.6008  0.6207
 6848TIP3    H241960   4.666   0.344  11.183 -1.4207 -2.0471 -0.6957
 6849TIP3   OH241961   2.862   6.637  15.899 -0.2419  0.0331  0.0506
 6849TIP3    H141962   2.855   6.587  15.981  0.4884  1.1268  0.7988
 6849TIP3    H241963   2.951   6.619  15.868 -0.0384  0.7248  0.2317
 6850TIP3   OH241964   4.240   1.060  11.659 -0.0045 -0.2473  0.3333
 6850TIP3    H141965   4.322   1.027  11.623 -0.8029 -0.5974 -1.2718
 6850TIP3    H241966   4.266   1.118  11.731  1.7811  1.5192 -1.6183
 6851TIP3   OH241967   2.559   2.906   5.181  0.4350  0.5831  0.3918
 6851TIP3    H141968   2.490   2.841   5.179 -0.2775  1.3118  0.6790
 6851TIP3    H241969   2.625   2.874   5.119 -0.5379  0.3095 -0.5116
 6852TIP3   OH241970   5.399   5.461  13.342 -0.5720 -0.6019  0.3291
 6852TIP3    H141971   5.378   5.436  13.431 -1.9402  0.0825  0.2269
 6852TIP3    H241972   5.326   5.427  13.289 -1.2038  1.3182 -0.1352
 6853TIP3   OH241973   0.493   4.990  16.151  0.0415  0.1017  0.0003
 6853TIP3    H141974   0.581   4.978  16.116 -0.0158 -0.6629  0.1176
 6853TIP3    H241975   0.448   4.907  16.133 -0.8159  0.6608 -0.5339
 6854TIP3   OH241976   0.564   4.969   1.907 -0.7420 -0.1246  0.2861
 6854TIP3    H141977   0.614   5.030   1.853 -0.4188 -0.7346 -0.1111
 6854TIP3    H241978   0.479   4.964   1.863 -0.4981 -0.5765 -0.1426
 6855TIP3   OH241979   6.435   2.834  13.308 -0.3179 -0.1055  0.1021
 6855TIP3    H141980   6.423   2.895  13.235 -0.5165 -1.2206 -0.8290
 6855TIP3    H241981   6.525   2.802  13.298  0.1400  0.7463  1.1808
 6856TIP3   OH241982   4.063   6.161  11.568 -0.1952  0.2832 -0.1749
 6856TIP3    H141983   4.004   6.137  11.496  0.2367 -2.0212  0.1541
 6856TIP3    H241984   4.063   6.084  11.625 -0.3255  1.9488  2.1950
 6857TIP3   OH241985   5.419   0.253  11.749  0.1485  0.5793 -0.8231
 6857TIP3    H141986   5.392   0.345  11.756 -1.9335 -0.0235 -0.3017
 6857TIP3    H241987   5.371   0.209  11.818 -0.4489 -1.2400 -2.3317
 6858TIP3   OH241988   5.456   1.963   0.485 -0.4068 -0.2298 -0.5656
 6858TIP3    H141989   5.401   2.035   0.517 -0.8237 -0.4809 -0.7155
 6858TIP3    H241990   5.499   1.998   0.407 -0.3578 -0.0371 -0.4534
 6859TIP3   OH241991   3.735   5.740   3.026  0.0886 -0.1589  0.0839
 6859TIP3    H141992   3.695   5.656   3.048 -1.5625  0.7815  0.8939
 6859TIP3    H241993   3.797   5.757   3.097  0.5021 -0.7295 -0.1362
 6860TIP3   OH241994   4.012   4.503   1.775  0.2496 -0.3557 -0.6929
 6860TIP3    H141995   3.998   4.529   1.866  1.4333 -0.4340 -0.4650
 6860TIP3    H241996   4.023   4.408   1.778  0.0151 -0.3929 -0.9575
 6861TIP3   OH241997   0.713   3.419  13.159 -0.6878  0.2611  0.0440
 6861TIP3    H141998   0.700   3.351  13.092 -1.5024  0.9874 -0.5700
 6861TIP3    H241999   0.671   3.383  13.237  1.2300 -1.0682  0.5172
 6862TIP3   OH242000   2.462   5.591  14.285  0.1119  0.2830  0.3368
 6862TIP3    H142001   2.470   5.686  14.285 -0.3619  0.3256  0.1754
 6862TIP3    H242002   2.521   5.562  14.216 -0.6986  0.5519 -0.4880
 6863TIP3   OH242003   1.267   1.966   2.058 -0.6424  0.4012 -0.4174
 6863TIP3    H142004   1.220   1.888   2.088  0.0498  0.0304 -0.2796
 6863TIP3    H242005   1.284   2.016   2.138  2.7703 -1.4428  0.1587
 6864TIP3   OH242006   1.719   4.004  14.349  0.6594 -0.1413 -0.4893
 6864TIP3    H142007   1.661   4.029  14.421  0.3072 -0.0945 -0.7883
 6864TIP3    H242008   1.744   4.087  14.309  0.9851 -0.1574 -0.3235
 6865TIP3   OH242009   2.978   0.070   5.547 -0.1265  0.1455 -0.0706
 6865TIP3    H142010   2.957   0.163   5.542 -2.0805 -0.0322  2.5242
 6865TIP3    H242011   3.073   0.066   5.530  0.0695  2.6192  0.0341
 6866TIP3   OH242012   2.954   6.419   5.246 -0.0846  0.0939  1.1980
 6866TIP3    H142013   2.971   6.453   5.334  0.9903  0.5271  0.8410
 6866TIP3    H242014   3.040   6.419   5.203 -0.3235 -1.5474  0.6354
 6867TIP3   OH242015   3.333   0.270   2.479  0.1384  0.2205  0.3723
 6867TIP3    H142016   3.276   0.196   2.498  0.1545 -0.2566 -1.2900
 6867TIP3    H242017   3.421   0.235   2.486  0.1759  0.3599  0.6151
 6868TIP3   OH242018   0.704   3.636   5.578 -0.4722  0.2642 -0.6596
 6868TIP3    H142019   0.752   3.557   5.603 -1.1305  0.2459  0.6461
 6868TIP3    H242020   0.760   3.709   5.605  0.0822  0.2607 -1.7561
 6869TIP3   OH242021   6.303   0.592   3.327 -0.3663  0.0336 -0.1529
 6869TIP3    H142022   6.250   0.595   3.407  1.5010  0.7756  1.1060
 6869TIP3    H242023   6.326   0.683   3.309  1.0790 -0.3251 -0.2406
 6870TIP3   OH242024   0.215   3.281  15.891 -0.2890 -0.4947  0.3397
 6870TIP3    H142025   0.132   3.329  15.887 -0.2729 -0.4664  0.3441
 6870TIP3    H242026   0.259   3.316  15.968 -1.2358 -2.0937  1.6530
 6871TIP3   OH242027   6.400   4.360   0.723  0.2894  0.3541 -0.0748
 6871TIP3    H142028   6.405   4.342   0.629  0.3565 -0.8830  0.1494
 6871TIP3    H242029   6.306   4.364   0.742  0.2635 -0.2414 -0.0548
 6872TIP3   OH242030   4.708   6.279   1.554  0.2694 -0.1470  0.2207
 6872TIP3    H142031   4.683   6.238   1.471  0.3596  0.8398 -0.3137
 6872TIP3    H242032   4.801   6.299   1.543  0.8157 -1.8714  1.3729
 6873TIP3   OH242033   4.139   4.315   6.729  0.1164 -0.0953 -0.8125
 6873TIP3    H142034   4.182   4.400   6.720  1.1045 -0.4208  0.6466
 6873TIP3    H242035   4.076   4.327   6.800 -0.3651 -0.3690 -1.1787
 6874TIP3   OH242036   6.061   1.432   0.146 -0.3620  0.1958  0.2461
 6874TIP3    H142037   6.130   1.369   0.167 -0.1072  0.7855  1.2826
 6874TIP3    H242038   6.090   1.514   0.188 -1.1882  0.7236 -0.1863
 6875TIP3   OH242039   6.678   5.362  17.379  0.3620  0.1595 -0.4201
 6875TIP3    H142040   6.752   5.422  17.390 -0.7259  1.5176 -0.2137
 6875TIP3    H242041   6.603   5.419  17.363 -0.6380 -1.1845 -0.7134
 6876TIP3   OH242042   4.226   2.523  11.772  0.0242 -0.0870 -0.1088
 6876TIP3    H142043   4.189   2.506  11.685 -0.3562 -0.4668  0.1290
 6876TIP3    H242044   4.215   2.617  11.784 -1.1490 -0.2378  0.0903
 6877TIP3   OH242045   5.047   5.300   1.502 -0.6663  0.1844 -0.3821
 6877TIP3    H142046   5.054   5.251   1.584 -1.2089  1.0057  0.1674
 6877TIP3    H242047   4.953   5.317   1.491 -0.6339 -0.1291 -1.3125
 6878TIP3   OH242048   3.487   2.471   6.031 -0.0825  0.3711 -0.3827
 6878TIP3    H142049   3.558   2.418   6.069 -1.1811 -0.2441  0.9102
 6878TIP3    H242050   3.440   2.505   6.106 -1.5324  0.2543 -1.1960
 6879TIP3   OH242051   2.826   6.166  11.375 -0.7671 -0.3624  0.2245
 6879TIP3    H142052   2.883   6.157  11.300 -0.0541 -0.6747  0.7928
 6879TIP3    H242053   2.738   6.177  11.338 -0.2846  0.6554 -0.6603
 6880TIP3   OH242054   3.589   3.364   4.079  0.1422 -0.5625 -0.3488
 6880TIP3    H142055   3.554   3.421   4.147 -0.1360 -0.4602 -0.5727
 6880TIP3    H242056   3.612   3.424   4.008 -1.7643 -0.8425 -1.2869
 6881TIP3   OH242057   3.059   5.264   4.519  0.4926 -0.5593 -0.0288
 6881TIP3    H142058   3.121   5.234   4.585 -1.6103  1.0010  2.8775
 6881TIP3    H242059   3.027   5.184   4.478  2.0785 -1.5757  0.6289
 6882TIP3   OH242060   1.348   0.014  16.052  0.1136 -0.3661 -0.3932
 6882TIP3    H142061   1.343   0.015  15.956  1.4668  1.3878 -0.4873
 6882TIP3    H242062   1.311   0.098  16.078  2.9527  0.7634  0.3592
 6883TIP3   OH242063   3.361   1.560   4.752  0.3061 -0.0178  0.3281
 6883TIP3    H142064   3.432   1.611   4.790  1.1294  2.1854 -3.6641
 6883TIP3    H242065   3.404   1.488   4.706 -0.2701 -0.1054 -0.0883
 6884TIP3   OH242066   3.750   3.555  12.903 -0.2352 -0.4483 -0.4780
 6884TIP3    H142067   3.741   3.482  12.842 -0.2358 -0.9786  0.1564
 6884TIP3    H242068   3.844   3.560  12.921 -0.1181  0.2863 -1.2128
 6885TIP3   OH242069   0.029   4.914  12.764  0.3957 -0.0701  0.5486
 6885TIP3    H142070  -0.015   4.987  12.720 -0.7860 -1.2357 -0.2496
 6885TIP3    H242071  -0.039   4.873  12.817  1.3312  0.0920  1.9180
 6886TIP3   OH242072   3.529   1.391  14.592  0.4302 -0.1512 -0.6738
 6886TIP3    H142073   3.450   1.413  14.641  0.2433 -0.0157 -1.0380
 6886TIP3    H242074   3.562   1.312  14.634  0.3669  0.0598 -0.2158
 6887TIP3   OH242075   2.054   4.517  13.643  0.6998  0.5782 -0.1103
 6887TIP3    H142076   2.049   4.473  13.558 -0.9182  0.0813  0.1989
 6887TIP3    H242077   2.043   4.610  13.622 -1.9203  0.2892 -0.3251
 6888TIP3   OH242078   2.446   1.152  14.711 -0.7395 -0.6370 -0.0785
 6888TIP3    H142079   2.533   1.190  14.703 -0.5498 -1.0776 -0.1164
 6888TIP3    H242080   2.388   1.228  14.721 -0.3009 -0.3617  0.4493
 6889TIP3   OH242081   1.999   0.192  11.449  0.0372 -0.0946 -0.3727
 6889TIP3    H142082   2.072   0.163  11.396  1.5430 -0.2775  1.6790
 6889TIP3    H242083   2.013   0.286  11.460 -1.9028  0.5667 -2.6049
 6890TIP3   OH242084   0.220   2.756  15.059 -0.5687 -0.5612  0.6708
 6890TIP3    H142085   0.222   2.677  15.005  0.8980 -0.0991 -0.0039
 6890TIP3    H242086   0.166   2.818  15.010 -0.8355 -0.7871  0.6789
 6891TIP3   OH242087   0.059   1.483  12.758 -0.1096  0.4759  0.3270
 6891TIP3    H142088   0.021   1.522  12.680 -1.1787 -2.4890 -0.7677
 6891TIP3    H242089   0.145   1.452  12.731 -0.5685 -0.7560  0.1965
 6892TIP3   OH242090   3.602   4.465  12.925  0.0348  0.2136  0.2960
 6892TIP3    H142091   3.623   4.450  12.833  1.5333 -0.0437  0.6557
 6892TIP3    H242092   3.581   4.378  12.959  0.8260  0.0932  0.5005
 6893TIP3   OH242093   6.388   1.879  15.767 -0.5868  0.6524 -0.4183
 6893TIP3    H142094   6.399   1.825  15.846 -1.3827  0.2916 -0.5436
 6893TIP3    H242095   6.377   1.968  15.800  0.9875  0.7966 -0.2180
 6894TIP3   OH242096   4.899   0.641  15.588  0.4303  0.3078 -0.2845
 6894TIP3    H142097   4.956   0.631  15.664  1.2649 -1.2789 -1.0750
 6894TIP3    H242098   4.815   0.605  15.617  0.7089 -0.1834 -0.0741
 6895TIP3   OH242099   2.224   0.398  12.900 -0.2547 -0.1808 -0.2144
 6895TIP3    H142100   2.177   0.421  12.820 -0.0698  2.3195  0.3003
 6895TIP3    H242101   2.156   0.378  12.964 -0.6304  1.9740  0.1198
 6896TIP3   OH242102   4.919   0.140   5.055 -0.5639  0.0745  0.3679
 6896TIP3    H142103   4.995   0.138   5.114  0.6196 -0.3399 -1.1144
 6896TIP3    H242104   4.867   0.064   5.081 -0.4223  0.2892  1.3143
 6897TIP3   OH242105   0.653   5.981   5.509 -0.1846 -0.3264 -0.2008
 6897TIP3    H142106   0.576   6.005   5.561  0.1025 -0.9889  0.5441
 6897TIP3    H242107   0.718   5.953   5.573  1.3914  2.0412 -0.6560
 6898TIP3   OH242108   1.915   6.561   3.113 -0.3928 -0.2495  0.2439
 6898TIP3    H142109   1.940   6.511   3.035  1.1654 -0.6066  0.9186
 6898TIP3    H242110   1.928   6.652   3.088  2.8657 -0.4130  0.8384
 6899TIP3   OH242111   4.719   3.472  16.140  0.1490  0.2654  0.0668
 6899TIP3    H142112   4.637   3.450  16.094 -0.4860  0.0134  1.2744
 6899TIP3    H242113   4.699   3.457  16.232  0.8569  2.3967  0.6117
 6900TIP3   OH242114   0.939   3.321   0.765 -0.2451  0.3044 -0.2139
 6900TIP3    H142115   0.884   3.245   0.787 -1.3117  1.3724  0.9716
 6900TIP3    H242116   0.877   3.393   0.757  0.9567  1.4961  0.8388
 6901TIP3   OH242117   6.475   1.016  11.467  0.2822 -0.1137 -0.5116
 6901TIP3    H142118   6.404   0.971  11.421  1.0064 -2.4288  0.4620
 6901TIP3    H242119   6.483   0.968  11.549 -0.0193  2.9734  1.4709
 6902TIP3   OH242120   4.778   6.231  17.413  0.1756  0.4025  0.1163
 6902TIP3    H142121   4.779   6.189  17.327  1.7926  2.4466 -0.9638
 6902TIP3    H242122   4.849   6.296  17.409  2.6336 -1.6032  4.1360
 6903TIP3   OH242123   0.496   0.621   5.500  0.1944  0.1344 -0.0329
 6903TIP3    H142124   0.545   0.541   5.488  0.3968  0.3265 -0.5193
 6903TIP3    H242125   0.520   0.676   5.425 -2.2316 -0.5109 -1.4154
 6904TIP3   OH242126   1.426   1.219   1.652 -0.0430  0.0430 -0.0832
 6904TIP3    H142127   1.332   1.231   1.664  0.2348  1.5271  0.8582
 6904TIP3    H242128   1.450   1.284   1.585  0.3119 -0.3497 -0.3409
 6905TIP3   OH242129   0.448   4.321   1.589  0.7606  0.1140 -0.5051
 6905TIP3    H142130   0.451   4.338   1.683 -0.6009 -1.0888 -0.1943
 6905TIP3    H242131   0.458   4.406   1.548 -0.3081  0.8876  0.7772
 6906TIP3   OH242132   3.344   4.577  16.853 -0.1571 -0.0419 -0.2638
 6906TIP3    H142133   3.333   4.499  16.798  0.8089  0.4405 -1.1862
 6906TIP3    H242134   3.324   4.547  16.941  1.1774 -1.6026 -0.4343
 6907TIP3   OH242135   3.877   5.142   3.144 -0.3201 -0.1502 -0.3661
 6907TIP3    H142136   3.866   5.197   3.066 -0.9668 -0.6170 -0.6176
 6907TIP3    H242137   3.823   5.065   3.126 -1.9396  0.5232  1.2991
 6908TIP3   OH242138   1.996   2.040  14.491 -0.5522  0.6358 -0.1365
 6908TIP3    H142139   2.075   2.094  14.495 -0.4831  0.8106 -2.5145
 6908TIP3    H242140   1.937   2.087  14.433 -1.8811 -0.1915  0.4835
 6909TIP3   OH242141   3.281   4.133   4.669 -0.1259 -0.1250  0.5213
 6909TIP3    H142142   3.326   4.060   4.713  1.2657 -0.3661 -1.1785
 6909TIP3    H242143   3.346   4.169   4.609 -1.4281  1.2340 -0.1535
 6910TIP3   OH242144   4.801   4.562  16.080  0.0590  0.4878  0.4185
 6910TIP3    H142145   4.845   4.477  16.072 -1.1406 -0.5894  3.6351
 6910TIP3    H242146   4.710   4.543  16.058  0.2965  1.7195 -1.8892
 6911TIP3   OH242147   6.101   5.754   2.078 -0.0075  0.1630 -0.1227
 6911TIP3    H142148   6.057   5.828   2.038 -1.2727 -0.5196 -0.0469
 6911TIP3    H242149   6.112   5.779   2.170  2.3674  1.4859 -0.6792
 6912TIP3   OH242150   4.832   3.487   1.436 -0.1556  0.1122 -0.0845
 6912TIP3    H142151   4.926   3.493   1.424 -0.1673 -0.2977 -0.3901
 6912TIP3    H242152   4.821   3.446   1.522 -0.0716  2.4513  1.1232
 6913TIP3   OH242153   6.686   4.844  10.922  0.2178  0.2007  0.7862
 6913TIP3    H142154   6.627   4.919  10.920  0.2739  0.2479  0.9336
 6913TIP3    H242155   6.681   4.808  10.834 -0.5583 -0.1989  0.9832
 6914TIP3   OH242156   5.251   5.756   1.999 -0.0954  0.4474 -0.1150
 6914TIP3    H142157   5.339   5.739   1.965 -0.5175 -0.1439 -0.9484
 6914TIP3    H242158   5.240   5.693   2.070  0.9154  1.9041  1.4213
 6915TIP3   OH242159   4.818   3.696   3.198 -0.1689 -0.0778 -0.1017
 6915TIP3    H142160   4.835   3.603   3.212  0.5960 -0.4678 -2.9840
 6915TIP3    H242161   4.722   3.703   3.196 -0.2240 -0.9127 -0.4514
 6916TIP3   OH242162   3.412   5.919  14.790  0.3041 -0.5152  0.0879
 6916TIP3    H142163   3.468   5.853  14.831 -1.0414 -1.9311 -0.2398
 6916TIP3    H242164   3.469   5.964  14.728  1.5633 -0.5237  1.2110
 6917TIP3   OH242165   5.246   5.083  13.763 -0.1713 -0.0130 -0.0276
 6917TIP3    H142166   5.285   5.157  13.809  1.4402 -0.6345 -0.3316
 6917TIP3    H242167   5.313   5.015  13.766 -0.9751 -0.8955 -1.1882
 6918TIP3   OH242168   2.371   0.938  15.615  0.9545 -0.0541  0.0110
 6918TIP3    H142169   2.316   0.878  15.665  0.7212  1.3029  1.4614
 6918TIP3    H242170   2.361   1.022  15.660  2.0977  0.8292 -1.3247
 6919TIP3   OH242171   6.300   3.137  15.112  0.1353 -0.3982 -0.1294
 6919TIP3    H142172   6.230   3.192  15.079  1.6893  1.2120 -0.9144
 6919TIP3    H242173   6.256   3.058  15.144 -1.8438 -0.2459 -2.2541
 6920TIP3   OH242174   4.027   1.499   5.233  0.1357  0.1364 -0.4263
 6920TIP3    H142175   4.016   1.482   5.139  1.5038  1.4364 -0.8708
 6920TIP3    H242176   3.973   1.434   5.276 -1.1286 -0.0151 -2.1406
 6921TIP3   OH242177   1.540   5.194  17.414 -0.0396  0.6300 -0.1498
 6921TIP3    H142178   1.488   5.125  17.374  0.9591 -0.1136 -0.2172
 6921TIP3    H242179   1.569   5.249  17.341  0.2303  0.3648 -0.2434
 6922TIP3   OH242180   5.719   2.698  17.343  0.3317  0.4964  0.0505
 6922TIP3    H142181   5.783   2.664  17.405  0.9427  0.8667 -0.3587
 6922TIP3    H242182   5.755   2.676  17.257 -0.5711 -0.1330 -0.1741
 6923TIP3   OH242183   1.143   1.108  15.696  0.1556 -0.2947  0.4990
 6923TIP3    H142184   1.073   1.084  15.756  0.2716  0.0113  0.7600
 6923TIP3    H242185   1.221   1.066  15.731  0.0208 -1.0336 -0.0601
 6924TIP3   OH242186   2.714   0.500   0.935  0.1406 -0.1413 -0.5157
 6924TIP3    H142187   2.718   0.412   0.974 -0.7110 -0.2702 -0.7010
 6924TIP3    H242188   2.628   0.504   0.895  0.6617  0.3206 -1.6200
 6925TIP3   OH242189   1.393   1.681   5.180  0.2611 -0.5233 -0.5860
 6925TIP3    H142190   1.334   1.618   5.222  0.5130  0.1583  0.8532
 6925TIP3    H242191   1.396   1.654   5.088 -0.9276 -1.6054 -0.3311
 6926TIP3   OH242192   2.196   1.155  10.744 -0.1801  0.7022  0.0788
 6926TIP3    H142193   2.265   1.219  10.732  1.3128 -0.3888  2.1264
 6926TIP3    H242194   2.148   1.154  10.661  1.7046  2.1372 -1.0947
 6927TIP3   OH242195   6.109   6.364  13.432 -0.0704  0.7569 -0.8947
 6927TIP3    H142196   6.166   6.439  13.417 -0.8498  1.3061 -1.1775
 6927TIP3    H242197   6.043   6.369  13.363  0.9328 -1.2647 -2.0852
 6928TIP3   OH242198   3.329   3.200  12.605  0.1404 -1.0494 -0.4705
 6928TIP3    H142199   3.273   3.276  12.589  1.4304  0.3552  1.2514
 6928TIP3    H242200   3.288   3.129  12.556 -1.5213  0.5739 -1.5645
 6929TIP3   OH242201   5.138   1.504  15.528 -0.2526  0.2460 -0.3412
 6929TIP3    H142202   5.188   1.457  15.461  2.0535  0.6046  1.0147
 6929TIP3    H242203   5.081   1.437  15.566  0.1346 -0.5211 -1.0586
 6930TIP3   OH242204   4.665   6.520   0.951 -0.4232  0.5659 -0.5366
 6930TIP3    H142205   4.643   6.611   0.932 -1.1849  0.7605  1.1268
 6930TIP3    H242206   4.684   6.518   1.045 -3.2901 -1.4964  0.1338
 6931TIP3   OH242207   2.586   3.517  16.296 -0.1799 -0.2185 -0.3845
 6931TIP3    H142208   2.571   3.576  16.369 -0.0586 -0.1006 -0.4533
 6931TIP3    H242209   2.662   3.554  16.250  0.8622 -1.2480  0.4356
 6932TIP3   OH242210   2.369   0.596  16.532 -0.3760  0.4711 -0.4384
 6932TIP3    H142211   2.370   0.684  16.492 -0.5253  0.3907 -0.6207
 6932TIP3    H242212   2.418   0.606  16.613 -1.0300  0.9021 -0.0848
 6933TIP3   OH242213   1.144   3.372   3.658 -0.0077  0.2613 -0.1085
 6933TIP3    H142214   1.113   3.282   3.666  0.6200  0.0767  0.3553
 6933TIP3    H242215   1.076   3.417   3.609  0.4126 -0.8431 -1.8032
 6934TIP3   OH242216   3.021   4.416   2.179 -0.1962  0.1669 -0.3273
 6934TIP3    H142217   2.983   4.360   2.111  0.5045  2.2497 -2.5268
 6934TIP3    H242218   3.115   4.408   2.168 -0.0735  2.1030 -1.0262
 6935TIP3   OH242219   4.951   1.612  17.406 -0.0039 -0.7820  0.2143
 6935TIP3    H142220   4.918   1.668  17.476 -0.5813 -0.4152 -0.3292
 6935TIP3    H242221   4.885   1.543  17.397 -0.9416  0.2280 -1.2122
 6936TIP3   OH242222   3.093   5.799   2.802 -0.4570  0.5538 -0.0706
 6936TIP3    H142223   3.020   5.757   2.847 -1.4096 -0.1078 -2.0852
 6936TIP3    H242224   3.061   5.887   2.782 -1.7161 -0.3980 -2.8733
 6937TIP3   OH242225   4.369   2.209  14.118 -0.0631  0.3774  0.2129
 6937TIP3    H142226   4.372   2.168  14.032  1.8489  1.1862 -0.1671
 6937TIP3    H242227   4.420   2.149  14.174 -0.2385  0.4757  0.4781
 6938TIP3   OH242228   5.798   5.589  17.398  0.1972  0.0688  0.2041
 6938TIP3    H142229   5.703   5.590  17.388  0.1783  2.5671  0.0207
 6938TIP3    H242230   5.829   5.534  17.326 -1.0755 -0.5265  0.0905
 6939TIP3   OH242231   5.354   4.074   2.270  0.2412 -0.2791 -0.2230
 6939TIP3    H142232   5.297   4.145   2.240  0.8731  0.0972 -0.5620
 6939TIP3    H242233   5.439   4.093   2.230  0.6504 -0.7359  0.4050
 6940TIP3   OH242234   4.486   3.260  16.584 -0.2419 -0.2667  0.3594
 6940TIP3    H142235   4.568   3.258  16.534 -0.8458  2.4072 -0.8993
 6940TIP3    H242236   4.513   3.241  16.674  1.6869  0.0255 -0.1065
 6941TIP3   OH242237   1.183   6.117   5.433 -0.4140  0.1155  0.2936
 6941TIP3    H142238   1.212   6.062   5.361 -0.1970 -0.0630  0.5150
 6941TIP3    H242239   1.264   6.148   5.473 -0.4446 -1.7058  1.9386
 6942TIP3   OH242240   2.820   0.900  13.227  0.0962 -0.5847  0.4170
 6942TIP3    H142241   2.792   0.913  13.137  3.0800 -2.8943 -1.0480
 6942TIP3    H242242   2.745   0.860  13.271 -1.2589  0.1329 -1.1664
 6943TIP3   OH242243   1.236   5.213  17.302 -0.1665  0.0132 -0.3560
 6943TIP3    H142244   1.286   5.137  17.269  0.0465  0.5722 -1.3533
 6943TIP3    H242245   1.253   5.282  17.238  0.2607  1.1495  0.9461
 6944TIP3   OH242246   0.770   5.713   2.088  0.5391 -0.2224  0.0989
 6944TIP3    H142247   0.852   5.717   2.136  0.1362 -0.5384  0.8339
 6944TIP3    H242248   0.714   5.654   2.140  0.3231 -1.1451 -1.1178
 6945TIP3   OH242249   0.601   3.815   4.435  0.0666  0.1725  0.1432
 6945TIP3    H142250   0.647   3.817   4.351 -1.8149 -3.1959 -1.1606
 6945TIP3    H242251   0.666   3.785   4.498  0.5209 -1.3495 -0.9988
 6946TIP3   OH242252   0.273   0.204  14.511  0.5497  0.3051 -0.2145
 6946TIP3    H142253   0.195   0.258  14.496 -0.0206 -0.5219 -0.3072
 6946TIP3    H242254   0.331   0.224  14.437  0.6309  1.2667  0.0978
 6947TIP3   OH242255   6.267   2.534  13.183 -0.1771 -0.2985 -0.1004
 6947TIP3    H142256   6.254   2.581  13.265 -4.1117  0.4570 -0.9700
 6947TIP3    H242257   6.306   2.598  13.124 -0.6762  0.2919  0.2027
 6948TIP3   OH242258   5.934   6.723   0.465 -0.1290 -0.0168 -0.0355
 6948TIP3    H142259   5.854   6.671   0.468 -0.6468  0.7689  0.1289
 6948TIP3    H242260   5.991   6.685   0.532  0.1673 -1.3914 -1.0055
 6949TIP3   OH242261   3.540   1.255  14.990 -0.7197 -0.2588 -0.0580
 6949TIP3    H142262   3.607   1.267  14.924  0.0726  0.2721  0.8149
 6949TIP3    H242263   3.569   1.179  15.040 -0.6954  0.0471  0.3979
 6950TIP3   OH242264   2.445   0.023  13.193  0.5518 -0.3087 -0.6434
 6950TIP3    H142265   2.537   0.047  13.185  0.1154  0.9861 -2.2288
 6950TIP3    H242266   2.430  -0.036  13.119  0.3319 -1.4234  0.2466
 6951TIP3   OH242267   4.778   2.362   2.682  0.0641 -0.4430 -0.3469
 6951TIP3    H142268   4.706   2.393   2.627  0.4173  0.2966 -0.4028
 6951TIP3    H242269   4.856   2.372   2.628  0.7073  2.1612  0.8915
 6952TIP3   OH242270   3.142   2.877   0.942 -0.5049  0.5208 -0.3244
 6952TIP3    H142271   3.192   2.959   0.936  0.7765 -0.0537  1.4735
 6952TIP3    H242272   3.053   2.905   0.961 -0.0917  1.5381  0.2196
 6953TIP3   OH242273   3.864   3.343   5.983 -0.0647 -0.3629  0.2199
 6953TIP3    H142274   3.836   3.372   6.070  1.3739  0.0625  0.5738
 6953TIP3    H242275   3.836   3.252   5.978 -0.3692 -0.3246  1.0329
 6954TIP3   OH242276   6.189   0.215  12.009  0.1130  0.5999 -0.2479
 6954TIP3    H142277   6.148   0.169  11.937  1.1063  0.7311 -0.9135
 6954TIP3    H242278   6.197   0.149  12.078 -1.5376  0.6732  0.0504
 6955TIP3   OH242279   2.202   6.109  14.466  0.7588  0.1578  0.0481
 6955TIP3    H142280   2.154   6.155  14.398 -0.3222  0.5171  1.0136
 6955TIP3    H242281   2.155   6.130  14.547  0.9674 -1.6266  0.6874
 6956TIP3   OH242282   4.788   1.466  11.944 -0.1457  0.1115 -0.6899
 6956TIP3    H142283   4.759   1.375  11.955 -1.6152  0.7354  1.1940
 6956TIP3    H242284   4.713   1.511  11.904  0.0510  0.7559 -0.3475
 6957TIP3   OH242285   3.034   0.530  13.294 -0.0832 -0.3829 -0.8282
 6957TIP3    H142286   3.024   0.501  13.203  1.6310  0.7007 -1.4116
 6957TIP3    H242287   2.955   0.582  13.311  0.1256  0.3985 -2.1096
 6958TIP3   OH242288   5.741   3.595  10.166  0.1683  0.1688  0.4979
 6958TIP3    H142289   5.698   3.681  10.168 -0.3544 -0.0008 -1.6200
 6958TIP3    H242290   5.818   3.608  10.111 -0.0488 -0.7641 -0.0475
 6959TIP3   OH242291   6.308   4.100  14.151  0.0458 -0.0026  0.0271
 6959TIP3    H142292   6.399   4.082  14.174  0.3486  2.2033  0.7361
 6959TIP3    H242293   6.274   4.150  14.225 -0.9138  1.5539 -1.4079
 6960TIP3   OH242294   2.478   0.791  14.798  0.7502  0.6975 -0.3852
 6960TIP3    H142295   2.461   0.877  14.836  0.8679 -0.1197  1.6463
 6960TIP3    H242296   2.445   0.729  14.864 -1.3842 -0.8503 -2.7392
 6961TIP3   OH242297   4.247   4.092   1.634  0.2905 -0.3792 -0.6403
 6961TIP3    H142298   4.276   4.134   1.553 -3.0323  0.5465 -1.5065
 6961TIP3    H242299   4.325   4.090   1.689  1.9516  1.7514 -2.7093
 6962TIP3   OH242300   3.470   3.160  13.316  0.3975  0.2484 -0.2549
 6962TIP3    H142301   3.417   3.197  13.245  0.0239 -0.8041 -0.5429
 6962TIP3    H242302   3.428   3.193  13.396  1.3121  2.1171 -0.4878
 6963TIP3   OH242303   3.083   3.883   4.434 -0.3357 -0.3656  0.1416
 6963TIP3    H142304   3.086   3.811   4.372 -0.4223 -0.3897  0.1654
 6963TIP3    H242305   2.992   3.913   4.433 -0.0427  0.5450 -0.7912
 6964TIP3   OH242306   4.956   1.948  11.333  0.1459 -0.4033 -0.0090
 6964TIP3    H142307   4.972   2.032  11.290 -1.3538 -0.4233 -0.6581
 6964TIP3    H242308   5.009   1.885  11.285 -2.2309 -0.6107 -2.6009
 6965TIP3   OH242309   6.155   4.553  10.414  0.1779 -0.0842 -0.2810
 6965TIP3    H142310   6.192   4.497  10.346  1.4567  0.6365 -0.2065
 6965TIP3    H242311   6.123   4.631  10.367  0.3622  0.0752 -0.1440
 6966TIP3   OH242312   5.109   3.683   1.110 -0.6717 -0.6310  0.0195
 6966TIP3    H142313   5.093   3.590   1.129 -0.5153 -0.5547  0.5305
 6966TIP3    H242314   5.180   3.708   1.169  0.2176 -0.5326 -1.0548
 6967TIP3   OH242315   1.692   4.778  13.339 -0.2443 -0.1775 -0.1851
 6967TIP3    H142316   1.706   4.724  13.261 -0.1719 -0.3333 -0.0647
 6967TIP3    H242317   1.755   4.850  13.331 -0.1752 -0.2428 -0.2249
 6968TIP3   OH242318   4.419   0.058   3.393  0.4798  0.2490  0.0213
 6968TIP3    H142319   4.503   0.049   3.348  0.7408  0.8463  0.3774
 6968TIP3    H242320   4.429   0.006   3.473  0.1409 -0.5224 -0.4286
 6969TIP3   OH242321   6.555   0.763   1.940  0.4202  0.4794 -0.0382
 6969TIP3    H142322   6.465   0.737   1.960  0.5814  0.5106  0.7588
 6969TIP3    H242323   6.546   0.836   1.879 -0.1210  1.0459  0.6959
 6970TIP3   OH242324   6.741   3.762   2.208 -0.1152 -0.6286 -0.1458
 6970TIP3    H142325   6.667   3.800   2.161 -0.2433 -1.9928 -1.0970
 6970TIP3    H242326   6.701   3.722   2.286 -0.0081  0.9167  0.7387
 6971TIP3   OH242327   5.682   5.712   5.023 -0.1835 -0.0231 -0.3013
 6971TIP3    H142328   5.708   5.725   5.114 -0.3530 -0.1673 -0.2340
 6971TIP3    H242329   5.685   5.617   5.010  1.4588  0.0804 -0.9103
 6972TIP3   OH242330   1.794   2.082   1.424 -0.6156  0.4047  0.1836
 6972TIP3    H142331   1.714   2.039   1.396  0.5587 -1.4822 -0.4669
 6972TIP3    H242332   1.834   2.021   1.485 -0.2876  1.9068  1.5393
 6973TIP3   OH242333   5.432   1.229   4.196  0.8879 -0.3642 -0.6120
 6973TIP3    H142334   5.524   1.243   4.220  0.7419 -2.1600  1.2787
 6973TIP3    H242335   5.409   1.147   4.239 -2.4473  1.4283  1.4042
 6974TIP3   OH242336   4.525   4.732  14.577 -0.2896  0.4492 -0.3280
 6974TIP3    H142337   4.612   4.705  14.548  0.3411  1.0811  0.9312
 6974TIP3    H242338   4.540   4.789  14.652 -1.8504 -1.3027  1.4416
 6975TIP3   OH242339   6.225   5.098  14.715  0.5499 -0.0348 -0.2130
 6975TIP3    H142340   6.238   5.185  14.752  0.9394  0.4088 -1.3745
 6975TIP3    H242341   6.235   5.039  14.790  0.8802  0.8675  0.4749
 6976TIP3   OH242342   3.893   4.503   3.371  0.2103  0.1523  0.2432
 6976TIP3    H142343   3.888   4.444   3.296 -0.8537  2.9523 -2.0854
 6976TIP3    H242344   3.986   4.522   3.381  0.3166  0.3140 -0.9150
 6977TIP3   OH242345   6.118   4.270  12.537  0.2663 -0.5939  0.4606
 6977TIP3    H142346   6.170   4.190  12.543  1.4147  0.1943  1.6534
 6977TIP3    H242347   6.123   4.308  12.625 -0.6666  0.5345  0.0459
 6978TIP3   OH242348   1.091   2.228   1.782  0.0817 -0.3018  0.3639
 6978TIP3    H142349   1.177   2.192   1.805  0.8920  0.3465 -1.5108
 6978TIP3    H242350   1.096   2.244   1.688 -1.5926  1.0903  0.4683
 6979TIP3   OH242351   3.101   2.313   2.956 -0.1209  0.0619  0.1496
 6979TIP3    H142352   3.183   2.284   2.998 -1.2174 -0.0085  2.4243
 6979TIP3    H242353   3.103   2.273   2.870  1.7852 -0.7595  0.5100
 6980TIP3   OH242354   3.140   3.177   5.975  0.6995  0.3747 -0.1318
 6980TIP3    H142355   3.220   3.137   6.008  0.7229  0.7482  0.2667
 6980TIP3    H242356   3.164   3.268   5.955  0.5861  0.2679 -0.8031
 6981TIP3   OH242357   3.898   0.781  14.270 -0.1439  0.0666 -0.1516
 6981TIP3    H142358   3.890   0.715  14.340 -0.8506  1.4697  1.1447
 6981TIP3    H242359   3.957   0.847  14.307  0.4897  0.2186 -1.4051
 6982TIP3   OH242360   5.247   2.578  14.099  0.6102 -0.3532 -0.0837
 6982TIP3    H142361   5.210   2.568  14.187  0.8016  1.3283  0.2189
 6982TIP3    H242362   5.189   2.641  14.055  1.4639  0.0966 -0.5865
 6983TIP3   OH242363   5.333   3.523  13.645 -0.2608  0.5378  0.5333
 6983TIP3    H142364   5.275   3.457  13.608 -0.5271  0.8299  0.4224
 6983TIP3    H242365   5.409   3.524  13.587  0.0677 -0.1759  0.9438
 6984TIP3   OH242366   4.871   1.019   5.207 -0.0649 -0.3252 -0.0811
 6984TIP3    H142367   4.797   1.076   5.226  0.7969  0.4110  1.2479
 6984TIP3    H242368   4.857   0.941   5.260 -0.8566 -1.0672 -1.3257
 6985TIP3   OH242369   5.409   4.858   4.035 -0.0996  0.1597 -0.0242
 6985TIP3    H142370   5.318   4.872   4.009 -0.3639 -1.4318 -0.0415
 6985TIP3    H242371   5.460   4.912   3.975 -1.0736  2.1475  0.8529
 6986TIP3   OH242372   2.568   1.187   2.787 -0.1971 -0.4762  0.1006
 6986TIP3    H142373   2.611   1.264   2.749  0.8234  0.0507  2.1924
 6986TIP3    H242374   2.475   1.203   2.775  0.0068  1.0198  0.3111
 6987TIP3   OH242375   1.398   1.122  13.661 -0.5446 -0.6133 -1.2187
 6987TIP3    H142376   1.434   1.170  13.735 -2.1193  0.9287 -1.3955
 6987TIP3    H242377   1.352   1.048  13.701 -1.2671  0.1282 -0.6451
 6988TIP3   OH242378   1.413   6.449   3.064 -0.2454 -0.3446 -0.0438
 6988TIP3    H142379   1.325   6.412   3.074  0.2551 -1.5879 -0.1051
 6988TIP3    H242380   1.431   6.444   2.970  0.2543 -0.9613  0.0816
 6989TIP3   OH242381   2.443   4.718   0.604  0.1637 -0.1157 -0.2589
 6989TIP3    H142382   2.421   4.809   0.584  3.0243  0.4783 -1.2252
 6989TIP3    H242383   2.511   4.724   0.671  1.7629 -1.3559 -1.6439
 6990TIP3   OH242384   5.938   5.737   4.425  0.4566  0.0949 -0.5494
 6990TIP3    H142385   5.844   5.734   4.440  0.2021  2.6137 -1.2548
 6990TIP3    H242386   5.976   5.736   4.513 -0.3345  1.0067 -0.1900
 6991TIP3   OH242387   1.881   2.119  12.926 -0.2967 -0.1052  0.0860
 6991TIP3    H142388   1.974   2.109  12.942  0.0025  0.0097 -1.4311
 6991TIP3    H242389   1.851   2.032  12.899  0.1410  0.5790 -2.8746
 6992TIP3   OH242390   5.103   4.124   2.546 -0.5349 -0.5573 -0.3384
 6992TIP3    H142391   5.049   4.183   2.598  0.6024 -0.5112  0.8473
 6992TIP3    H242392   5.186   4.169   2.537  0.1409 -1.6795  0.0375
 6993TIP3   OH242393   4.784   3.539   2.568  0.2125  0.3811  0.3761
 6993TIP3    H142394   4.852   3.598   2.535 -0.6518  0.6845 -0.9184
 6993TIP3    H242395   4.704   3.565   2.522 -0.5059 -0.8228  0.8833
 6994TIP3   OH242396   6.162   1.999  16.090 -0.0530  0.0241  0.2560
 6994TIP3    H142397   6.239   2.009  16.146  0.5611 -1.3010 -0.3116
 6994TIP3    H242398   6.182   2.053  16.013  0.2626 -0.2017  0.1747
 6995TIP3   OH242399   6.010   0.519  13.665 -0.1827 -0.3552 -0.0190
 6995TIP3    H142400   6.013   0.551  13.575 -0.9161 -1.4761 -0.4638
 6995TIP3    H242401   5.918   0.499  13.680  0.2124 -2.1873  0.2296
 6996TIP3   OH242402   1.504   6.675  12.601 -0.3353  0.4240 -0.0148
 6996TIP3    H142403   1.415   6.652  12.572 -0.2326  0.2014 -0.1581
 6996TIP3    H242404   1.553   6.593  12.594 -0.1365  0.5295  0.1361
 6997TIP3   OH242405   1.713   2.125  13.578  0.3941  0.3628 -0.3723
 6997TIP3    H142406   1.763   2.077  13.512  0.2937  0.2641 -0.3764
 6997TIP3    H242407   1.721   2.072  13.657  1.0686  0.8147 -0.1298
 6998TIP3   OH242408   3.982   1.701   2.673 -0.3608 -1.0495  0.1614
 6998TIP3    H142409   4.026   1.747   2.601 -2.3211  0.2605 -0.2769
 6998TIP3    H242410   3.889   1.712   2.655 -0.9085 -1.2819  2.5392
 6999TIP3   OH242411   3.775   1.869  12.142 -0.8123  0.1378  0.3375
 6999TIP3    H142412   3.837   1.838  12.076  0.2208 -2.1282  2.2426
 6999TIP3    H242413   3.693   1.881  12.094  0.0319 -0.9005 -1.4469
 7000TIP3   OH242414   2.675   6.725  14.785  0.0426 -0.2236  0.3129
 7000TIP3    H142415   2.585   6.706  14.810 -0.4085  1.4107  0.0542
 7000TIP3    H242416   2.669   6.750  14.692  0.8572 -0.6689  0.1267
 7001TIP3   OH242417   2.244   2.741  14.170 -0.0919  0.3332 -0.2284
 7001TIP3    H142418   2.244   2.827  14.127 -0.7580  0.2066 -0.4964
 7001TIP3    H242419   2.194   2.685  14.111 -0.8877  0.1121  0.6368
 7002TIP3   OH242420   0.956   1.973  14.246 -0.0967 -0.0691 -0.3754
 7002TIP3    H142421   0.896   2.037  14.205 -0.8271  0.0218  0.7955
 7002TIP3    H242422   0.918   1.956  14.332  1.1059 -0.6891  0.0546
 7003TIP3   OH242423   6.697   5.404  16.384  0.4928  0.5655  0.2960
 7003TIP3    H142424   6.636   5.423  16.456 -0.1626 -2.1813  0.5805
 7003TIP3    H242425   6.641   5.372  16.313  1.3482  0.9582 -0.5684
 7004TIP3   OH242426   0.868   1.768  13.293  0.3477  0.4907 -0.0112
 7004TIP3    H142427   0.840   1.678  13.309 -0.9045  1.0404  1.0767
 7004TIP3    H242428   0.946   1.779  13.347  2.1710 -0.7200 -2.2247
 7005TIP3   OH242429   4.211   5.982   2.126 -0.3613  0.0415  0.1724
 7005TIP3    H142430   4.142   6.047   2.137 -1.1404 -0.4961 -1.2239
 7005TIP3    H242431   4.281   6.011   2.184 -0.3549  2.5697 -0.9631
 7006TIP3   OH242432   2.056   1.116  15.683  0.2984 -0.1023 -0.1582
 7006TIP3    H142433   2.127   1.177  15.702  0.5604  0.1759 -1.8855
 7006TIP3    H242434   2.030   1.137  15.593 -1.0729 -1.0921 -0.0228
 7007TIP3   OH242435   4.346   0.186   2.830  0.2066  0.4167 -0.2062
 7007TIP3    H142436   4.385   0.207   2.914  0.1753 -0.1679 -0.0382
 7007TIP3    H242437   4.252   0.180   2.848  0.1810  0.4655 -0.3200
 7008TIP3   OH242438   3.960   6.245  10.092  0.3008 -0.2705  0.3072
 7008TIP3    H142439   4.044   6.216  10.055  0.1311 -0.4392  0.0485
 7008TIP3    H242440   3.969   6.230  10.186  0.9359  0.6651  0.4031
 7009TIP3   OH242441   2.693   6.701   1.464 -0.1013  0.0661  0.0439
 7009TIP3    H142442   2.786   6.683   1.453  0.2421  1.6864  0.1237
 7009TIP3    H242443   2.660   6.713   1.374 -0.4093 -1.2378 -0.0343
 7010TIP3   OH242444   5.154   0.551   0.143 -0.6467  0.5825 -0.1289
 7010TIP3    H142445   5.060   0.540   0.136 -0.4525 -2.4059  0.8414
 7010TIP3    H242446   5.190   0.498   0.072  0.3408 -1.4263  1.7657
 7011TIP3   OH242447   3.743   2.226   1.842  0.0033  0.3856 -0.1005
 7011TIP3    H142448   3.792   2.268   1.914  1.7947 -0.1093 -0.9636
 7011TIP3    H242449   3.657   2.267   1.845  1.0106  2.6571  0.3778
 7012TIP3   OH242450   0.319   3.482   0.643 -0.1172 -0.5425 -0.3328
 7012TIP3    H142451   0.253   3.419   0.614  0.2737 -1.2279  0.2554
 7012TIP3    H242452   0.342   3.454   0.731 -1.5596  1.7262  0.8635
 7013TIP3   OH242453   4.837   3.904  16.866 -0.2342  0.3197  0.4903
 7013TIP3    H142454   4.842   3.993  16.902 -0.8860  0.2583  0.7635
 7013TIP3    H242455   4.787   3.855  16.933  0.1331 -0.2499  0.3493
 7014TIP3   OH242456   0.459   3.253  11.914 -0.2556  0.5182  0.6237
 7014TIP3    H142457   0.496   3.340  11.929 -0.3155  0.5376  0.6578
 7014TIP3    H242458   0.510   3.195  11.971  0.2519  0.4244  0.0808
 7015TIP3   OH242459   5.968   4.964  12.682 -1.3134 -0.2206  0.0952
 7015TIP3    H142460   5.883   4.920  12.685 -2.1824  1.3918  0.4910
 7015TIP3    H242461   6.004   4.953  12.770 -0.4370 -2.0602 -0.4341
 7016TIP3   OH242462   1.200   4.798  17.300 -0.0522  0.0552 -0.5556
 7016TIP3    H142463   1.271   4.753  17.346 -0.0495  0.0369 -0.5788
 7016TIP3    H242464   1.121   4.754  17.328 -0.3585  1.8587  1.7135
 7017TIP3   OH242465   6.377   1.556  14.979 -0.0157 -0.2080  0.1429
 7017TIP3    H142466   6.363   1.540  15.072 -1.1310  0.4176  0.1024
 7017TIP3    H242467   6.464   1.520  14.961  0.7414  0.7818  1.6770
 7018TIP3   OH242468   0.191   0.598   5.190  0.2618 -0.0007  0.6396
 7018TIP3    H142469   0.234   0.653   5.125 -1.6714 -0.0121 -0.7554
 7018TIP3    H242470   0.104   0.582   5.153  0.0341 -2.2591  1.9933
 7019TIP3   OH242471   3.881   2.648   3.252  0.2477  0.2188 -0.5407
 7019TIP3    H142472   3.973   2.626   3.269  0.2998  0.8104 -0.0106
 7019TIP3    H242473   3.857   2.708   3.323 -0.7745 -0.5120 -0.2474
 7020TIP3   OH242474   5.710   1.957  13.329  0.2574 -0.1006  0.4201
 7020TIP3    H142475   5.628   2.007  13.330 -0.6566 -1.2425 -3.0419
 7020TIP3    H242476   5.778   2.022  13.311 -0.4384  0.3862 -0.5545
 7021TIP3   OH242477   3.872   2.831   2.208 -0.0758  0.0506 -0.0083
 7021TIP3    H142478   3.817   2.861   2.281 -0.3814  0.1229 -0.2640
 7021TIP3    H242479   3.869   2.903   2.145  0.1788 -0.0161 -0.0970
 7022TIP3   OH242480   2.089   1.225  15.304 -0.5628 -0.6489 -0.1114
 7022TIP3    H142481   2.018   1.224  15.369 -0.4108 -0.4152  0.0630
 7022TIP3    H242482   2.160   1.175  15.345 -0.0337  0.4871  0.4175
 7023TIP3   OH242483   2.113   2.276  14.162 -0.1637  0.3554  0.7688
 7023TIP3    H142484   2.050   2.205  14.173 -0.4265 -0.0689 -2.3815
 7023TIP3    H242485   2.066   2.355  14.188 -1.3954 -0.1707  0.2345
 7024TIP3   OH242486   0.309   6.535  11.968  0.4206  0.0555  0.3959
 7024TIP3    H142487   0.299   6.517  11.875 -2.2602 -2.2680  0.9743
 7024TIP3    H242488   0.385   6.593  11.974  0.2554  0.8831 -3.2512
 7025TIP3   OH242489   4.393   1.488  13.270  0.0748  0.1793 -0.1846
 7025TIP3    H142490   4.329   1.448  13.330 -0.3917  0.6521 -0.3557
 7025TIP3    H242491   4.339   1.540  13.210  0.6950  1.3413  0.2389
 7026TIP3   OH242492   2.710   4.204   3.424  0.0483 -0.4531 -0.0633
 7026TIP3    H142493   2.779   4.203   3.358 -0.5094 -0.2016 -0.6698
 7026TIP3    H242494   2.754   4.227   3.505  0.2962  2.6082 -0.9338
 7027TIP3   OH242495   4.059   5.889   5.216 -0.4371 -0.1841 -0.3084
 7027TIP3    H142496   4.154   5.903   5.210 -0.0386 -2.0577  0.7730
 7027TIP3    H242497   4.049   5.824   5.285 -2.4592 -0.6115 -0.9447
 7028TIP3   OH242498   4.517   2.674   3.309  0.5616 -0.1157  0.0600
 7028TIP3    H142499   4.593   2.689   3.253  0.2414  1.2670 -0.0427
 7028TIP3    H242500   4.442   2.694   3.254  0.1991  0.3329  0.7020
 7029TIP3   OH242501   5.884   3.695  15.855 -0.2261 -0.0795 -0.6972
 7029TIP3    H142502   5.804   3.714  15.904  0.9199 -1.4795  1.9107
 7029TIP3    H242503   5.953   3.741  15.903  1.0303 -1.9910 -0.5587
 7030TIP3   OH242504   0.209   2.114  11.527 -0.2185 -0.5363 -0.9262
 7030TIP3    H142505   0.128   2.066  11.507 -1.3331 -0.5205  2.7833
 7030TIP3    H242506   0.189   2.162  11.608  2.9180  1.0898 -0.9565
 7031TIP3   OH242507   2.714   3.035  10.866 -0.3175  0.0434  0.0038
 7031TIP3    H142508   2.763   3.094  10.809  1.7570 -1.5618  0.0161
 7031TIP3    H242509   2.780   2.999  10.926 -1.7325 -1.2899  0.8286
 7032TIP3   OH242510   5.095   3.084  13.796 -0.5684  0.1317  0.0578
 7032TIP3    H142511   5.187   3.107  13.783 -0.5589 -0.1880 -0.4395
 7032TIP3    H242512   5.072   3.030  13.721 -0.2660 -2.4890  1.7472
 7033TIP3   OH242513   0.704   1.385   3.664  0.1265 -0.5713 -0.0147
 7033TIP3    H142514   0.728   1.323   3.595 -2.7498 -0.3802 -1.3229
 7033TIP3    H242515   0.643   1.445   3.621  0.4757  1.3424  2.0033
 7034TIP3   OH242516   4.685   4.593  11.773  0.0169  0.3464  0.4616
 7034TIP3    H142517   4.638   4.585  11.689 -0.0479 -0.4276  0.5674
 7034TIP3    H242518   4.639   4.533  11.832  1.5840 -1.0285  0.3645
 7035TIP3   OH242519   5.392   1.491  17.296  0.1622 -0.6137 -0.7230
 7035TIP3    H142520   5.350   1.556  17.351  1.5662  0.1783 -0.5306
 7035TIP3    H242521   5.391   1.411  17.348 -1.5740 -0.7742 -0.9620
 7036TIP3   OH242522   5.370   3.188  13.707  0.2413 -0.7481  0.2298
 7036TIP3    H142523   5.433   3.239  13.656 -0.1892  0.7293  1.1271
 7036TIP3    H242524   5.395   3.204  13.798 -1.5951  0.1561  0.6199
 7037TIP3   OH242525   3.210   4.080  15.758 -0.6750 -0.5237 -0.7348
 7037TIP3    H142526   3.227   4.123  15.841  0.6429 -0.6508 -0.9154
 7037TIP3    H242527   3.195   3.988  15.782  1.0969 -0.8391 -0.7326
 7038TIP3   OH242528   6.558   4.534  11.283  0.3318  0.0900  0.2668
 7038TIP3    H142529   6.620   4.574  11.344  2.3830 -1.2008 -0.8769
 7038TIP3    H242530   6.507   4.608  11.250  1.7605  1.3171  0.6836
 7039TIP3   OH242531   3.807   3.718  16.209 -0.0813  0.1604  0.6701
 7039TIP3    H142532   3.732   3.708  16.268 -0.7111 -0.3966 -0.1899
 7039TIP3    H242533   3.786   3.660  16.135  0.6950  0.8223 -0.0798
 7040TIP3   OH242534   0.247   2.763  12.311  0.5248 -0.2393  0.3433
 7040TIP3    H142535   0.195   2.739  12.234  0.7591  0.7770 -0.1503
 7040TIP3    H242536   0.334   2.727  12.293  0.4769 -0.3401  0.3126
 7041TIP3   OH242537   5.779   4.142  11.680 -1.0072  0.6697 -0.5737
 7041TIP3    H142538   5.859   4.195  11.682 -0.4704 -0.0869  1.6158
 7041TIP3    H242539   5.737   4.164  11.597  1.6024  0.9109 -1.9453
 7042TIP3   OH242540   0.145   1.897  13.504 -0.1620  0.2792  0.1893
 7042TIP3    H142541   0.164   1.990  13.516  2.7601 -0.4331  1.9604
 7042TIP3    H242542   0.177   1.877  13.416 -0.3152  0.8215  0.0071
 7043TIP3   OH242543   6.329   0.011  10.145 -0.4523 -0.2991  0.7019
 7043TIP3    H142544   6.380  -0.064  10.115 -0.0918  0.1670  0.1539
 7043TIP3    H242545   6.328   0.002  10.241 -1.5460 -1.7393  0.5969
 7044TIP3   OH242546   3.082   5.758   2.423  0.3327 -0.1665 -0.8881
 7044TIP3    H142547   3.047   5.697   2.488  2.1463 -0.8671 -0.5069
 7044TIP3    H242548   3.168   5.721   2.400  0.7105  1.3153 -1.9662
 7045TIP3   OH242549   4.927   0.420   0.940 -0.3212 -0.2246  0.2291
 7045TIP3    H142550   4.984   0.375   1.002 -0.0081 -0.6743 -0.3655
 7045TIP3    H242551   4.931   0.366   0.861 -1.2504 -0.0348  0.0406
 7046TIP3   OH242552   0.919   3.760  10.706  0.1981 -1.0284 -0.4559
 7046TIP3    H142553   0.843   3.731  10.656 -1.1510  2.2672 -0.5786
 7046TIP3    H242554   0.937   3.848  10.673  2.1200 -0.5079  1.7289
 7047TIP3   OH242555   4.128   4.603   0.221  0.0085 -0.3883 -0.1502
 7047TIP3    H142556   4.217   4.597   0.187 -0.7247 -0.3749 -2.1774
 7047TIP3    H242557   4.075   4.626   0.145 -1.7053 -0.1674  1.0648
 7048TIP3   OH242558   2.707   2.618   1.921  0.2637 -0.2093 -0.1773
 7048TIP3    H142559   2.657   2.587   1.846 -0.2767 -2.0140  0.8815
 7048TIP3    H242560   2.645   2.618   1.993 -0.0051  4.1864 -0.1643
 7049TIP3   OH242561   4.676   1.842  14.193  0.1732  0.1336 -0.3674
 7049TIP3    H142562   4.731   1.831  14.116  0.2212 -1.1448 -0.1730
 7049TIP3    H242563   4.704   1.773  14.253 -0.5357  0.4865  0.3971
 7050TIP3   OH242564   3.353   2.548   4.456  0.0112 -0.4699  0.7022
 7050TIP3    H142565   3.298   2.558   4.534 -0.9717  0.4196 -0.0635
 7050TIP3    H242566   3.332   2.460   4.423 -3.8019  0.9978 -1.5374
 7051TIP3   OH242567   0.615   0.818   4.213  0.3210  0.3180  0.1636
 7051TIP3    H142568   0.618   0.895   4.156  0.1987  0.1778 -0.0337
 7051TIP3    H242569   0.530   0.824   4.256  0.5208  0.5639  0.5296
 7052TIP3   OH242570   3.998   1.487  15.718  0.6413 -0.3808 -0.4113
 7052TIP3    H142571   4.008   1.452  15.807 -0.3702 -0.4719 -0.3300
 7052TIP3    H242572   4.061   1.437  15.666  1.1478 -0.4244  0.2209
 7053TIP3   OH242573   4.821   1.363   6.261  0.0798  0.5567  0.0992
 7053TIP3    H142574   4.794   1.452   6.284 -0.2421  0.4202  0.2606
 7053TIP3    H242575   4.853   1.370   6.171  1.2222  1.0728  0.5304
 7054TIP3   OH242576   4.119   1.674  13.314 -0.0288  0.6347 -0.3391
 7054TIP3    H142577   4.042   1.649  13.365  1.5596 -2.4318  0.7740
 7054TIP3    H242578   4.099   1.645  13.225  0.8519 -2.9622  0.4890
 7055TIP3   OH242579   4.031   3.137   5.826 -0.1837  0.2740 -0.0328
 7055TIP3    H142580   3.935   3.136   5.827 -0.1961  1.1311  0.2628
 7055TIP3    H242581   4.055   3.081   5.752 -0.9318  0.6785 -0.5942
 7056TIP3   OH242582   4.456   4.906  13.507 -0.1970  0.7626 -0.0326
 7056TIP3    H142583   4.432   4.897  13.599  2.0630 -0.0667  0.5557
 7056TIP3    H242584   4.521   4.976  13.506  0.1951  0.3962 -0.9166
 7057TIP3   OH242585   3.456   3.260  10.851  0.1955 -0.4097 -0.0771
 7057TIP3    H142586   3.371   3.281  10.891  0.7023 -1.6290  1.7438
 7057TIP3    H242587   3.435   3.238  10.760 -1.2080  0.8490 -0.1068
 7058TIP3   OH242588   4.701   0.428   1.099  0.2566 -0.1434  0.1502
 7058TIP3    H142589   4.684   0.522   1.105  0.6419 -0.0830  0.2963
 7058TIP3    H242590   4.774   0.421   1.037 -1.3552 -0.5094 -1.8568
 7059TIP3   OH242591   6.224   2.641  12.611 -0.1311 -0.1012 -0.2608
 7059TIP3    H142592   6.202   2.576  12.677  1.6659 -1.0515 -0.5284
 7059TIP3    H242593   6.301   2.605  12.566 -0.2326  1.3279 -1.6978
 7060TIP3   OH242594   1.118   5.504   5.016  0.0311  0.1631  0.0076
 7060TIP3    H142595   1.072   5.480   4.936  1.7425 -1.4500 -0.5565
 7060TIP3    H242596   1.080   5.449   5.084  1.5085 -1.7185 -0.5981
 7061TIP3   OH242597   5.494   2.831  15.443 -0.2298 -0.2049 -0.1357
 7061TIP3    H142598   5.444   2.775  15.384 -1.4080  0.6716 -0.0095
 7061TIP3    H242599   5.427   2.875  15.496  0.6402  1.4014 -0.3185
 7062TIP3   OH242600   0.313   2.790   4.025 -0.5452 -0.9966 -0.1671
 7062TIP3    H142601   0.334   2.795   4.118  1.5612 -1.8599 -0.5320
 7062TIP3    H242602   0.243   2.853   4.013 -0.6424 -0.6144  1.9315
 7063TIP3   OH242603   4.533   0.014   1.173  0.1862  0.1291 -0.2517
 7063TIP3    H142604   4.574   0.064   1.102 -0.2620  0.2887 -0.4045
 7063TIP3    H242605   4.452  -0.019   1.135 -0.1296  0.3372  0.2275
 7064TIP3   OH242606   0.117   0.583   2.693 -0.1555 -0.1493 -0.0408
 7064TIP3    H142607   0.106   0.492   2.668 -0.0950  0.0704 -0.8923
 7064TIP3    H242608   0.081   0.588   2.782 -1.6360 -0.6625 -0.5718
 7065TIP3   OH242609   5.850   1.751   1.221  0.2072 -0.1162  0.3358
 7065TIP3    H142610   5.780   1.692   1.248 -1.5487  0.6268 -2.2132
 7065TIP3    H242611   5.805   1.831   1.194  2.1546  0.8137 -0.3482
 7066TIP3   OH242612   3.611   5.433   5.894  0.1034  0.7452 -0.1691
 7066TIP3    H142613   3.649   5.519   5.877  0.6787  0.3857 -0.7495
 7066TIP3    H242614   3.536   5.450   5.951  0.3332  1.6061 -0.1201
 7067TIP3   OH242615   4.005   0.071  15.852  0.0603 -0.3108  0.4659
 7067TIP3    H142616   3.945   0.017  15.904  0.6026 -0.9240  0.4676
 7067TIP3    H242617   3.948   0.136  15.810 -0.3471  0.5420  2.2145
 7068TIP3   OH242618   1.024   3.245   1.215 -0.2701  0.3115 -0.4793
 7068TIP3    H142619   1.112   3.278   1.229 -0.3966  0.3605  0.2417
 7068TIP3    H242620   1.029   3.197   1.132  0.4362  0.2857 -0.4251
 7069TIP3   OH242621   5.319   0.667  15.685 -0.1154  0.1010 -0.1758
 7069TIP3    H142622   5.250   0.611  15.722  0.1887 -0.2272 -0.1049
 7069TIP3    H242623   5.398   0.614  15.689  0.3101  0.7708  0.4882
 7070TIP3   OH242624   1.682   0.909  15.833  0.2666  0.8776 -0.1318
 7070TIP3    H142625   1.626   0.855  15.778  0.5111  0.0209  0.4410
 7070TIP3    H242626   1.704   0.984  15.778  2.5111 -1.0897 -2.1726
 7071TIP3   OH242627   5.501   3.226  11.086 -0.3194  0.3128  0.0012
 7071TIP3    H142628   5.415   3.194  11.113 -1.2071  2.6708  0.1887
 7071TIP3    H242629   5.512   3.193  10.997 -2.0984  1.1088 -0.5707
 7072TIP3   OH242630   0.760   6.027   6.073 -0.4512  0.3684 -0.7629
 7072TIP3    H142631   0.761   6.057   5.982 -2.6392  0.2115 -0.8809
 7072TIP3    H242632   0.738   5.934   6.068  1.7605 -0.2515 -0.1493
 7073TIP3   OH242633   0.411   2.434   5.237 -0.6512  0.3073  0.2137
 7073TIP3    H142634   0.389   2.503   5.174 -1.3901 -0.0997  0.0074
 7073TIP3    H242635   0.328   2.387   5.251  0.0156 -1.1210 -0.3674
 7074TIP3   OH242636   2.446   4.788   2.415  0.7377  0.2145  0.2715
 7074TIP3    H142637   2.469   4.735   2.339 -1.3569 -2.2773  1.2434
 7074TIP3    H242638   2.530   4.815   2.452  1.8458 -0.8543 -1.3589
 7075TIP3   OH242639   4.825   3.248   0.611  0.0792 -0.1391 -0.6659
 7075TIP3    H142640   4.786   3.165   0.639  0.9539  0.1006  1.4702
 7075TIP3    H242641   4.876   3.226   0.533  1.0526 -1.8291  0.3865
 7076TIP3   OH242642   4.754   0.108   4.647  0.0906 -0.7108  0.4560
 7076TIP3    H142643   4.811   0.054   4.593  0.9951 -0.0607  0.7358
 7076TIP3    H242644   4.726   0.050   4.718 -0.2852 -1.2759 -0.1425
 7077TIP3   OH242645   5.447   6.260   2.959  0.0388  0.6996 -0.4597
 7077TIP3    H142646   5.422   6.169   2.969 -0.3347  0.9692  1.5207
 7077TIP3    H242647   5.364   6.308   2.961  0.3443  1.2119  0.5649
 7078TIP3   OH242648   5.686   1.943   1.109  0.0696  0.4231  0.0240
 7078TIP3    H142649   5.657   1.991   1.032  0.8490 -2.2556 -2.1094
 7078TIP3    H242650   5.609   1.941   1.166 -1.6203 -0.2043 -2.1509
 7079TIP3   OH242651   5.932   4.908   0.463  0.0434 -0.1459  0.5348
 7079TIP3    H142652   5.999   4.843   0.441 -0.3547 -0.5461  0.5173
 7079TIP3    H242653   5.982   4.980   0.503  0.4072 -0.7331  1.1468
 7080TIP3   OH242654   2.254   6.521  15.455  0.6288  0.2764  0.1250
 7080TIP3    H142655   2.264   6.515  15.550  0.5441 -0.4166  0.0973
 7080TIP3    H242656   2.319   6.460  15.421  0.1080 -0.0875 -0.2322
 7081TIP3   OH242657   1.071   5.037  16.029  0.3387  0.3446  0.1245
 7081TIP3    H142658   1.103   4.950  16.052  3.6731  0.9941 -1.5048
 7081TIP3    H242659   1.033   5.070  16.111  0.5183 -1.9455  1.2264
 7082TIP3   OH242660   4.449   5.880  12.721 -0.3038 -0.2646 -0.3283
 7082TIP3    H142661   4.468   5.885  12.628 -0.7624 -1.9480 -0.5400
 7082TIP3    H242662   4.430   5.788  12.737  0.4030 -0.1332  1.5545
 7083TIP3   OH242663   5.689   4.231  12.584 -0.3632 -0.4417 -0.5134
 7083TIP3    H142664   5.667   4.319  12.614  0.8794 -0.4946  0.6255
 7083TIP3    H242665   5.717   4.185  12.663 -0.8495 -1.8266 -1.1127
 7084TIP3   OH242666   2.353   3.871   6.659 -0.2433  0.6069  0.4552
 7084TIP3    H142667   2.394   3.784   6.669  0.1861  0.4954 -1.7388
 7084TIP3    H242668   2.427   3.931   6.655 -0.4411  0.8153 -0.1308
 7085TIP3   OH242669   0.852   4.672   5.351  0.1205  0.1309  0.1743
 7085TIP3    H142670   0.800   4.743   5.316  0.1181  0.3269  0.5710
 7085TIP3    H242671   0.872   4.698   5.441  1.6251  0.4660 -0.2264
 7086TIP3   OH242672   0.526   2.555  11.565 -1.0449 -0.2130 -0.3086
 7086TIP3    H142673   0.509   2.462  11.577 -0.1653 -0.6946 -2.2390
 7086TIP3    H242674   0.621   2.561  11.554 -1.0600  0.9436  0.0129
 7087TIP3   OH242675   5.539   1.591  12.551  0.0721 -0.2390 -0.0747
 7087TIP3    H142676   5.444   1.594  12.541  0.0769 -1.0021 -0.4463
 7087TIP3    H242677   5.559   1.498  12.561  0.7980 -0.0987 -0.1584
 7088TIP3   OH242678   0.546   3.806  16.225  1.2640  0.1048 -0.7826
 7088TIP3    H142679   0.540   3.712  16.241 -0.6345  0.4083  0.6135
 7088TIP3    H242680   0.623   3.834  16.274  0.7855 -0.4440  0.3098
 7089TIP3   OH242681   5.277   1.782   1.337 -0.0246  0.1554 -0.3688
 7089TIP3    H142682   5.287   1.810   1.246  0.1174 -1.3133 -0.8351
 7089TIP3    H242683   5.231   1.854   1.379  0.4427  1.1205 -1.4599
 7090TIP3   OH242684   3.360   4.046  13.675  0.1101 -0.2537 -0.3042
 7090TIP3    H142685   3.351   4.073  13.766  1.3686 -0.2556 -0.1546
 7090TIP3    H242686   3.352   3.950  13.677 -0.1249 -0.2322 -0.2340
 7091TIP3   OH242687   3.617   4.512  14.535  0.2504 -0.5590 -0.2227
 7091TIP3    H142688   3.564   4.572  14.483 -1.3300 -1.1299  0.6782
 7091TIP3    H242689   3.556   4.445  14.565  1.3988 -1.0346  1.1765
 7092TIP3   OH242690   0.917   2.965  15.714 -0.5634 -0.6983  0.4350
 7092TIP3    H142691   0.969   3.042  15.732 -0.4889 -0.2848 -1.3226
 7092TIP3    H242692   0.980   2.899  15.685 -0.9171 -0.2769 -1.4439
 7093TIP3   OH242693   1.938   1.101   2.277  0.1806 -0.7292 -0.0874
 7093TIP3    H142694   1.874   1.103   2.205  0.6260 -0.1715 -0.4784
 7093TIP3    H242695   1.884   1.098   2.356 -0.4110  1.4270 -0.3350
 7094TIP3   OH242696   1.887   4.609  14.557 -0.1071  0.0266  0.8678
 7094TIP3    H142697   1.846   4.686  14.596 -1.0386 -0.4539  0.8870
 7094TIP3    H242698   1.926   4.563  14.631 -1.7106 -0.7859  1.2531
 7095TIP3   OH242699   2.754   3.475  12.937  0.0895 -0.1886 -0.4977
 7095TIP3    H142700   2.729   3.557  12.979 -1.1300  0.0509 -1.6145
 7095TIP3    H242701   2.846   3.486  12.915  0.4229  0.1476  0.9868
 7096TIP3   OH242702   3.873   6.198   1.118  0.3901 -0.2747 -0.0684
 7096TIP3    H142703   3.811   6.266   1.144 -1.5771 -1.1314 -2.1058
 7096TIP3    H242704   3.916   6.234   1.040 -0.8426 -1.3426 -1.3101
 7097TIP3   OH242705   0.915   3.265   2.456  0.1354 -0.0394  0.5762
 7097TIP3    H142706   0.826   3.240   2.431  0.6781  0.4791 -2.3579
 7097TIP3    H242707   0.943   3.197   2.517 -1.9455 -0.7193  0.8623
 7098TIP3   OH242708   3.336   1.253  10.961  0.6097  0.2818  0.0046
 7098TIP3    H142709   3.398   1.324  10.980 -0.0741  1.1568 -0.8990
 7098TIP3    H242710   3.342   1.242  10.866 -1.7393  1.4834 -0.3454
 7099TIP3   OH242711   1.181   2.945  12.690 -0.4312 -0.4571 -0.6197
 7099TIP3    H142712   1.162   2.875  12.628  0.2856 -0.1501 -1.2067
 7099TIP3    H242713   1.207   3.019  12.635  0.1405 -0.1570  0.0384
 7100TIP3   OH242714   5.768   4.933  15.343  0.3952 -0.2898 -0.0601
 7100TIP3    H142715   5.764   5.009  15.284  0.1250 -0.0555  0.2556
 7100TIP3    H242716   5.846   4.948  15.397 -0.2732  0.3282  0.7541
 7101TIP3   OH242717   4.861   4.372   4.071  0.6713 -0.1376 -0.2772
 7101TIP3    H142718   4.876   4.439   4.137  0.2585 -0.0216 -0.3010
 7101TIP3    H242719   4.889   4.413   3.989 -1.8417  0.9217 -0.6879
 7102TIP3   OH242720   0.343   3.566  12.071 -0.3015 -0.3703 -0.0082
 7102TIP3    H142721   0.419   3.572  12.013 -0.8638 -0.1774 -0.7381
 7102TIP3    H242722   0.269   3.552  12.012 -1.0891  1.2353  0.5222
 7103TIP3   OH242723   4.225   5.370   6.384  0.3213  0.1233 -0.2771
 7103TIP3    H142724   4.304   5.421   6.396 -0.2564  1.0552 -0.3426
 7103TIP3    H242725   4.255   5.279   6.382  1.0367  0.1680  3.1290
 7104TIP3   OH242726   5.747   3.740   0.288 -0.3701  0.4626  0.2193
 7104TIP3    H142727   5.681   3.696   0.341  1.4143  0.7876  2.8931
 7104TIP3    H242728   5.743   3.831   0.316 -0.2833  0.9336 -1.2408
 7105TIP3   OH242729   2.833   5.783   0.289 -0.2169  0.1289 -0.2599
 7105TIP3    H142730   2.908   5.762   0.344 -1.1169 -1.7499  0.3381
 7105TIP3    H242731   2.797   5.863   0.327 -0.8023 -1.0939  1.9348
 7106TIP3   OH242732   1.166   2.337  14.171 -0.0087 -0.2789 -0.2333
 7106TIP3    H142733   1.237   2.293  14.125 -0.3210  1.0366 -2.0672
 7106TIP3    H242734   1.178   2.311  14.263  0.4634 -3.2107 -1.0252
 7107TIP3   OH242735   6.100   1.318   3.287 -0.2740 -0.2047  0.4997
 7107TIP3    H142736   6.112   1.334   3.381  0.2129  0.7804  0.2834
 7107TIP3    H242737   6.011   1.348   3.270 -0.1740  0.1202  0.5441
 7108TIP3   OH242738   1.330   4.008   1.648  0.5948 -0.3682  0.0833
 7108TIP3    H142739   1.320   4.072   1.718  1.3002  0.2747 -0.3890
 7108TIP3    H242740   1.259   3.945   1.663  0.0065  0.4113  0.6670
 7109TIP3   OH242741   3.384   2.126  13.844  0.3225 -0.0464 -0.3018
 7109TIP3    H142742   3.325   2.144  13.917 -0.1907 -1.0233 -0.4587
 7109TIP3    H242743   3.432   2.047  13.871  0.8824  0.1880 -0.5861
 7110TIP3   OH242744   0.448   1.767   0.046 -0.4855  0.5123  0.2890
 7110TIP3    H142745   0.481   1.688   0.089 -0.6612  0.0026 -0.4979
 7110TIP3    H242746   0.367   1.739   0.004  0.4440  0.6089 -1.6401
 7111TIP3   OH242747   4.778   4.232   0.444  0.2278 -0.3618  0.2602
 7111TIP3    H142748   4.796   4.226   0.538 -0.6641  3.1834  0.8013
 7111TIP3    H242749   4.846   4.291   0.410  0.8307 -1.9514 -1.5106
 7112TIP3   OH242750   3.593   3.546   3.321  0.0243 -0.6630  0.3551
 7112TIP3    H142751   3.647   3.531   3.399 -0.6210  0.0852  0.9559
 7112TIP3    H242752   3.648   3.517   3.248  0.9531 -0.6030  1.0189
 7113TIP3   OH242753   4.755   4.657  12.065 -0.2608  0.0225  0.2617
 7113TIP3    H142754   4.694   4.722  12.101 -1.2210 -0.6381 -0.1378
 7113TIP3    H242755   4.798   4.703  11.993 -1.5605 -0.0258 -0.5792
 7114TIP3   OH242756   0.370   2.218  13.012  0.2156 -0.5740 -0.0027
 7114TIP3    H142757   0.412   2.304  13.004 -0.5121 -0.2841 -1.1080
 7114TIP3    H242758   0.415   2.175  13.084  1.4116  0.2679 -0.2225
 7115TIP3   OH242759   6.112   4.032   5.247  0.0543 -0.5900  0.1485
 7115TIP3    H142760   6.129   3.940   5.270  0.1742 -1.0366 -1.6223
 7115TIP3    H242761   6.172   4.051   5.176  1.5405  1.5532  1.8450
 7116TIP3   OH242762   2.029   1.187  16.365  0.1998 -0.1293 -0.6145
 7116TIP3    H142763   2.030   1.108  16.419  1.7539  0.2621 -0.0157
 7116TIP3    H242764   1.939   1.219  16.371  0.4494  0.2620  2.3213
 7117TIP3   OH242765   6.359   2.025   5.415 -0.7806  0.2064 -0.2741
 7117TIP3    H142766   6.308   2.078   5.476 -1.6434 -0.2742 -0.5539
 7117TIP3    H242767   6.296   2.002   5.346  0.5787  2.2629 -2.3535
 7118TIP3   OH242768   0.334   5.651   1.617 -0.2528 -0.0130 -0.2862
 7118TIP3    H142769   0.407   5.659   1.554 -0.6668  0.5093 -0.7106
 7118TIP3    H242770   0.351   5.718   1.682  0.1269 -0.4945  0.1215
 7119TIP3   OH242771   0.322   0.425   3.024  0.7504 -0.5678 -0.8257
 7119TIP3    H142772   0.414   0.438   2.999  1.2425  1.1453  1.5490
 7119TIP3    H242773   0.286   0.513   3.030 -0.6489 -1.1536 -0.2934
 7120TIP3   OH242774   0.298   1.699   2.673  0.1384  0.6523 -0.3180
 7120TIP3    H142775   0.340   1.762   2.613  0.0261  0.4844 -0.5727
 7120TIP3    H242776   0.259   1.633   2.616 -1.5049  1.4200 -0.1543
 7121TIP3   OH242777   1.096   3.928   1.968  0.1511  0.1037  0.3001
 7121TIP3    H142778   1.018   3.875   1.950  0.7913 -0.4527 -0.9632
 7121TIP3    H242779   1.100   3.933   2.063 -1.5229  0.2935  0.4036
 7122TIP3   OH242780   0.323   0.470  14.346 -0.4923 -0.0884  0.1194
 7122TIP3    H142781   0.264   0.396  14.334 -0.5968 -0.0813  0.5555
 7122TIP3    H242782   0.411   0.433  14.335 -0.5923  0.0009 -1.0194
 7123TIP3   OH242783   4.804   3.224  12.947  0.3035  0.1926  0.3794
 7123TIP3    H142784   4.777   3.199  13.036  0.4097  0.3302  0.4487
 7123TIP3    H242785   4.766   3.311  12.933 -0.6008 -0.2578 -0.0955
 7124TIP3   OH242786   1.020   2.895   3.962  0.1082  0.4702  0.1924
 7124TIP3    H142787   1.007   2.954   4.036  2.2010  0.0832  0.9535
 7124TIP3    H242788   1.107   2.916   3.929  0.1834 -0.9871 -0.6446
 7125TIP3   OH242789   5.178   4.523  14.442  0.1840 -0.1365 -0.0685
 7125TIP3    H142790   5.096   4.552  14.402  1.3083 -0.4476 -2.7977
 7125TIP3    H242791   5.243   4.528  14.372  1.8891 -2.7833  1.1444
 7126TIP3   OH242792   2.205   2.992   1.216  0.5015  0.4176  0.7343
 7126TIP3    H142793   2.263   2.933   1.264 -0.2117 -0.8781  0.0677
 7126TIP3    H242794   2.117   2.973   1.251  0.1239  0.2756 -0.2556
 7127TIP3   OH242795   1.610   0.671  17.303 -0.4988  0.3198 -0.2166
 7127TIP3    H142796   1.651   0.718  17.376 -1.3292  0.9156 -0.1163
 7127TIP3    H242797   1.644   0.715  17.225 -0.3956  0.3501 -0.1559
 7128TIP3   OH242798   5.832   2.327  13.741 -1.4046 -0.6119 -0.1726
 7128TIP3    H142799   5.740   2.319  13.766 -0.9216 -2.7011  1.2546
 7128TIP3    H242800   5.866   2.237  13.745  1.0463  0.2514  0.8749
 7129TIP3   OH242801   0.280   1.466  17.197 -1.4103  0.0459 -0.2959
 7129TIP3    H142802   0.327   1.393  17.239 -1.2361  0.4325  0.1889
 7129TIP3    H242803   0.341   1.539  17.201 -1.7523  0.3355 -0.3927
 7130TIP3   OH242804   6.046   4.219   4.389 -0.3095 -0.2144  0.0289
 7130TIP3    H142805   5.958   4.199   4.421 -0.4318  1.1306  0.5662
 7130TIP3    H242806   6.105   4.178   4.453 -0.5530  1.7375  1.5824
 7131TIP3   OH242807   2.425   5.342  12.183 -0.3403 -0.5772  0.1986
 7131TIP3    H142808   2.447   5.257  12.146  2.4635 -0.5898  1.6203
 7131TIP3    H242809   2.373   5.322  12.261  1.2374 -1.1216  1.1538
 7132TIP3   OH242810   2.892   3.824  13.944 -0.2806 -0.1886 -0.2055
 7132TIP3    H142811   2.823   3.795  14.004  0.4645 -1.0764  0.2642
 7132TIP3    H242812   2.879   3.772  13.865  0.7775 -1.5738  0.4703
 7133TIP3   OH242813   6.029   2.242   3.992  0.1391  0.2237  0.1322
 7133TIP3    H142814   6.110   2.264   3.946 -0.0095  1.9251  0.6195
 7133TIP3    H242815   5.963   2.237   3.922  0.1823  1.4428 -0.0251
 7134TIP3   OH242816   4.453   0.554  16.728  0.0047 -0.0132 -0.8611
 7134TIP3    H142817   4.538   0.569  16.769 -0.3100 -1.2711  0.3606
 7134TIP3    H242818   4.423   0.642  16.703  1.3237  0.5318 -0.6381
 7135TIP3   OH242819   0.069   2.552  11.645 -0.2639  0.1732  0.2134
 7135TIP3    H142820   0.087   2.502  11.566 -0.7492  0.6887 -0.2371
 7135TIP3    H242821   0.017   2.627  11.615 -0.7207  0.2178  1.0546
 7136TIP3   OH242822   2.409   4.669  12.149 -0.2919  0.3161 -0.3079
 7136TIP3    H142823   2.317   4.644  12.156  0.1987 -1.3860  0.3150
 7136TIP3    H242824   2.412   4.759  12.182 -1.9191  0.8720 -1.5411
 7137TIP3   OH242825   0.442   2.670   0.989  0.7447  0.4778 -0.3773
 7137TIP3    H142826   0.515   2.640   1.042  1.1782 -0.6021 -1.5371
 7137TIP3    H242827   0.482   2.726   0.923  0.3864  0.7193 -0.3925
 7138TIP3   OH242828   4.629   1.342  15.034 -0.6844  0.0138  0.3730
 7138TIP3    H142829   4.579   1.419  15.062 -0.9089  0.3448 -0.8877
 7138TIP3    H242830   4.564   1.286  14.991 -0.2555 -0.2555  0.0722
 7139TIP3   OH242831   5.099   1.866   3.830 -0.0841 -0.2870  0.3007
 7139TIP3    H142832   5.038   1.887   3.901  0.0057 -1.5112  0.7709
 7139TIP3    H242833   5.179   1.839   3.875  0.7223  1.0214 -0.3081
 7140TIP3   OH242834   6.518   5.175   0.355  0.2662  0.4224  0.5914
 7140TIP3    H142835   6.600   5.210   0.388  0.8698  0.7315 -1.1409
 7140TIP3    H242836   6.467   5.252   0.329 -0.0155  0.1894  0.4425
 7141TIP3   OH242837   0.086   3.823   3.808 -0.5344  0.4270  0.0069
 7141TIP3    H142838   0.102   3.908   3.848  0.6830  0.4021 -0.4046
 7141TIP3    H242839   0.045   3.843   3.724  1.0360  0.6939 -0.7232
 7142TIP3   OH242840   5.848   0.982   5.158 -0.2129 -0.9535  0.1497
 7142TIP3    H142841   5.803   0.907   5.198  1.1865 -2.8112 -1.5372
 7142TIP3    H242842   5.802   0.996   5.075  0.0754 -0.4971  0.0632
 7143TIP3   OH242843   4.714   5.512   2.615  0.0555  0.4398  0.1595
 7143TIP3    H142844   4.672   5.500   2.700  0.9824 -4.8068  0.2522
 7143TIP3    H242845   4.807   5.502   2.633  0.3083 -0.1361 -1.3462
 7144TIP3   OH242846   5.293   3.826   3.530 -0.1936 -0.0481  0.0205
 7144TIP3    H142847   5.349   3.866   3.464 -1.1376 -0.0633 -0.8220
 7144TIP3    H242848   5.338   3.745   3.554  0.2067  0.0010 -0.5521
 7145TIP3   OH242849   6.547   5.521   6.254  0.3404 -0.6905  0.2000
 7145TIP3    H142850   6.581   5.524   6.343  2.2718 -0.6534 -0.4892
 7145TIP3    H242851   6.486   5.594   6.249  1.2157  0.1328  1.1027
 7146TIP3   OH242852   0.483   6.178  12.571 -0.1391 -0.0111  0.1810
 7146TIP3    H142853   0.467   6.184  12.665 -1.9215  1.4619 -0.1466
 7146TIP3    H242854   0.501   6.269  12.545 -0.5707 -0.2586 -1.0282
 7147TIP3   OH242855   4.489   1.340   6.200 -0.4140 -0.0701 -0.2897
 7147TIP3    H142856   4.407   1.365   6.243 -0.6000 -0.2415 -0.5439
 7147TIP3    H242857   4.527   1.274   6.258 -0.6995 -0.3535 -0.4199
 7148TIP3   OH242858   5.951   6.046   3.306 -0.5679 -0.0098  0.9605
 7148TIP3    H142859   5.898   6.022   3.382 -0.9404  1.0877  1.0595
 7148TIP3    H242860   6.035   6.073   3.342 -1.7267  3.5764  1.3544
 7149TIP3   OH242861   6.759   1.435   3.754 -0.2655 -0.0568 -0.0017
 7149TIP3    H142862   6.763   1.469   3.844 -1.4492  2.8348 -0.9230
 7149TIP3    H242863   6.673   1.461   3.723  0.1227 -1.0020 -2.0162
 7150TIP3   OH242864   5.517   2.567   2.058 -0.2877  0.2806 -0.1876
 7150TIP3    H142865   5.530   2.473   2.069 -2.6462 -0.2053 -0.9195
 7150TIP3    H242866   5.536   2.583   1.966  1.3826  0.8007  0.2256
 7151TIP3   OH242867   4.068   2.929  15.479  0.0395 -0.4359  0.0829
 7151TIP3    H142868   4.010   2.860  15.513 -1.4790  0.0287 -1.3782
 7151TIP3    H242869   4.095   2.896  15.393  0.6378  0.0782  0.0732
 7152TIP3   OH242870   3.795   2.615  13.584  0.1449  0.5897  0.5985
 7152TIP3    H142871   3.726   2.668  13.545 -0.8089 -1.9391 -1.4121
 7152TIP3    H242872   3.869   2.624  13.524 -0.3873 -1.1234 -0.3644
 7153TIP3   OH242873   6.678   6.024   0.376  0.2185 -0.0757 -0.0515
 7153TIP3    H142874   6.649   6.096   0.320  0.5805 -0.4628 -0.7488
 7153TIP3    H242875   6.616   5.953   0.357  0.0143 -0.0341  0.4469
 7154TIP3   OH242876   1.992   5.536   5.252 -0.0334  0.4804  0.6322
 7154TIP3    H142877   2.042   5.524   5.333 -0.3124 -0.0686  0.7288
 7154TIP3    H242878   1.948   5.452   5.238  0.7277  0.2611 -0.5867
 7155TIP3   OH242879   2.999   1.260  11.369 -0.0523  0.5687 -0.2956
 7155TIP3    H142880   3.052   1.327  11.324 -0.2605 -0.6389 -2.4546
 7155TIP3    H242881   2.911   1.272  11.334  0.0739 -1.3285 -1.3813
 7156TIP3   OH242882   1.662   1.597   0.570  0.1754  0.1477  0.5599
 7156TIP3    H142883   1.667   1.611   0.665  3.1415  1.7327  0.3018
 7156TIP3    H242884   1.751   1.573   0.545 -0.8527 -1.7660 -1.7046
 7157TIP3   OH242885   3.675   5.153   3.882 -0.0042  0.3110  0.7775
 7157TIP3    H142886   3.662   5.222   3.817  0.5373  1.9728  2.3345
 7157TIP3    H242887   3.734   5.091   3.840  1.0544  1.8061 -0.0150
 7158TIP3   OH242888   4.297   6.070   1.182 -0.2192 -1.0169 -0.1948
 7158TIP3    H142889   4.210   6.085   1.218 -0.2615 -0.2153 -0.5875
 7158TIP3    H242890   4.357   6.114   1.243 -0.1769 -0.8037 -0.3838
 7159TIP3   OH242891   3.129   4.657  15.651 -0.0270 -0.5777 -0.0901
 7159TIP3    H142892   3.143   4.648  15.745  0.2816 -0.8325 -0.1576
 7159TIP3    H242893   3.194   4.599  15.612 -0.5717 -0.9551 -0.4439
 7160TIP3   OH242894   4.660   6.460  11.818 -0.5634 -0.1339 -0.2504
 7160TIP3    H142895   4.603   6.387  11.845 -1.7739  0.9918  0.3684
 7160TIP3    H242896   4.602   6.536  11.817  0.7598  0.9070 -0.4925
 7161TIP3   OH242897   5.800   0.473  11.881 -0.0062  0.4014  0.2748
 7161TIP3    H142898   5.838   0.528  11.950 -0.7185 -0.1215  1.1054
 7161TIP3    H242899   5.761   0.400  11.928 -0.3724 -0.0479 -0.7078
 7162TIP3   OH242900   3.191   6.439   5.107 -0.2777 -0.0747  0.8488
 7162TIP3    H142901   3.275   6.395   5.102 -0.7299 -0.9150  0.5130
 7162TIP3    H242902   3.213   6.530   5.128  0.7019 -0.2979  0.8326
 7163TIP3   OH242903   3.627   4.779  16.201 -0.1342 -0.8807  0.0720
 7163TIP3    H142904   3.722   4.766  16.208 -0.0397  0.1126  0.8802
 7163TIP3    H242905   3.591   4.738  16.280 -0.4547 -1.8361 -0.5574
 7164TIP3   OH242906   6.573   1.455  15.761 -0.4791 -0.2637 -0.5676
 7164TIP3    H142907   6.641   1.446  15.695 -0.1152  0.5246 -0.3134
 7164TIP3    H242908   6.584   1.544  15.795 -2.6403  0.4825 -1.6282
 7165TIP3   OH242909   3.972   3.189  11.025  0.1252  0.1924  0.5612
 7165TIP3    H142910   3.881   3.192  11.053 -0.3457 -2.9479 -0.1931
 7165TIP3    H242911   3.976   3.244  10.947 -1.0729  0.5106  0.7105
 7166TIP3   OH242912   3.527   4.200   6.893 -0.8129 -0.0029 -0.4540
 7166TIP3    H142913   3.504   4.253   6.969 -1.1932  0.5478 -0.9390
 7166TIP3    H242914   3.467   4.231   6.824  1.5907  1.7682 -1.9199
 7167TIP3   OH242915   3.448   4.932   2.862  0.0060  0.7200 -0.1622
 7167TIP3    H142916   3.464   4.871   2.934  1.9559 -2.0198 -2.6597
 7167TIP3    H242917   3.360   4.911   2.831 -0.0300  0.4649  0.1075
 7168TIP3   OH242918   2.098   4.558   4.626 -0.5745  0.3497 -0.1504
 7168TIP3    H142919   2.053   4.488   4.578 -0.2403 -1.0882  1.5180
 7168TIP3    H242920   2.030   4.623   4.643 -0.7072  0.8916 -2.4704
 7169TIP3   OH242921   4.201   0.163   5.955  0.0930  0.1123 -0.3727
 7169TIP3    H142922   4.188   0.251   5.989  1.0662 -0.7485  2.5117
 7169TIP3    H242923   4.129   0.112   5.994  2.3162 -1.2926  2.2323
 7170TIP3   OH242924   0.496   2.496  16.672 -0.1397  0.3904 -0.7880
 7170TIP3    H142925   0.498   2.423  16.733  1.6889  2.4911  1.9012
 7170TIP3    H242926   0.408   2.495  16.635 -1.0955 -1.4053  1.3558
 7171TIP3   OH242927   6.585   5.673  15.120  0.5918  0.6887 -0.7879
 7171TIP3    H142928   6.567   5.603  15.183 -0.1409  0.8138 -0.8491
 7171TIP3    H242929   6.681   5.678  15.116  0.6546  0.8348  0.4900
 7172TIP3   OH242930   3.362   3.221  13.567  0.0524  0.2942 -0.4339
 7172TIP3    H142931   3.331   3.308  13.542 -0.0885  0.0238 -1.2423
 7172TIP3    H242932   3.360   3.221  13.662 -2.3287  0.3622 -0.4145
 7173TIP3   OH242933   0.372   2.903  10.771 -0.0305  0.1688  0.4066
 7173TIP3    H142934   0.341   2.964  10.838 -0.3392  0.6189 -0.1368
 7173TIP3    H242935   0.294   2.885  10.718  0.3572  0.3633 -0.2426
 7174TIP3   OH242936   6.574   6.581  15.260 -0.3377 -0.4787  0.1428
 7174TIP3    H142937   6.561   6.614  15.172 -2.2696  0.1134  0.6100
 7174TIP3    H242938   6.582   6.486  15.250  0.3982 -0.3362 -0.7248
 7175TIP3   OH242939   1.165   3.718  14.479 -0.2316  0.4378  0.4812
 7175TIP3    H142940   1.164   3.648  14.544  1.1919  0.0122  0.0871
 7175TIP3    H242941   1.154   3.674  14.395 -4.0396  1.1459  0.4424
 7176TIP3   OH242942   0.412   2.445  16.380  0.1892  0.1577 -0.3334
 7176TIP3    H142943   0.439   2.358  16.411 -0.2896 -1.0898 -3.0677
 7176TIP3    H242944   0.483   2.471  16.321 -0.2731  1.0700 -0.4933
 7177TIP3   OH242945   1.230   6.258   4.192 -0.1191  0.3416  0.4220
 7177TIP3    H142946   1.238   6.170   4.230 -0.4779  0.4151  0.6772
 7177TIP3    H242947   1.254   6.246   4.100  0.2728  0.0648  0.5565
 7178TIP3   OH242948   3.834   2.515   5.622 -0.2767  0.2046 -0.2454
 7178TIP3    H142949   3.896   2.486   5.689  0.1259 -1.4788 -1.2967
 7178TIP3    H242950   3.753   2.467   5.641 -0.4187  0.3442 -0.4893
 7179TIP3   OH242951   5.711   3.724   1.274 -0.2042  0.2595  0.2490
 7179TIP3    H142952   5.635   3.728   1.331 -0.2703 -0.3419  0.2132
 7179TIP3    H242953   5.781   3.689   1.329  0.2084  1.3380  0.4400
 7180TIP3   OH242954   5.983   6.622  14.749  0.6097  0.3684  0.8587
 7180TIP3    H142955   6.008   6.574  14.670 -2.4201  0.6596 -0.3843
 7180TIP3    H242956   5.941   6.702  14.716 -3.9691 -1.0964  2.4828
 7181TIP3   OH242957   2.800   6.337  12.898  0.2311 -0.1838 -0.0760
 7181TIP3    H142958   2.818   6.334  12.804  1.0685 -1.8908  0.1040
 7181TIP3    H242959   2.884   6.361  12.938  1.2398 -4.0412  0.4823
 7182TIP3   OH242960   5.634   2.075  14.204 -0.2838  0.0069 -0.3282
 7182TIP3    H142961   5.650   1.983  14.184  0.9467  0.1668 -0.1842
 7182TIP3    H242962   5.695   2.122  14.147 -0.8626  0.7292 -0.3592
 7183TIP3   OH242963   2.736   4.950  15.407  0.0036  0.5127  0.6351
 7183TIP3    H142964   2.783   4.867  15.399 -0.2985  0.3381  0.6591
 7183TIP3    H242965   2.664   4.944  15.345  1.1270  1.5688 -0.8313
 7184TIP3   OH242966   3.405   3.989  12.972 -0.3511 -1.0043  0.2792
 7184TIP3    H142967   3.390   3.935  12.895 -0.8408  0.3945 -0.6499
 7184TIP3    H242968   3.349   3.952  13.039 -1.6640 -0.8953 -0.7165
 7185TIP3   OH242969   3.374   2.993  14.676 -0.7321 -0.1829  0.3520
 7185TIP3    H142970   3.282   2.984  14.701 -0.4323  0.8590  1.9858
 7185TIP3    H242971   3.422   2.954  14.749  0.1401 -0.5630 -0.4113
 7186TIP3   OH242972   1.183   5.649  16.502 -0.0473 -0.5030 -0.7864
 7186TIP3    H142973   1.091   5.637  16.478 -0.2038 -0.6012 -0.1515
 7186TIP3    H242974   1.199   5.585  16.570  0.1861  0.2424 -0.1190
 7187TIP3   OH242975   6.358   3.152   0.779  0.1751 -0.5545 -0.2400
 7187TIP3    H142976   6.302   3.211   0.729  1.4408 -0.3967 -1.5233
 7187TIP3    H242977   6.418   3.210   0.826 -1.3567 -0.6683  1.9929
 7188TIP3   OH242978   1.485   1.430   5.965  0.1743 -0.4026  0.7415
 7188TIP3    H142979   1.446   1.359   5.914  1.5622 -0.4994 -0.2662
 7188TIP3    H242980   1.426   1.504   5.952 -1.2953 -1.3297  1.8129
 7189TIP3   OH242981   1.399   1.338   2.903 -0.2882 -0.1144 -0.1754
 7189TIP3    H142982   1.351   1.260   2.929  1.5380 -0.4453  2.6705
 7189TIP3    H242983   1.346   1.411   2.937 -0.0548 -0.3481  0.7178
 7190TIP3   OH242984   1.947   3.714  11.083  0.1709 -0.3594 -0.0636
 7190TIP3    H142985   1.985   3.727  10.996 -0.0535 -0.8567 -0.2352
 7190TIP3    H242986   1.966   3.623  11.104  2.2143  0.3391  1.3711
 7191TIP3   OH242987   2.649   2.752   5.768  0.0039 -0.1378  0.0499
 7191TIP3    H142988   2.702   2.752   5.688 -0.7567 -2.5208 -0.5212
 7191TIP3    H242989   2.559   2.737   5.737 -0.4509 -0.0894  1.2902
 7192TIP3   OH242990   0.210   5.233   1.590 -0.1142 -0.0552 -0.4741
 7192TIP3    H142991   0.265   5.208   1.516  1.5228  0.1429  0.6054
 7192TIP3    H242992   0.200   5.153   1.641  1.5950  0.4581  0.7838
 7193TIP3   OH242993   2.058   1.500   3.433  0.7649 -0.2256 -0.1538
 7193TIP3    H142994   1.978   1.549   3.454  1.9167  2.1962 -1.0810
 7193TIP3    H242995   2.052   1.486   3.338  1.3273 -0.2462 -0.1864
 7194TIP3   OH242996   3.210   3.759   5.574  0.4656 -0.4777 -0.4932
 7194TIP3    H142997   3.153   3.682   5.579 -1.9402  1.2037 -0.4235
 7194TIP3    H242998   3.236   3.776   5.664 -0.0991 -0.4138 -0.3442
 7195TIP3   OH242999   3.301   4.802   1.186  0.3842  0.0041  0.1020
 7195TIP3    H143000   3.316   4.893   1.213  0.6071  0.1110 -0.3727
 7195TIP3    H243001   3.206   4.792   1.184  0.3611 -0.0152  0.9485
 7196TIP3   OH243002   1.491   0.816   5.033  0.2518 -0.1207  0.1204
 7196TIP3    H143003   1.565   0.762   5.004 -1.1065 -1.7641 -0.4994
 7196TIP3    H243004   1.531   0.898   5.062  2.1869 -0.3799 -1.5338
 7197TIP3   OH243005   4.902   5.990   1.172 -0.7577 -0.0331  0.4704
 7197TIP3    H143006   4.853   6.034   1.103 -0.1341 -0.4955 -0.2884
 7197TIP3    H243007   4.984   6.041   1.179 -1.2889  0.7048  1.6877
 7198TIP3   OH243008   2.020   2.218  12.260 -0.3956  0.9144  0.2943
 7198TIP3    H143009   2.033   2.126  12.282 -1.2641  1.2393  2.4232
 7198TIP3    H243010   1.931   2.237  12.290  0.2718  2.7843  1.2051
 7199TIP3   OH243011   5.423   2.716   6.287 -0.5444 -0.0364 -0.2057
 7199TIP3    H143012   5.417   2.811   6.284 -2.0540 -0.1017 -2.6753
 7199TIP3    H243013   5.332   2.687   6.296 -0.1938 -1.2318 -0.3416
 7200TIP3   OH243014   4.273   2.430   1.875 -0.5174  0.0642  0.0956
 7200TIP3    H143015   4.325   2.354   1.901  0.8802  1.6420  2.3083
 7200TIP3    H243016   4.186   2.395   1.857  0.6126 -2.3201 -1.1705
 7201TIP3   OH243017   4.740   0.501   0.263 -0.3064 -0.6113 -0.1551
 7201TIP3    H143018   4.660   0.500   0.210 -0.0372 -1.8771 -0.5538
 7201TIP3    H243019   4.811   0.495   0.199  0.0184 -2.4422  0.3381
 7202TIP3   OH243020   0.034   6.640  11.980 -0.5245 -0.3152 -0.6532
 7202TIP3    H143021   0.009   6.700  11.909  2.1820  1.5834 -0.1798
 7202TIP3    H243022   0.125   6.618  11.961 -0.5634 -1.9504  0.8386
 7203TIP3   OH243023   4.058   1.894   4.343 -0.0472 -1.2465 -0.1650
 7203TIP3    H143024   4.148   1.862   4.351  0.2087 -0.6531 -0.6099
 7203TIP3    H243025   4.061   1.984   4.374 -0.4054 -1.0937 -0.5628
 7204TIP3   OH243026   3.563   3.481   1.902 -0.1865 -0.5206  0.3170
 7204TIP3    H143027   3.612   3.428   1.840  1.3994 -1.7110  2.4493
 7204TIP3    H243028   3.494   3.521   1.850 -0.0611 -2.8604 -1.8540
 7205TIP3   OH243029   1.178   0.238  13.180 -0.1751  0.3785  0.7128
 7205TIP3    H143030   1.132   0.266  13.101 -0.9282  0.2235  1.0859
 7205TIP3    H243031   1.186   0.143  13.172  2.0976  0.6091 -0.4020
 7206TIP3   OH243032   1.014   4.500   1.181  0.4824  0.1929 -0.6451
 7206TIP3    H143033   1.019   4.469   1.271 -2.1893  0.9922 -0.1435
 7206TIP3    H243034   1.085   4.564   1.174  1.7637 -1.0454  0.3352
 7207TIP3   OH243035   6.310   3.444  15.159  0.3753  0.2528  0.3295
 7207TIP3    H143036   6.346   3.437  15.071 -2.5380  0.5056 -1.0078
 7207TIP3    H243037   6.329   3.359  15.200  0.6810 -0.3370 -0.9965
 7208TIP3   OH243038   5.813   2.742  11.214  0.0071  0.3153  0.3827
 7208TIP3    H143039   5.878   2.803  11.250 -0.7912  1.6735 -0.4089
 7208TIP3    H243040   5.738   2.751  11.273  0.5621 -1.4371  1.4433
 7209TIP3   OH243041   4.414   3.912  14.531  0.8051 -0.1494  0.0129
 7209TIP3    H143042   4.458   3.832  14.504 -1.5463 -1.0106 -1.6057
 7209TIP3    H243043   4.398   3.902  14.625  3.5314  0.0220  0.5572
 7210TIP3   OH243044   2.316   6.639   5.919 -0.3774  0.4684 -0.5295
 7210TIP3    H143045   2.277   6.719   5.883 -0.6424  0.2002 -0.8389
 7210TIP3    H243046   2.400   6.631   5.875 -1.1413 -0.4215 -1.8835
 7211TIP3   OH243047   6.041   2.196  15.293  0.2472 -0.0338  0.0036
 7211TIP3    H143048   5.978   2.152  15.236 -0.5643 -1.3670  1.8431
 7211TIP3    H243049   6.126   2.175  15.255 -0.3201  1.4198 -2.2630
 7212TIP3   OH243050   0.803   2.797   5.434  0.2002 -0.2765 -0.6448
 7212TIP3    H143051   0.734   2.861   5.452  0.7823  0.0793  0.3834
 7212TIP3    H243052   0.855   2.838   5.364  0.8874  0.6446  0.3750
 7213TIP3   OH243053   5.535   6.493  15.054 -0.9622  0.1732  0.2443
 7213TIP3    H143054   5.609   6.494  14.994 -1.4341 -0.7271 -0.3659
 7213TIP3    H243055   5.569   6.533  15.134  0.0585  0.1501 -0.1627
 7214TIP3   OH243056   5.365   5.010  12.852 -0.1092 -0.1926  0.3989
 7214TIP3    H143057   5.456   5.027  12.876 -0.2710 -2.4676  3.1186
 7214TIP3    H243058   5.370   4.951  12.776  0.6348  0.3516  0.0155
 7215TIP3   OH243059   2.656   0.253  12.898  0.3151  0.1416  0.3493
 7215TIP3    H143060   2.567   0.235  12.868  0.2818  0.5476  0.2024
 7215TIP3    H243061   2.707   0.261  12.817  0.4877 -0.0943  0.4336
 7216TIP3   OH243062   1.415   6.423  13.481  0.1211 -0.3249 -0.7909
 7216TIP3    H143063   1.354   6.405  13.409 -0.1106  2.0485 -1.2435
 7216TIP3    H243064   1.364   6.403  13.560 -1.1062  1.1295 -1.1714
 7217TIP3   OH243065   1.115   5.598  15.979  0.3036  0.0008  0.7328
 7217TIP3    H143066   1.151   5.573  16.065  0.6071 -0.2358  0.5412
 7217TIP3    H243067   1.040   5.541  15.967  0.0111  0.3196  1.0238
 7218TIP3   OH243068   4.730   5.011  17.392  0.1309  0.4393 -0.5617
 7218TIP3    H143069   4.808   4.957  17.386 -0.2883 -0.2469  0.0355
 7218TIP3    H243070   4.672   4.964  17.452  0.0725  1.9200  0.6359
 7219TIP3   OH243071   1.267   6.459  15.775 -0.2232  0.2610 -0.2077
 7219TIP3    H143072   1.257   6.396  15.704 -0.6371  0.3971 -0.2777
 7219TIP3    H243073   1.309   6.410  15.845 -0.6655 -0.1318 -0.2121
 7220TIP3   OH243074   4.696   1.346  15.318 -0.1153  0.3943 -0.4741
 7220TIP3    H143075   4.779   1.395  15.320  1.1000 -1.4747 -1.8116
 7220TIP3    H243076   4.632   1.409  15.285  0.9755  1.6191 -0.3292
 7221TIP3   OH243077   1.218   5.512  16.744 -0.4042  0.0479 -0.1447
 7221TIP3    H143078   1.162   5.506  16.822  0.8586  2.6230  1.1113
 7221TIP3    H243079   1.293   5.455  16.764 -0.1651  0.5683  0.4798
 7222TIP3   OH243080   5.458   0.610  11.538  0.2307 -0.8570 -0.2922
 7222TIP3    H143081   5.537   0.570  11.575 -0.5037 -2.5387 -0.4326
 7222TIP3    H243082   5.403   0.629  11.615  0.9658  0.8640 -0.1450
 7223TIP3   OH243083   2.896   3.916  12.149  0.3200  0.2068  0.2430
 7223TIP3    H143084   2.977   3.932  12.101  0.5397 -1.1517  0.1257
 7223TIP3    H243085   2.829   3.908  12.081  0.3287 -0.0104  0.2597
 7224TIP3   OH243086   0.852   5.621   3.425  0.8172  0.1742  0.2793
 7224TIP3    H143087   0.912   5.557   3.463  1.5648  1.2912  1.0197
 7224TIP3    H243088   0.906   5.672   3.365  0.2997  0.3410 -0.0507
 7225TIP3   OH243089   4.582   3.437   2.004  0.1467  0.3261 -0.1106
 7225TIP3    H143090   4.487   3.424   2.003  0.1532  0.2757 -0.0935
 7225TIP3    H243091   4.599   3.498   1.933  0.0915  0.4027 -0.0572
 7226TIP3   OH243092   1.567   5.624  12.990  0.6942 -0.1945  0.2354
 7226TIP3    H143093   1.545   5.712  12.959 -2.4565 -0.1745  2.1245
 7226TIP3    H243094   1.651   5.635  13.035  0.4514  1.8341  0.2931
 7227TIP3   OH243095   3.519   2.237  12.053  0.3586  0.5430  0.3433
 7227TIP3    H143096   3.518   2.164  12.115  1.5017 -1.6652 -2.0537
 7227TIP3    H243097   3.438   2.286  12.071 -1.3020 -2.2540  1.0278
 7228TIP3   OH243098   3.470   0.836   5.133  0.3638 -0.1605 -0.2731
 7228TIP3    H143099   3.421   0.859   5.212  2.9939 -2.7706  2.3960
 7228TIP3    H243100   3.511   0.752   5.154  2.8163 -0.0430 -3.7187
 7229TIP3   OH243101   1.205   1.916   5.012  0.3657 -0.0009  0.0113
 7229TIP3    H143102   1.210   2.010   5.031  1.9343 -0.0015 -0.2600
 7229TIP3    H243103   1.207   1.874   5.098 -0.2507  0.1961  0.1291
 7230TIP3   OH243104   0.557   6.549   5.364 -0.3003 -0.2486 -0.3740
 7230TIP3    H143105   0.461   6.553   5.368 -0.3329 -1.1959  0.0775
 7230TIP3    H243106   0.576   6.460   5.334  0.4489 -0.3827  0.4548
 7231TIP3   OH243107   0.704   6.067  15.355  0.3426 -0.3483 -0.5110
 7231TIP3    H143108   0.758   6.056  15.276  0.5875  0.9539 -0.5544
 7231TIP3    H243109   0.763   6.045  15.427  0.5690 -0.1267 -0.6239
 7232TIP3   OH243110   2.405   5.079   3.372 -0.0688  0.4071  0.7583
 7232TIP3    H143111   2.405   5.084   3.277  2.5300  0.0097  0.6491
 7232TIP3    H243112   2.361   4.996   3.392  0.1466  0.0637 -0.1455
 7233TIP3   OH243113   0.287   2.465   0.360 -0.7456 -0.3261 -0.2991
 7233TIP3    H143114   0.237   2.427   0.287  0.4860  0.3553 -1.5278
 7233TIP3    H243115   0.252   2.553   0.368 -1.1312 -0.5204  0.1891
 7234TIP3   OH243116   3.634   4.432  14.944 -0.2745 -0.1722  0.1482
 7234TIP3    H143117   3.569   4.363  14.932 -0.1723 -0.2838  0.2332
 7234TIP3    H243118   3.584   4.506  14.979 -0.0947 -0.7936  1.8198
 7235TIP3   OH243119   2.328   4.851   5.687 -0.4861  0.0566  0.6827
 7235TIP3    H143120   2.249   4.809   5.652 -3.0337  2.4531  3.0234
 7235TIP3    H243121   2.344   4.925   5.628 -0.5126  0.0373  0.6517
 7236TIP3   OH243122   2.904   4.154  12.528  0.4929 -0.1248 -0.6494
 7236TIP3    H143123   2.853   4.216  12.476  0.4525  1.2030  0.9025
 7236TIP3    H243124   2.994   4.186  12.522  0.6130 -0.4363 -0.5508
 7237TIP3   OH243125   0.143   3.282  15.457 -0.2714  0.4989  0.4027
 7237TIP3    H143126   0.172   3.192  15.469 -0.2259  0.5788  0.8954
 7237TIP3    H243127   0.085   3.298  15.531  0.1251  1.0461  0.5931
 7238TIP3   OH243128   0.740   4.652  12.087  0.4443 -0.2542  0.2798
 7238TIP3    H143129   0.823   4.685  12.052  0.8343 -0.7050  0.7604
 7238TIP3    H243130   0.726   4.703  12.167  0.1241 -0.0016  0.0659
 7239TIP3   OH243131   5.171   0.127   1.001  0.6324  0.5457 -0.2019
 7239TIP3    H143132   5.103   0.069   1.037 -0.1811 -0.1465 -2.6201
 7239TIP3    H243133   5.145   0.214   1.030 -1.5106  0.3351 -1.2298
 7240TIP3   OH243134   2.474   6.147   2.541  0.1759 -0.0521  0.0910
 7240TIP3    H143135   2.402   6.204   2.568  0.9479  0.5997  0.8256
 7240TIP3    H243136   2.550   6.179   2.590  0.9099 -0.9010 -0.4580
 7241TIP3   OH243137   3.698   3.275  13.127 -0.6339  0.2805 -0.1612
 7241TIP3    H143138   3.672   3.219  13.200 -0.6059  0.8489  0.2911
 7241TIP3    H243139   3.662   3.362  13.149 -0.6135  0.4623 -0.8129
 7242TIP3   OH243140   3.289   1.026  10.249  0.0031 -0.1583  0.5607
 7242TIP3    H143141   3.282   1.120  10.228 -0.2580 -0.1760  0.5649
 7242TIP3    H243142   3.207   1.006  10.296 -1.6455 -1.1975 -2.4898
 7243TIP3   OH243143   5.097   0.034   6.213  0.3895 -0.0620 -0.5644
 7243TIP3    H143144   5.187   0.043   6.244 -0.0722 -0.1084  0.8659
 7243TIP3    H243145   5.096  -0.051   6.168  0.7109 -0.7966  0.7533
 7244TIP3   OH243146   0.585   4.833  11.667 -0.1784 -0.1130 -0.6764
 7244TIP3    H143147   0.668   4.788  11.652  1.1999  0.8509  2.8832
 7244TIP3    H243148   0.610   4.922  11.693 -2.3665  0.4834 -0.3957
 7245TIP3   OH243149   5.363   3.216  12.001 -0.0401 -0.3576  0.2302
 7245TIP3    H143150   5.288   3.263  11.964  0.7639 -0.9279 -2.2918
 7245TIP3    H243151   5.440   3.257  11.962  0.9815 -0.2617  2.2166
 7246TIP3   OH243152   5.403   4.907   6.235 -0.4086  0.2805  0.5274
 7246TIP3    H143153   5.330   4.969   6.224 -0.7003 -0.4743 -2.5930
 7246TIP3    H243154   5.467   4.955   6.288 -1.9836  1.9897  1.0017
 7247TIP3   OH243155   6.167   6.062   3.933 -0.3602 -0.1337 -0.1766
 7247TIP3    H143156   6.108   6.097   3.866 -1.5140 -2.7327 -0.6304
 7247TIP3    H243157   6.126   6.086   4.016 -1.4021 -0.7792 -0.4816
 7248TIP3   OH243158   0.613   1.983  12.035 -0.1596  0.1438  0.5059
 7248TIP3    H143159   0.698   1.964  11.997 -1.1811  0.9028 -2.3798
 7248TIP3    H243160   0.616   2.075  12.058 -0.8432  0.7643 -1.6683
 7249TIP3   OH243161   5.130   2.980  16.229 -0.0539  0.0552 -0.6219
 7249TIP3    H143162   5.187   2.915  16.270 -0.2444 -0.4971 -1.2072
 7249TIP3    H243163   5.170   2.997  16.144 -0.6269 -0.1691 -0.9450
 7250TIP3   OH243164   6.355   4.918  17.363 -0.3679  0.0565 -0.2830
 7250TIP3    H143165   6.341   4.961  17.279 -0.6285  2.8512  1.0760
 7250TIP3    H243166   6.420   4.972  17.407 -1.4354 -0.3481  1.9486
 7251TIP3   OH243167   0.152   6.105   4.992 -0.2128  0.1240  0.8852
 7251TIP3    H143168   0.202   6.044   5.046  0.4018  0.5276  0.7804
 7251TIP3    H243169   0.213   6.133   4.924 -0.9903 -0.4142 -0.0594
 7252TIP3   OH243170   4.800   1.339  13.373  0.9722 -0.1332 -0.5137
 7252TIP3    H143171   4.739   1.307  13.440  1.1158  1.7267  0.5686
 7252TIP3    H243172   4.747   1.397  13.318  1.6182  1.1138  0.1405
 7253TIP3   OH243173   3.102   1.350   5.696  0.1551 -0.3648 -0.5210
 7253TIP3    H143174   3.041   1.349   5.622 -1.2620 -1.6067  0.6024
 7253TIP3    H243175   3.087   1.267   5.741  2.2513 -0.4175  0.1762
 7254TIP3   OH243176   2.402   0.479   2.957  0.3741  0.3672  0.0258
 7254TIP3    H143177   2.321   0.475   2.906 -0.0875 -0.4652  0.8016
 7254TIP3    H243178   2.391   0.555   3.014  1.2220  1.7945 -1.5935
 7255TIP3   OH243179   3.980   5.720   0.815  0.0681  0.3087 -0.0845
 7255TIP3    H143180   3.929   5.659   0.762 -0.0072  0.8458 -0.6385
 7255TIP3    H243181   4.061   5.672   0.836 -0.8586 -0.7428  1.2579
 7256TIP3   OH243182   3.810   4.995   0.929 -0.1015  0.0265 -0.3624
 7256TIP3    H143183   3.755   4.925   0.892 -0.7895  0.1389  0.4349
 7256TIP3    H243184   3.895   4.953   0.944 -0.9715 -1.1319  1.6655
 7257TIP3   OH243185   0.745   5.187  13.848  0.4302  0.2653  0.5555
 7257TIP3    H143186   0.804   5.260  13.829  1.1252 -0.5208 -0.4576
 7257TIP3    H243187   0.699   5.172  13.765 -1.7180  1.2785  1.4906
 7258TIP3   OH243188   0.633   2.517   1.133  0.0437  0.2795 -0.2165
 7258TIP3    H143189   0.698   2.448   1.149 -0.0363  0.8972  3.5554
 7258TIP3    H243190   0.554   2.486   1.176 -1.0739  1.2372 -1.4937
 7259TIP3   OH243191   2.541   5.811   1.663 -0.3781 -0.0065 -0.7510
 7259TIP3    H143192   2.620   5.849   1.623 -1.0856  1.2930 -0.9425
 7259TIP3    H243193   2.477   5.809   1.592 -0.8218 -0.1554 -0.3491
 7260TIP3   OH243194   3.561   3.251   4.876  0.8515 -0.3588 -0.7624
 7260TIP3    H143195   3.601   3.258   4.963  0.0508  2.1414 -0.5151
 7260TIP3    H243196   3.559   3.157   4.858  2.5244 -0.8443  1.1985
 7261TIP3   OH243197   6.440   5.408   2.580  0.3296  0.4159  0.2240
 7261TIP3    H143198   6.422   5.501   2.570 -0.8431  0.1789 -0.0173
 7261TIP3    H243199   6.495   5.402   2.658  0.3958  1.3088  0.2495
 7262TIP3   OH243200   5.839   0.049  13.211 -0.4740 -0.2331  0.8201
 7262TIP3    H143201   5.801   0.126  13.253 -1.3584  0.0317 -0.4074
 7262TIP3    H243202   5.782   0.032  13.136  1.5285 -0.1370 -0.8148
 7263TIP3   OH243203   1.738   3.499   1.493  0.0114 -0.4665 -0.5125
 7263TIP3    H143204   1.676   3.445   1.543  0.4717 -0.2672  0.2874
 7263TIP3    H243205   1.758   3.573   1.551  1.4224 -0.8072 -0.5322
 7264TIP3   OH243206   1.203   1.919  13.006 -0.2841  0.5883  0.2121
 7264TIP3    H143207   1.144   1.994  13.003  2.6076  3.0740  0.3235
 7264TIP3    H243208   1.281   1.947  12.957  0.9362 -2.3872  0.2032
 7265TIP3   OH243209   3.033   4.500  14.588  0.0711  0.4630  0.5108
 7265TIP3    H143210   3.109   4.482  14.533 -0.2944  1.9919 -0.5501
 7265TIP3    H243211   2.958   4.493  14.529 -0.6218 -0.6533  1.4576
 7266TIP3   OH243212   0.420   1.540   0.876  0.4441 -0.1292  0.1658
 7266TIP3    H143213   0.363   1.616   0.882  1.0649  0.3361  0.2290
 7266TIP3    H243214   0.387   1.480   0.944 -0.3998 -0.1694 -0.2661
 7267TIP3   OH243215   0.529   2.942  15.881 -0.3435 -0.0546  0.4663
 7267TIP3    H143216   0.461   2.884  15.848 -0.2259 -0.2704  0.5988
 7267TIP3    H243217   0.484   3.000  15.943 -0.1541 -1.1573  1.6811
 7268TIP3   OH243218   4.339   2.341  11.369  0.0476  0.7517  0.9996
 7268TIP3    H143219   4.336   2.272  11.303 -0.0416  1.2541  0.4759
 7268TIP3    H243220   4.325   2.422  11.320  0.5396  1.1796  1.5518
 7269TIP3   OH243221   5.456   0.243   1.937  0.1379 -0.9687  0.2515
 7269TIP3    H143222   5.504   0.172   1.980 -1.4258 -2.8259 -0.9031
 7269TIP3    H243223   5.508   0.263   1.859  0.4917 -1.0037  0.4796
 7270TIP3   OH243224   6.290   5.427  12.221  0.0565 -0.0427  0.0559
 7270TIP3    H143225   6.355   5.484  12.261  0.0469  0.4992 -0.6693
 7270TIP3    H243226   6.274   5.359  12.286 -0.6420  1.3142  1.3703
 7271TIP3   OH243227   5.684   6.300  13.079 -0.0173 -0.1336 -0.2689
 7271TIP3    H143228   5.686   6.304  12.983  0.2796 -0.5873 -0.2852
 7271TIP3    H243229   5.659   6.209  13.098  0.5945 -0.2284  0.0900
 7272TIP3   OH243230   2.599   4.824   5.856  0.0037  0.0840 -0.7118
 7272TIP3    H143231   2.604   4.735   5.891  0.1105 -0.1955 -1.4346
 7272TIP3    H243232   2.553   4.815   5.773  0.1261  0.6886 -0.8483
 7273TIP3   OH243233   0.511   5.317   4.437  0.4751  0.0381 -0.2429
 7273TIP3    H143234   0.437   5.376   4.448 -0.5457 -1.4219  1.1612
 7273TIP3    H243235   0.476   5.243   4.388  1.9628  0.9061 -2.8265
 7274TIP3   OH243236   0.327   2.352  13.307 -0.2135  0.2532  0.3335
 7274TIP3    H143237   0.288   2.338  13.394 -2.6708  2.8242 -0.2029
 7274TIP3    H243238   0.351   2.264  13.278 -2.5033 -1.1507  2.2406
 7275TIP3   OH243239   3.288   3.891  13.203 -0.1620 -0.0559  0.3741
 7275TIP3    H143240   3.272   3.799  13.182  1.3582 -0.2066 -0.3118
 7275TIP3    H243241   3.377   3.892  13.239 -0.1760  1.1309  0.4169
 7276TIP3   OH243242   1.518   3.628  15.447  0.1056 -0.1822  0.6840
 7276TIP3    H143243   1.443   3.569  15.446 -0.8862  1.0386 -0.2955
 7276TIP3    H243244   1.482   3.714  15.424  2.0074  0.1797 -1.3062
 7277TIP3   OH243245   1.453   4.373   1.679  0.2404 -0.1162 -0.2620
 7277TIP3    H143246   1.490   4.354   1.593  0.2036  0.8386 -0.5014
 7277TIP3    H243247   1.372   4.419   1.661  0.7039  0.9457  0.2797
 7278TIP3   OH243248   2.614   3.738  17.266  0.3421 -0.3529 -0.1096
 7278TIP3    H143249   2.523   3.707  17.262 -0.3667  1.6016 -0.3175
 7278TIP3    H243250   2.622   3.797  17.191  2.1517 -1.3341 -0.7359
 7279TIP3   OH243251   1.898   0.064  17.371 -0.2308  0.0207 -0.0141
 7279TIP3    H143252   1.918   0.082  17.279 -1.1034  1.4657  0.0349
 7279TIP3    H243253   1.802   0.057  17.374 -0.1089 -1.9123  0.5046
 7280TIP3   OH243254   5.221   5.613  16.521 -0.9562  0.1493  0.2410
 7280TIP3    H143255   5.277   5.616  16.444 -0.6679  0.7855  0.4680
 7280TIP3    H243256   5.263   5.549  16.579 -1.3762 -0.6079 -0.2750
 7281TIP3   OH243257   1.667   3.294   0.532 -0.4467  0.5443 -0.4324
 7281TIP3    H143258   1.682   3.361   0.465 -0.1711  0.2690 -0.6497
 7281TIP3    H243259   1.732   3.313   0.600 -1.2004  1.2657  0.1073
 7282TIP3   OH243260   6.437   2.123  13.874 -0.4188 -0.2681  0.5050
 7282TIP3    H143261   6.363   2.175  13.841  1.6435  3.5406  1.2982
 7282TIP3    H243262   6.440   2.144  13.967  1.4424 -0.5882  0.5487
 7283TIP3   OH243263   0.249   0.684   3.024 -0.2674  0.1510 -0.3172
 7283TIP3    H143264   0.193   0.762   3.028  0.4235  0.6284  0.8830
 7283TIP3    H243265   0.331   0.712   3.066  0.6600 -0.7031 -1.4926
 7284TIP3   OH243266   0.622   0.349  14.908 -0.1571  0.1089 -0.2009
 7284TIP3    H143267   0.556   0.340  14.839  0.8457 -0.7453 -1.0622
 7284TIP3    H243268   0.665   0.433  14.889  1.5353 -1.0803 -1.9114
 7285TIP3   OH243269   6.480   0.274   3.670 -0.4340  0.1270 -0.6344
 7285TIP3    H143270   6.497   0.264   3.763  0.2804  0.8593 -0.6769
 7285TIP3    H243271   6.427   0.353   3.663 -1.0603 -0.2940 -0.8021
 7286TIP3   OH243272   0.896   5.174   2.832  0.6590  0.4406 -0.3366
 7286TIP3    H143273   0.803   5.172   2.811  0.8929  0.7222 -1.4645
 7286TIP3    H243274   0.901   5.147   2.923 -0.4983  0.0710 -0.3725
 7287TIP3   OH243275   4.276   2.446  17.392 -0.0369 -0.0566 -0.1222
 7287TIP3    H143276   4.309   2.536  17.400 -0.1076 -0.0679  0.3160
 7287TIP3    H243277   4.198   2.444  17.447 -0.4214 -0.2041 -0.6580
 7288TIP3   OH243278   2.339   4.823  13.823 -0.3294 -0.5869  0.3223
 7288TIP3    H143279   2.330   4.755  13.890  1.5269  0.4098  1.6844
 7288TIP3    H243280   2.433   4.843  13.821 -0.8055  2.1029  0.1944
 7289TIP3   OH243281   4.565   3.391  15.129  0.4040  0.2790  0.3425
 7289TIP3    H143282   4.583   3.297  15.127 -3.3905 -0.5942 -1.6823
 7289TIP3    H243283   4.649   3.432  15.105  2.1659 -2.4804  1.2723
 7290TIP3   OH243284   1.448   5.710   6.310 -0.5518  0.3100 -0.5144
 7290TIP3    H143285   1.391   5.656   6.256  0.3046 -1.1426 -0.0052
 7290TIP3    H243286   1.491   5.649   6.370  1.4319  1.3422 -0.7835
 7291TIP3   OH243287   3.016   5.049   5.071  0.1246 -0.0199 -0.1729
 7291TIP3    H143288   3.022   5.122   5.132  0.2271 -0.7213  0.6703
 7291TIP3    H243289   2.986   4.976   5.124  1.1170 -0.8853 -0.7680
 7292TIP3   OH243290   2.835   5.067  11.757 -0.2410  0.2051 -0.3843
 7292TIP3    H143291   2.761   5.113  11.796  0.5040  0.5707  0.6472
 7292TIP3    H243292   2.909   5.087  11.815  0.4481 -0.9694 -0.8201
 7293TIP3   OH243293   1.728   2.017   5.165  0.3426  0.0635 -0.5359
 7293TIP3    H143294   1.659   1.973   5.215 -0.6997  0.1896 -1.8297
 7293TIP3    H243295   1.779   1.945   5.127  0.2519 -0.0269 -0.4889
 7294TIP3   OH243296   3.596   1.573  12.413  0.1231  0.0517  0.2967
 7294TIP3    H143297   3.594   1.667  12.432  0.0142 -0.2553  1.9311
 7294TIP3    H243298   3.683   1.558  12.375  0.7038  0.5766  1.3825
 7295TIP3   OH243299   0.363   5.884   5.835  0.4796  0.6159 -0.4547
 7295TIP3    H143300   0.415   5.957   5.802  0.1701  0.5041 -1.2300
 7295TIP3    H243301   0.327   5.843   5.756 -0.1539  0.2290  0.0205
 7296TIP3   OH243302   5.659   6.711  16.858 -0.0290  0.2946  0.4333
 7296TIP3    H143303   5.648   6.697  16.764  1.3914 -0.2788  0.3363
 7296TIP3    H243304   5.700   6.797  16.865 -1.4095  0.9770  0.6338
 7297TIP3   OH243305   5.799   4.708  13.671 -0.6238 -0.5337 -0.5548
 7297TIP3    H143306   5.818   4.670  13.757 -1.2022  0.7064  0.1349
 7297TIP3    H243307   5.877   4.689  13.619 -0.1487 -1.0459  0.3249
 7298TIP3   OH243308   5.471   1.513   1.840  0.1689 -0.2652 -0.5145
 7298TIP3    H143309   5.440   1.574   1.906 -0.2753 -2.7900  1.7608
 7298TIP3    H243310   5.392   1.486   1.792 -0.2359 -1.6516  0.8527
 7299TIP3   OH243311   4.794   4.209   1.881 -0.0366  0.2220  0.4859
 7299TIP3    H143312   4.882   4.240   1.863  0.2291 -0.9003 -0.2648
 7299TIP3    H243313   4.737   4.283   1.860  0.4629 -0.1146 -2.4169
 7300TIP3   OH243314   1.680   5.194   1.455  0.2330 -0.5821 -0.2183
 7300TIP3    H143315   1.660   5.251   1.380 -0.3717  1.3864  1.3436
 7300TIP3    H243316   1.634   5.113   1.437  0.9658 -0.5777 -2.4560
 7301TIP3   OH243317   1.997   0.488   1.479 -0.1260  1.0766 -0.0771
 7301TIP3    H143318   2.076   0.490   1.425  1.0125  0.2414  1.4591
 7301TIP3    H243319   1.942   0.420   1.440  0.9268  0.0843  0.0919
 7302TIP3   OH243320   2.821   1.639   3.141  0.3976  0.0741 -0.0373
 7302TIP3    H143321   2.911   1.648   3.108  0.4792 -0.6860 -0.0327
 7302TIP3    H243322   2.811   1.711   3.203  0.4252  1.2214 -1.2969
 7303TIP3   OH243323   1.791   0.657  12.130 -0.0757 -0.5412  1.0170
 7303TIP3    H143324   1.853   0.704  12.184  2.2063 -0.2617 -1.6494
 7303TIP3    H243325   1.746   0.725  12.079  1.7497 -0.9530 -1.3224
 7304TIP3   OH243326   0.498   6.690  16.704  0.4185  0.3243 -0.3168
 7304TIP3    H143327   0.561   6.683  16.632  0.7875 -1.0543  0.1197
 7304TIP3    H243328   0.530   6.763  16.756  0.0488  1.4675 -1.6290
 7305TIP3   OH243329   4.516   5.188   3.240 -0.0956 -0.0889  0.3307
 7305TIP3    H143330   4.482   5.185   3.329 -0.3562 -0.7653  0.2098
 7305TIP3    H243331   4.469   5.261   3.199 -0.1932  0.0317  0.6538
 7306TIP3   OH243332   2.464   4.402  14.503  0.2526 -0.2557  0.7207
 7306TIP3    H143333   2.476   4.480  14.448  0.3326 -0.1392  0.9030
 7306TIP3    H243334   2.552   4.371  14.521  0.3279  0.6848  2.1788
 7307TIP3   OH243335   6.172   5.341  15.387 -0.0051 -0.3210  0.3098
 7307TIP3    H143336   6.162   5.333  15.292  1.0099  1.4753  0.0026
 7307TIP3    H243337   6.157   5.434  15.405  0.5749 -0.4904  1.8195
 7308TIP3   OH243338   3.645   5.504  16.628 -0.8588 -0.3979  0.2318
 7308TIP3    H143339   3.663   5.535  16.539  0.4659 -0.7737  0.3565
 7308TIP3    H243340   3.554   5.473  16.624 -0.7829 -0.5006 -1.0099
 7309TIP3   OH243341   1.667   4.389   1.882  0.1994 -0.4933  0.4714
 7309TIP3    H143342   1.615   4.425   1.810 -0.4826  0.5758  1.4621
 7309TIP3    H243343   1.663   4.457   1.950  0.4218 -1.6831  1.7029
 7310TIP3   OH243344   3.542   2.737  15.273 -0.4849 -0.1482  0.0780
 7310TIP3    H143345   3.598   2.663  15.248  0.5785  0.1226  1.4902
 7310TIP3    H243346   3.579   2.812  15.226 -0.5217 -0.2181 -0.0636
 7311TIP3   OH243347   3.687   6.143  14.984  0.4640  0.0287  0.0820
 7311TIP3    H143348   3.702   6.223  15.035 -1.6298 -0.2297  1.1786
 7311TIP3    H243349   3.639   6.085  15.042 -0.0622 -1.1552 -1.4515
 7312TIP3   OH243350   0.310   1.554  12.963 -0.4676 -0.1051  0.8365
 7312TIP3    H143351   0.240   1.617  12.977  0.7829  1.4263  0.5850
 7312TIP3    H243352   0.374   1.574  13.032  0.4018 -0.4253  0.1406
 7313TIP3   OH243353   4.451   2.515   4.024 -0.3949 -0.1611  0.0567
 7313TIP3    H143354   4.475   2.587   3.966 -1.2132  0.4228  0.4369
 7313TIP3    H243355   4.469   2.548   4.112  2.2141 -1.5421  0.1407
 7314TIP3   OH243356   2.630   6.590   0.002  0.1275  0.5529  0.1978
 7314TIP3    H143357   2.546   6.549   0.023  0.1235  1.1276  1.3728
 7314TIP3    H243358   2.696   6.525   0.027  0.0802  0.7877  0.9689
 7315TIP3   OH243359   4.419   6.617   4.812  0.4648  0.2800  0.1082
 7315TIP3    H143360   4.482   6.648   4.748 -0.6289 -0.5194 -1.4298
 7315TIP3    H243361   4.471   6.578   4.882  1.6895  1.3425 -0.1825
 7316TIP3   OH243362   1.865   1.264  13.260 -0.1691 -0.1709 -0.5249
 7316TIP3    H143363   1.789   1.306  13.299 -0.4507 -0.0702 -1.1663
 7316TIP3    H243364   1.930   1.261  13.331 -1.5140 -2.2885  0.7003
 7317TIP3   OH243365   1.967   6.678   5.650 -1.0348 -0.3612 -0.2870
 7317TIP3    H143366   1.906   6.719   5.711 -1.0700  1.0158 -1.2133
 7317TIP3    H243367   1.970   6.586   5.677 -1.5471  0.0781  1.3601
 7318TIP3   OH243368   4.409   4.341   1.584 -0.4049 -0.0460 -0.7655
 7318TIP3    H143369   4.413   4.312   1.675  1.0689  0.5485 -0.6127
 7318TIP3    H243370   4.470   4.415   1.580 -2.1718  1.4334 -1.7102
 7319TIP3   OH243371   4.358   0.900   3.820 -0.4644 -0.0226  0.4081
 7319TIP3    H143372   4.350   0.808   3.793 -0.3980  1.0061 -3.7499
 7319TIP3    H243373   4.280   0.916   3.874 -1.3191 -2.0784 -0.1291
 7320TIP3   OH243374   4.470   5.163  10.294 -0.1113 -0.1443  0.3886
 7320TIP3    H143375   4.539   5.216  10.255 -0.7701  0.0899 -0.5054
 7320TIP3    H243376   4.499   5.148  10.384  1.1663 -0.1921 -0.0090
 7321TIP3   OH243377   5.345   0.156  17.100  0.6265 -0.2448  0.2610
 7321TIP3    H143378   5.417   0.179  17.159 -0.0681 -1.0670  1.4896
 7321TIP3    H243379   5.325   0.064  17.121  0.2808 -0.5248 -1.1929
 7322TIP3   OH243380   4.760   1.310   4.197  0.0174  0.4934 -0.4627
 7322TIP3    H143381   4.723   1.296   4.110 -0.1185 -0.0740 -0.3197
 7322TIP3    H243382   4.692   1.357   4.245  0.2613  1.1828 -0.7892
 7323TIP3   OH243383   3.019   2.075   3.985  0.0357  0.3764 -0.2587
 7323TIP3    H143384   3.070   2.142   3.938 -0.0114  0.4797 -0.1645
 7323TIP3    H243385   3.070   1.995   3.977  1.7581  1.0943  2.4263
 7324TIP3   OH243386   2.674   0.711  11.229  0.3235 -0.0376  0.5867
 7324TIP3    H143387   2.620   0.664  11.165  2.1080  0.7179 -1.6049
 7324TIP3    H243388   2.687   0.648  11.300 -0.9757 -1.2481 -0.1988
 7325TIP3   OH243389   1.088   1.407  15.617  1.1339 -0.3593 -0.2591
 7325TIP3    H143390   1.139   1.327  15.610 -0.0668 -1.1571 -0.0959
 7325TIP3    H243391   1.052   1.405  15.706  2.0967  1.0022  0.2042
 7326TIP3   OH243392   2.340   0.676  17.064 -0.0962 -0.2356  0.1375
 7326TIP3    H143393   2.365   0.631  16.983 -0.0973 -1.6945  0.9200
 7326TIP3    H243394   2.375   0.765  17.054  1.8324 -1.0275 -0.5545
 7327TIP3   OH243395   1.437   2.733   2.079 -0.2036  0.3056  0.8412
 7327TIP3    H143396   1.392   2.734   1.995 -0.2007  0.3025  0.8396
 7327TIP3    H243397   1.376   2.688   2.138  0.2980 -0.7495  0.5649
 7328TIP3   OH243398   2.694   6.607  16.883  0.4383  0.3831 -0.2894
 7328TIP3    H143399   2.708   6.556  16.962 -0.0159  0.8482  0.0956
 7328TIP3    H243400   2.781   6.612  16.842  0.8951  1.0116  0.7124
 7329TIP3   OH243401   1.715   5.711  10.436  0.3419  0.7805  0.0668
 7329TIP3    H143402   1.721   5.762  10.355 -3.4896  1.6807  0.1486
 7329TIP3    H243403   1.716   5.620  10.408 -0.1791  1.0735 -0.9647
 7330TIP3   OH243404   4.806   5.887  11.491 -0.1141  0.2571 -0.3682
 7330TIP3    H143405   4.726   5.939  11.496 -1.9526 -2.3283 -1.0057
 7330TIP3    H243406   4.788   5.822  11.423  2.5984 -0.3707 -0.6002
 7331TIP3   OH243407   3.166   2.391  13.258  0.0110  0.5624 -0.2631
 7331TIP3    H143408   3.145   2.322  13.195  1.8547 -0.6260  0.3315
 7331TIP3    H243409   3.158   2.348  13.344 -0.2274  1.5114  0.2067
 7332TIP3   OH243410   2.093   3.900   4.806 -0.0386 -0.2486  0.1503
 7332TIP3    H143411   2.078   3.992   4.786  0.1403 -0.0541  0.8784
 7332TIP3    H243412   2.019   3.854   4.765  0.4192  0.0934 -1.1078
 7333TIP3   OH243413   0.732   5.375  15.390 -0.0247  0.2892  0.0724
 7333TIP3    H143414   0.717   5.281  15.379 -0.3000  0.0160  2.3435
 7333TIP3    H243415   0.790   5.382  15.466 -0.1690  1.9788  0.0756
 7334TIP3   OH243416   2.883   4.629  12.234 -0.3625 -0.0566  0.2743
 7334TIP3    H143417   2.809   4.570  12.223 -0.6689 -0.1757  2.4468
 7334TIP3    H243418   2.892   4.674  12.149 -3.1015  0.1598  0.0212
 7335TIP3   OH243419   1.153   1.376   1.841 -0.1047  0.4310  0.3664
 7335TIP3    H143420   1.057   1.381   1.835 -0.0999  0.4666  0.3250
 7335TIP3    H243421   1.173   1.285   1.822 -0.0829  0.5530 -0.2093
 7336TIP3   OH243422   6.635   1.799  16.238  0.2912  0.6384  0.4949
 7336TIP3    H143423   6.652   1.709  16.210 -0.1264  0.6716  0.1147
 7336TIP3    H243424   6.698   1.815  16.308 -1.1842 -0.7400  2.2223
 7337TIP3   OH243425   2.494   3.533  16.572 -0.0756  0.0718 -0.3946
 7337TIP3    H143426   2.461   3.601  16.631  0.2182 -1.2160  1.3016
 7337TIP3    H243427   2.415   3.497  16.530 -0.4101  0.1153  0.1896
 7338TIP3   OH243428   5.894   5.932   2.116  0.0698  0.2376  0.0715
 7338TIP3    H143429   5.958   5.915   2.185  0.1299 -0.9710 -0.2580
 7338TIP3    H243430   5.839   6.001   2.151  0.3794 -0.0446  1.1548
 7339TIP3   OH243431   1.952   5.537   1.430  0.2496  0.3993 -0.5811
 7339TIP3    H143432   1.861   5.548   1.458  0.2784 -0.4040 -0.1584
 7339TIP3    H243433   1.952   5.457   1.378  0.9590 -0.3432  0.5403
 7340TIP3   OH243434   6.390   3.730  12.910  0.0893 -0.0635  0.1951
 7340TIP3    H143435   6.379   3.819  12.945 -0.8628 -0.1621  0.1891
 7340TIP3    H243436   6.464   3.694  12.958 -0.3422  0.2824  1.1501
 7341TIP3   OH243437   5.481   5.910   2.328  0.3090 -0.7735  0.1677
 7341TIP3    H143438   5.389   5.919   2.350  0.2226 -2.2779  0.5743
 7341TIP3    H243439   5.512   5.999   2.315 -0.6805 -0.0710  2.1791
 7342TIP3   OH243440   5.228   3.127   2.933  0.4166  0.2895 -0.0474
 7342TIP3    H143441   5.229   3.154   3.025 -0.2561  0.0361  0.0417
 7342TIP3    H243442   5.288   3.053   2.930  1.4110  1.0856 -0.0701
 7343TIP3   OH243443   5.106   2.828  15.742 -0.2073  0.2640  0.2679
 7343TIP3    H143444   5.048   2.766  15.787 -1.1499  0.7911 -0.1960
 7343TIP3    H243445   5.048   2.878  15.685  0.9730 -0.5773 -1.7832
 7344TIP3   OH243446   6.111   4.934  12.456 -0.5347  0.0282 -0.2819
 7344TIP3    H143447   6.204   4.946  12.475 -0.2781 -0.1007 -1.3837
 7344TIP3    H243448   6.068   4.949  12.540  0.4460  0.4181  0.1764
 7345TIP3   OH243449   0.208   5.643  16.625 -0.4315  0.1537  0.0828
 7345TIP3    H143450   0.293   5.665  16.587 -0.7759 -0.6445 -1.2310
 7345TIP3    H243451   0.144   5.678  16.563 -1.0095 -1.2243 -0.1481
 7346TIP3   OH243452   0.561   6.275   2.493 -0.7736  0.0468  0.3736
 7346TIP3    H143453   0.651   6.281   2.460 -0.9553 -2.3899 -0.7777
 7346TIP3    H243454   0.506   6.283   2.415 -1.3298 -2.8702  0.3674
 7347TIP3   OH243455   4.288   3.402   1.552  0.0102  0.2975  0.3403
 7347TIP3    H143456   4.306   3.313   1.582  0.7134 -0.0362 -0.9812
 7347TIP3    H243457   4.193   3.412   1.560  0.0026 -0.3075  1.1529
 7348TIP3   OH243458   6.190   0.821   6.112  0.3887  0.1654  0.0397
 7348TIP3    H143459   6.216   0.866   6.192  0.4245 -0.1533  0.2095
 7348TIP3    H243460   6.150   0.889   6.058  0.7462  0.4657  0.1535
 7349TIP3   OH243461   4.405   4.017   6.059  0.0534 -0.5486 -0.3699
 7349TIP3    H143462   4.380   4.083   6.124 -1.3726 -1.5073  0.1089
 7349TIP3    H243463   4.407   4.064   5.976  1.0280  0.5096  0.2455
 7350TIP3   OH243464   0.524   2.818  17.203 -0.1845  0.0553 -0.6370
 7350TIP3    H143465   0.561   2.825  17.291 -1.7980 -0.1780  0.1023
 7350TIP3    H243466   0.573   2.881  17.151 -0.6437  1.8450  0.9705
 7351TIP3   OH243467   3.522   3.310  12.781 -0.4654 -0.1449  0.4757
 7351TIP3    H143468   3.613   3.323  12.756 -0.4462  0.1638  0.7063
 7351TIP3    H243469   3.479   3.279  12.701 -0.1311 -0.4329  0.4063
 7352TIP3   OH243470   2.107   4.011  15.272  0.0206 -0.3651  0.1966
 7352TIP3    H143471   2.118   4.069  15.347  1.6227 -1.4469  0.8453
 7352TIP3    H243472   2.151   4.056  15.200  0.6925 -0.4766  0.5362
 7353TIP3   OH243473   4.613   6.206  16.960  0.3009 -0.3257 -0.1539
 7353TIP3    H143474   4.655   6.264  16.896 -1.5086  0.8816 -0.3168
 7353TIP3    H243475   4.536   6.172  16.915  0.3061 -1.3629  0.5956
 7354TIP3   OH243476   6.172   0.945  15.551  0.1243  0.0208 -0.1089
 7354TIP3    H143477   6.136   0.856  15.544  0.0606  0.1149 -1.1652
 7354TIP3    H243478   6.105   0.994  15.600 -0.0962 -0.3810 -0.0039
 7355TIP3   OH243479   3.557   3.844   2.410  0.0992 -0.5244 -0.2375
 7355TIP3    H143480   3.591   3.815   2.494 -0.3204  0.1394  0.1696
 7355TIP3    H243481   3.463   3.826   2.414  0.3335 -2.1794 -1.2838
 7356TIP3   OH243482   6.273   4.950  12.125  0.6390  0.0368  0.9567
 7356TIP3    H143483   6.237   4.947  12.036  3.5941  0.8497 -0.3814
 7356TIP3    H243484   6.252   4.865  12.163 -1.5559  0.0407 -0.1013
 7357TIP3   OH243485   5.022   2.668  13.589 -0.1032 -0.0068 -0.0429
 7357TIP3    H143486   4.928   2.656  13.592 -0.5238  2.6595 -0.0719
 7357TIP3    H243487   5.054   2.597  13.533 -2.1790 -0.4736 -0.7146
 7358TIP3   OH243488   1.285   5.604  14.738  0.4541 -0.7101 -0.1173
 7358TIP3    H143489   1.194   5.630  14.753  0.3781 -0.1875 -1.3340
 7358TIP3    H243490   1.282   5.553  14.657  1.5774  1.7779 -1.8637
 7359TIP3   OH243491   3.551   5.262  13.532  0.0753  0.8410 -0.1827
 7359TIP3    H143492   3.630   5.294  13.575  0.0920  0.1105  0.3464
 7359TIP3    H243493   3.558   5.294  13.442  0.8596  0.9736 -0.0816
 7360TIP3   OH243494   0.081   2.583   2.870 -0.0185  0.4988 -0.0829
 7360TIP3    H143495   0.078   2.669   2.828  1.9159  0.2254 -0.9019
 7360TIP3    H243496   0.045   2.524   2.804 -0.3774  0.5403  0.0746
 7361TIP3   OH243497   2.809   3.773  11.689 -0.2235  0.2080 -0.4738
 7361TIP3    H143498   2.748   3.708  11.725 -1.9239  0.9076 -1.9618
 7361TIP3    H243499   2.757   3.852  11.680  1.8720  1.9532  1.5391
 7362TIP3   OH243500   2.654   6.381   1.706 -0.5613  0.0309 -0.1260
 7362TIP3    H143501   2.631   6.331   1.784  0.4536  0.9190  0.7882
 7362TIP3    H243502   2.667   6.315   1.638 -1.1380 -0.7852  0.5355
 7363TIP3   OH243503   5.786   2.814   5.070 -0.3813 -0.0702  0.3694
 7363TIP3    H143504   5.721   2.884   5.069 -1.1025 -0.7301 -0.7253
 7363TIP3    H243505   5.816   2.810   5.161  1.3324  3.1360  0.0706
 7364TIP3   OH243506   3.111   5.642   3.277  1.3679 -0.0687  0.2745
 7364TIP3    H143507   3.086   5.552   3.255  0.2585 -0.2066  1.9483
 7364TIP3    H243508   3.201   5.635   3.309  0.9485 -0.7797  1.3608
 7365TIP3   OH243509   2.835   2.414   4.318 -1.1648 -0.2875 -0.6849
 7365TIP3    H143510   2.819   2.346   4.253 -1.8552 -1.3420  0.5299
 7365TIP3    H243511   2.752   2.461   4.324 -1.4103 -0.7927  0.0711
 7366TIP3   OH243512   1.649   3.721   5.932  0.0082  0.5278  0.0634
 7366TIP3    H143513   1.616   3.650   5.987  2.2697 -0.9212 -0.3091
 7366TIP3    H243514   1.670   3.679   5.849 -2.0120  2.4050 -1.5195
 7367TIP3   OH243515   2.432   4.322   4.972  0.2201  0.5023 -0.3750
 7367TIP3    H143516   2.462   4.232   4.955  0.1473  0.2616  0.7309
 7367TIP3    H243517   2.511   4.375   4.968  0.5296  0.1372  0.6524
 7368TIP3   OH243518   2.519   4.702   3.329 -0.2058  0.4380  0.4401
 7368TIP3    H143519   2.603   4.742   3.348 -0.9416  0.8663  3.1139
 7368TIP3    H243520   2.507   4.637   3.398 -1.2115 -1.0425 -1.0390
 7369TIP3   OH243521   4.033   0.729  14.727 -0.0804  0.4090 -0.4140
 7369TIP3    H143522   4.016   0.710  14.819  0.2948 -0.3917 -0.5029
 7369TIP3    H243523   4.119   0.771  14.728 -0.0398  0.3270 -0.4024
 7370TIP3   OH243524   1.707   4.286  15.924  0.4305  0.0176  1.0028
 7370TIP3    H143525   1.668   4.369  15.897  2.0873  0.3472 -0.6300
 7370TIP3    H243526   1.642   4.246  15.981 -1.5482  1.2340 -0.2719
 7371TIP3   OH243527   3.182   4.587  12.119 -0.3428 -0.4316  0.0084
 7371TIP3    H143528   3.136   4.652  12.065  1.2015  2.2619  1.7397
 7371TIP3    H243529   3.130   4.508  12.109 -2.9303  1.2886 -1.4598
 7372TIP3   OH243530   1.138   0.530   1.498  0.3766  0.7112 -0.0441
 7372TIP3    H143531   1.073   0.471   1.459  1.0805 -0.9762  1.2141
 7372TIP3    H243532   1.211   0.530   1.436  0.2835  0.4191 -0.1558
 7373TIP3   OH243533   0.862   2.740   1.879 -0.1477 -0.1915 -0.7114
 7373TIP3    H143534   0.918   2.730   1.956 -0.1231  0.8124 -0.5785
 7373TIP3    H243535   0.779   2.699   1.904 -0.8893  1.9530  0.7012
 7374TIP3   OH243536   4.228   5.642  16.407  0.1719 -0.2034  0.6789
 7374TIP3    H143537   4.224   5.632  16.312 -0.3184 -2.2458  0.8624
 7374TIP3    H243538   4.245   5.735  16.421  1.0087  0.0073 -1.4108
 7375TIP3   OH243539   0.123   5.176   4.769  0.4158 -0.0190  0.3416
 7375TIP3    H143540   0.141   5.090   4.730  2.2630 -0.0970  1.2493
 7375TIP3    H243541   0.080   5.156   4.852 -2.5116  0.1149 -1.0249
 7376TIP3   OH243542   0.134   3.070  17.198 -0.2562  0.1633 -0.7074
 7376TIP3    H143543   0.136   2.989  17.147 -3.1325 -0.0067 -0.6747
 7376TIP3    H243544   0.118   3.042  17.288  2.0116  0.6478 -0.0725
 7377TIP3   OH243545   2.831   2.078   1.921  0.2254  0.1779  0.2722
 7377TIP3    H143546   2.822   1.983   1.925 -1.9117  0.1402 -2.4551
 7377TIP3    H243547   2.763   2.111   1.980 -1.3560 -0.0942 -1.2956
 7378TIP3   OH243548   5.278   2.390   1.648  0.0107 -0.3626 -0.3276
 7378TIP3    H143549   5.215   2.333   1.605 -1.4444  2.7373 -2.7509
 7378TIP3    H243550   5.363   2.363   1.614 -0.5613 -1.4646 -0.9188
 7379TIP3   OH243551   0.395   4.337  10.867  0.2734  0.2930 -0.2185
 7379TIP3    H143552   0.358   4.381  10.791 -1.6482  1.8436  1.5131
 7379TIP3    H243553   0.475   4.385  10.887  1.1715 -0.5646 -1.6152
 7380TIP3   OH243554   5.284   4.462   4.874  0.1671 -0.2700 -0.0777
 7380TIP3    H143555   5.276   4.371   4.901  1.1636 -0.2311  0.4053
 7380TIP3    H243556   5.328   4.505   4.948  0.2256  0.4798 -0.5346
 7381TIP3   OH243557   4.346   0.632  14.569  0.1176  0.6203  0.2158
 7381TIP3    H143558   4.354   0.723  14.540  1.5082 -0.6435 -4.2004
 7381TIP3    H243559   4.258   0.607  14.542 -0.8700  0.9734  2.8867
 7382TIP3   OH243560   1.199   2.360  15.535 -0.1201  0.6451 -0.3280
 7382TIP3    H143561   1.262   2.288  15.523 -2.3885 -1.2859 -1.6738
 7382TIP3    H243562   1.126   2.320  15.582 -0.5117  2.7291  0.9265
 7383TIP3   OH243563   0.121   4.857   2.523  0.0351 -0.5488  0.1398
 7383TIP3    H143564   0.199   4.808   2.550  0.9422 -0.6992 -2.4866
 7383TIP3    H243565   0.141   4.887   2.434 -1.1317  3.2271  0.9700
 7384TIP3   OH243566   6.400   1.624  16.726 -0.3646  0.0468 -0.4706
 7384TIP3    H143567   6.327   1.679  16.753 -1.4222 -1.9662  1.0550
 7384TIP3    H243568   6.372   1.586  16.643 -0.1538  0.8681 -0.9188
 7385TIP3   OH243569   2.426   0.400  12.566  0.0903 -0.3686 -0.0911
 7385TIP3    H143570   2.436   0.471  12.502  0.6230 -0.1079  0.2748
 7385TIP3    H243571   2.333   0.377  12.561 -0.3607  1.1757  0.6224
 7386TIP3   OH243572   0.345   0.698  11.764  0.3098 -0.1739  0.8922
 7386TIP3    H143573   0.317   0.615  11.726  0.3490 -0.2053  0.9319
 7386TIP3    H243574   0.309   0.764  11.706  1.4983 -0.2413  0.0527
 7387TIP3   OH243575   5.336   6.684  13.229 -0.1909  0.4735 -0.0911
 7387TIP3    H143576   5.282   6.728  13.295 -1.1817  0.1148 -0.6431
 7387TIP3    H243577   5.274   6.659  13.161  0.5654 -0.6034 -0.4021
 7388TIP3   OH243578   0.162   1.222   0.006  0.1733  0.6091  0.1295
 7388TIP3    H143579   0.228   1.211  -0.062  1.7409  1.5455  1.4110
 7388TIP3    H243580   0.092   1.272  -0.037 -0.1217 -1.0647 -1.4676
 7389TIP3   OH243581   4.667   1.072   0.325 -0.4120 -0.3597  0.1663
 7389TIP3    H143582   4.665   0.977   0.313  0.4475 -0.2335 -1.3191
 7389TIP3    H243583   4.745   1.100   0.276 -0.9189  1.1563  0.1793
 7390TIP3   OH243584   2.759   0.450  11.125 -0.2681  0.0971 -0.6518
 7390TIP3    H143585   2.715   0.448  11.210 -1.4429  2.6764 -1.1017
 7390TIP3    H243586   2.723   0.376  11.077 -2.7489  1.0018 -0.3209
 7391TIP3   OH243587   6.483   3.418  11.267 -0.7064 -0.2745 -0.2347
 7391TIP3    H143588   6.405   3.474  11.270 -1.0512 -0.7624  0.0261
 7391TIP3    H243589   6.453   3.339  11.222 -0.5137 -0.7066  0.3925
 7392TIP3   OH243590   6.142   4.564   1.233  0.2386  0.2896  0.4900
 7392TIP3    H143591   6.151   4.609   1.317 -1.1876  2.3981 -0.3844
 7392TIP3    H243592   6.228   4.575   1.191  0.6961 -0.0510  1.3124
 7393TIP3   OH243593   0.237   4.410  12.704  0.1635 -0.2415  0.0563
 7393TIP3    H143594   0.234   4.487  12.761 -0.8641  0.5585 -1.0158
 7393TIP3    H243595   0.211   4.337  12.760 -0.5588  0.4767  0.6805
 7394TIP3   OH243596   0.051   2.657  15.779  0.1039 -0.1447 -0.0488
 7394TIP3    H143597  -0.016   2.686  15.717 -0.3965  1.7081  1.2777
 7394TIP3    H243598   0.053   2.562  15.769  0.0052  0.0527 -2.8279
 7395TIP3   OH243599   3.311   2.706   5.010 -0.3968 -0.1073  0.6178
 7395TIP3    H143600   3.278   2.795   4.995 -1.6685 -0.7130 -0.4357
 7395TIP3    H243601   3.277   2.656   4.936  1.6943 -1.1361  0.3056
 7396TIP3   OH243602   0.641   4.286  16.220 -0.5717  0.0099  0.5472
 7396TIP3    H143603   0.686   4.280  16.304 -1.2194 -1.1469  0.8416
 7396TIP3    H243604   0.572   4.351  16.235  0.8056  1.6093  0.1617
 7397TIP3   OH243605   1.610   3.977  10.939  0.0663 -0.5177 -0.6544
 7397TIP3    H143606   1.527   4.023  10.933 -0.7513 -1.5635  1.4255
 7397TIP3    H243607   1.624   3.940  10.852 -0.0231  2.2298 -1.9382
 7398TIP3   OH243608   0.199   0.945  13.300 -0.5809  0.4374 -0.2856
 7398TIP3    H143609   0.213   0.897  13.218 -0.4864 -0.1248  0.0597
 7398TIP3    H243610   0.247   0.895  13.366 -2.2172 -0.1986  0.4768
 7399TIP3   OH243611   1.281   4.478  11.244 -0.0713  0.5557  0.3636
 7399TIP3    H143612   1.243   4.519  11.321 -0.9863  0.6398 -0.1163
 7399TIP3    H243613   1.277   4.547  11.177 -1.0637 -0.1000 -0.2824
 7400TIP3   OH243614   2.191   2.755   0.569 -0.7381 -0.2089 -0.1898
 7400TIP3    H143615   2.142   2.705   0.634  0.7618 -0.0486  1.1238
 7400TIP3    H243616   2.246   2.690   0.525  1.0712  0.1816  1.3873
 7401TIP3   OH243617   1.623   3.393   5.531 -0.4054 -0.0050 -0.2506
 7401TIP3    H143618   1.634   3.333   5.457 -1.1064 -0.0439 -0.3305
 7401TIP3    H243619   1.535   3.376   5.563 -0.4820  0.7207 -0.0466
 7402TIP3   OH243620   0.675   2.259   1.693  0.0245 -0.3192 -0.3513
 7402TIP3    H143621   0.636   2.202   1.627  0.4487 -0.6207 -0.3419
 7402TIP3    H243622   0.669   2.347   1.654  2.2784 -0.7211 -1.8171
 7403TIP3   OH243623   2.873   5.283  12.788 -0.5559 -0.0592 -0.5115
 7403TIP3    H143624   2.784   5.252  12.772 -0.7981 -1.0405  2.1355
 7403TIP3    H243625   2.901   5.235  12.866  1.4818  1.8326  0.0320
 7404TIP3   OH243626   4.292   3.828  13.207 -0.0308 -0.0906  0.1576
 7404TIP3    H143627   4.200   3.802  13.201 -0.4042  1.2720 -0.4902
 7404TIP3    H243628   4.302   3.897  13.141  1.7635 -1.0035 -0.6033
 7405TIP3   OH243629   6.515   4.360  12.740  0.3789  0.1083  0.0234
 7405TIP3    H143630   6.557   4.416  12.806 -0.5423 -0.5073  1.1792
 7405TIP3    H243631   6.533   4.271  12.770 -0.1035 -0.1754 -0.5291
 7406TIP3   OH243632   0.261   2.822  11.134  0.2008 -0.2985  0.4687
 7406TIP3    H143633   0.294   2.774  11.209  1.0278 -0.9806 -0.3143
 7406TIP3    H243634   0.317   2.796  11.061 -0.8284  0.0345 -0.4835
 7407TIP3   OH243635   2.593   4.702  13.205 -0.3189 -0.0543 -0.4390
 7407TIP3    H143636   2.626   4.713  13.116  0.4579  1.0479 -0.0273
 7407TIP3    H243637   2.657   4.644  13.247 -1.0723 -1.1783 -0.7810
 7408TIP3   OH243638   1.221   4.080  17.300 -0.3237 -0.8417  0.0373
 7408TIP3    H143639   1.240   4.044  17.386  1.4144 -0.7964 -0.2897
 7408TIP3    H243640   1.306   4.111  17.268 -0.9860 -0.5866 -1.5615
 7409TIP3   OH243641   3.579   1.073  15.473  0.2427 -0.4006  0.0406
 7409TIP3    H143642   3.655   1.093  15.528  1.0378 -0.1077 -1.1390
 7409TIP3    H243643   3.510   1.131  15.506  0.6740 -0.3011  0.7920
 7410TIP3   OH243644   0.943   0.454  11.810  0.2542 -0.4028  0.6200
 7410TIP3    H143645   0.863   0.468  11.860  0.9670  0.3757  1.5767
 7410TIP3    H243646   0.995   0.394  11.862  0.5752 -0.3874  0.3247
 7411TIP3   OH243647   3.160   3.757  12.575 -0.4527 -0.1868 -0.2771
 7411TIP3    H143648   3.116   3.715  12.501 -1.4804 -1.3404  0.9374
 7411TIP3    H243649   3.100   3.828  12.601 -2.0553 -2.1118  1.7387
 7412TIP3   OH243650   6.478   1.399  16.192  0.1268 -0.5073  0.8171
 7412TIP3    H143651   6.425   1.319  16.186  0.9351 -0.9410 -1.3609
 7412TIP3    H243652   6.417   1.470  16.170 -0.2883 -0.6360  1.5100
 7413TIP3   OH243653   0.789   4.869   3.092  0.7287  0.8384 -0.0231
 7413TIP3    H143654   0.860   4.933   3.093 -0.0665  1.7637  1.8583
 7413TIP3    H243655   0.822   4.798   3.038  2.1108  2.3034 -1.1989
 7414TIP3   OH243656   1.220   4.797  15.289 -0.5286 -0.2539 -0.6608
 7414TIP3    H143657   1.272   4.720  15.311 -0.2435  0.5472  1.8373
 7414TIP3    H243658   1.133   4.778  15.325 -0.7514  0.1660 -0.9666
 7415TIP3   OH243659   2.093   0.510  14.161  0.0450  0.0249 -0.1645
 7415TIP3    H143660   2.044   0.578  14.115 -0.4301  1.0746  1.7789
 7415TIP3    H243661   2.140   0.557  14.229 -0.1464 -1.5712  1.1206
 7416TIP3   OH243662   0.189   2.280   0.645 -0.3339 -0.0117  0.0415
 7416TIP3    H143663   0.212   2.359   0.693 -1.3201 -0.4197  1.2162
 7416TIP3    H243664   0.271   2.251   0.606  0.3822  0.6101  1.0595
 7417TIP3   OH243665   4.461   3.900  12.116 -0.1542  0.0684  0.1056
 7417TIP3    H143666   4.416   3.982  12.093 -0.2013 -0.3366 -1.3401
 7417TIP3    H243667   4.401   3.856  12.177 -2.0989 -0.7382 -2.2224
 7418TIP3   OH243668   3.639   0.699   2.639 -0.0321  0.7287  0.0914
 7418TIP3    H143669   3.559   0.678   2.688  0.5230  0.3244  0.8377
 7418TIP3    H243670   3.685   0.616   2.632  1.0236  1.2249  0.9481
 7419TIP3   OH243671   2.653   5.749   5.495  0.6272 -0.6600  0.0665
 7419TIP3    H143672   2.635   5.707   5.579  1.0449 -0.9494  0.0150
 7419TIP3    H243673   2.719   5.694   5.454 -0.9626 -1.6298 -1.3173
 7420TIP3   OH243674   1.036   4.466  12.414 -0.1444 -0.2602 -0.3680
 7420TIP3    H143675   1.082   4.542  12.449 -0.8712  0.5689 -1.1637
 7420TIP3    H243676   0.946   4.475  12.447 -0.5304 -0.1187 -1.4274
 7421TIP3   OH243677   3.058   2.280   2.669 -0.3139 -0.1607 -0.2531
 7421TIP3    H143678   3.128   2.217   2.684  1.2771  1.5574 -0.1470
 7421TIP3    H243679   3.086   2.330   2.593 -0.5557  1.6943  0.8152
 7422TIP3   OH243680   0.914   0.660   3.823  0.3691  0.2871 -0.6280
 7422TIP3    H143681   0.998   0.617   3.807  1.1342  1.4058  0.2433
 7422TIP3    H243682   0.900   0.650   3.917 -0.7830 -0.3883 -0.8495
 7423TIP3   OH243683   0.570   0.567  12.543 -0.4705  0.0342  0.9186
 7423TIP3    H143684   0.660   0.550  12.515  0.1687  0.3232  2.6251
 7423TIP3    H243685   0.522   0.588  12.463  1.1219  0.4843  0.0537
 7424TIP3   OH243686   2.165   0.987   2.874  0.0003  0.1925  0.7032
 7424TIP3    H143687   2.148   0.910   2.929  0.9867  0.0827  0.8729
 7424TIP3    H243688   2.104   1.054   2.907 -0.7127 -0.4477  0.6922
 7425TIP3   OH243689   6.685   1.324   2.209 -0.0960  0.2187 -0.7179
 7425TIP3    H143690   6.738   1.397   2.176  1.7723 -0.2786  0.9886
 7425TIP3    H243691   6.630   1.363   2.277  0.3038  0.2052 -0.3815
 7426TIP3   OH243692   2.633   4.098   4.988  0.1391 -0.5215 -0.2027
 7426TIP3    H143693   2.716   4.071   4.947 -0.3499 -1.1173 -0.8188
 7426TIP3    H243694   2.583   4.017   4.997  0.5552 -0.5558  2.4023
 7427TIP3   OH243695   6.766   1.203   0.290 -0.5774 -0.2083  0.0607
 7427TIP3    H143696   6.679   1.204   0.250 -0.2224  0.5011 -0.7120
 7427TIP3    H243697   6.811   1.130   0.248 -1.0060 -1.0047  0.9462
 7428TIP3   OH243698   2.823   4.322   3.658 -0.6364  0.2616  0.0467
 7428TIP3    H143699   2.870   4.241   3.674  0.3601  0.8942  0.3880
 7428TIP3    H243700   2.801   4.355   3.746  0.0303  0.9590 -0.0312
 7429TIP3   OH243701   3.929   5.005   5.542  0.2568 -0.1288 -0.1572
 7429TIP3    H143702   3.926   4.970   5.453 -0.2924 -0.2023 -0.1142
 7429TIP3    H243703   3.976   5.088   5.533 -1.5963  0.9166 -0.9007
 7430TIP3   OH243704   4.791   3.636  12.817  0.1044  0.2415  0.3064
 7430TIP3    H143705   4.857   3.568  12.809  0.1609  0.2823  0.4248
 7430TIP3    H243706   4.713   3.599  12.776  0.2213  0.2213  0.1018
 7431TIP3   OH243707   0.205   1.717   0.925  0.0996 -0.5160  0.5850
 7431TIP3    H143708   0.214   1.798   0.874 -1.0639 -0.8158 -0.1404
 7431TIP3    H243709   0.147   1.740   0.997  0.7589 -0.4102  1.0980
 7432TIP3   OH243710   2.618   5.757  16.960  0.3099 -0.6317  0.5180
 7432TIP3    H143711   2.612   5.740  17.054 -1.0714 -0.3591  0.5027
 7432TIP3    H243712   2.528   5.776  16.934  0.9134  1.0322 -0.5224
 7433TIP3   OH243713   1.117   6.423  16.138 -0.1244 -0.2540 -0.7162
 7433TIP3    H143714   1.212   6.439  16.138 -0.2049  0.3443  0.5227
 7433TIP3    H243715   1.109   6.330  16.156  0.2326 -0.4822 -1.6701
 7434TIP3   OH243716   1.045   4.404  15.278  0.1192 -0.1504  0.8094
 7434TIP3    H143717   1.118   4.440  15.228 -0.7768 -1.4721 -1.6494
 7434TIP3    H243718   1.086   4.349  15.345  1.4219 -0.8127 -0.4808
 7435TIP3   OH243719   3.911   2.365  13.923  0.2449  0.0899 -0.0409
 7435TIP3    H143720   3.987   2.324  13.883  1.3561  1.1677  0.8748
 7435TIP3    H243721   3.945   2.410  14.000 -1.3311  0.5674  0.4309
 7436TIP3   OH243722   4.663   2.412   1.405 -0.1250 -0.0744 -0.1565
 7436TIP3    H143723   4.716   2.485   1.436  1.3262 -0.9210 -0.5645
 7436TIP3    H243724   4.582   2.418   1.455  0.9026  0.4209  1.5149
 7437TIP3   OH243725   3.632   3.396   0.694  0.4265 -0.4434  0.3247
 7437TIP3    H143726   3.613   3.310   0.732  1.3920 -2.2481 -2.8367
 7437TIP3    H243727   3.727   3.397   0.684  0.2948  0.1858 -1.2373
 7438TIP3   OH243728   3.689   3.643   1.143 -0.4147  0.0895  0.0251
 7438TIP3    H143729   3.704   3.730   1.180 -0.8089  0.2170 -0.1121
 7438TIP3    H243730   3.713   3.652   1.051  2.7782 -0.8029  0.6559
 7439TIP3   OH243731   1.562   1.679   2.159 -0.2969  0.1645 -0.2119
 7439TIP3    H143732   1.489   1.656   2.216 -2.1623 -0.0798 -2.5522
 7439TIP3    H243733   1.577   1.601   2.106  0.4098  0.8421 -1.0377
 7440TIP3   OH243734   5.689   5.138  16.284 -0.8867 -0.0061 -0.2732
 7440TIP3    H143735   5.704   5.224  16.323 -1.9835  0.5570 -1.0158
 7440TIP3    H243736   5.611   5.151  16.229 -0.8985 -1.4064 -0.6106
 7441TIP3   OH243737   5.752   0.559   5.859 -0.1781 -0.1825 -0.3083
 7441TIP3    H143738   5.685   0.578   5.794 -1.8953  0.4355  1.5188
 7441TIP3    H243739   5.711   0.582   5.943  1.1736 -2.7862  1.2030
 7442TIP3   OH243740   0.076   3.508   3.550  0.3713  0.2378  0.2440
 7442TIP3    H143741   0.119   3.522   3.634 -1.3726  2.6036  0.8332
 7442TIP3    H243742   0.008   3.443   3.569 -1.2891  2.1474  1.2392
 7443TIP3   OH243743   6.692   2.117  11.843 -0.0521  0.7389  0.0539
 7443TIP3    H143744   6.743   2.092  11.921  1.2960 -0.3115 -1.1058
 7443TIP3    H243745   6.680   2.035  11.795  0.3102  1.5603 -1.4975
 7444TIP3   OH243746   0.405   0.395  13.048  0.1298 -0.0583  0.0053
 7444TIP3    H143747   0.445   0.452  12.983 -1.4556  1.9153  0.6601
 7444TIP3    H243748   0.471   0.329  13.066  2.5103  2.1761 -0.0239
 7445TIP3   OH243749   3.811   6.351  12.440 -0.4477 -0.3313 -0.1939
 7445TIP3    H143750   3.884   6.348  12.502 -0.5854  2.8371  0.3051
 7445TIP3    H243751   3.732   6.345  12.495 -0.6526 -2.8076 -0.6471
 7446TIP3   OH243752   0.180   2.305  11.735  0.2488 -0.5197  0.2800
 7446TIP3    H143753   0.163   2.395  11.706 -0.0590  0.0647  2.1234
 7446TIP3    H243754   0.161   2.307  11.829  0.3517 -2.4967  0.3705
 7447TIP3   OH243755   0.578   4.166  11.277 -0.1418 -0.3594  0.0272
 7447TIP3    H143756   0.597   4.254  11.308 -2.1980 -0.4842  1.8913
 7447TIP3    H243757   0.485   4.167  11.254  0.2266 -1.5750 -1.7782
 7448TIP3   OH243758   5.190   0.097  13.437  0.1945 -0.4323  0.7544
 7448TIP3    H143759   5.272   0.137  13.466 -0.3713  0.8809  0.5965
 7448TIP3    H243760   5.122   0.141  13.489 -0.6910  0.7439 -1.2738
 7449TIP3   OH243761   5.936   4.141  12.931 -0.4802  0.0415  0.4453
 7449TIP3    H143762   5.940   4.190  13.014  0.1845  0.6594  0.0565
 7449TIP3    H243763   5.842   4.128  12.916 -0.5985 -0.4192  1.4844
 7450TIP3   OH243764   5.946   2.763  14.311 -0.4331  0.0998  0.2981
 7450TIP3    H143765   5.949   2.723  14.224  1.0202  0.0395  0.3519
 7450TIP3    H243766   5.960   2.856  14.295  0.5184 -0.0020  0.5142
 7451TIP3   OH243767   2.169   4.171  17.075  0.3719 -0.7013  0.5584
 7451TIP3    H143768   2.088   4.146  17.119  0.1410  0.7562  1.0155
 7451TIP3    H243769   2.222   4.091  17.074 -0.5870 -1.3658  1.3235
 7452TIP3   OH243770   3.884   0.166   4.755  0.2068  0.2632 -0.1370
 7452TIP3    H143771   3.949   0.229   4.722  0.8571  0.0478  0.6824
 7452TIP3    H243772   3.915   0.145   4.843 -2.0089  1.6039  1.0514
 7453TIP3   OH243773   4.262   6.579  13.163 -0.0940 -0.3661  0.4933
 7453TIP3    H143774   4.173   6.604  13.138  0.6720  1.8720 -0.1660
 7453TIP3    H243775   4.273   6.492  13.126 -0.8094  0.7366 -2.5855
 7454TIP3   OH243776   5.096   4.870  15.299 -0.1977  0.1767  0.0369
 7454TIP3    H143777   5.150   4.940  15.262  0.0432 -0.0277  0.0067
 7454TIP3    H243778   5.009   4.886  15.263 -0.6343  1.6843  1.6215
 7455TIP3   OH243779   2.680   0.831   3.339  0.0677  0.3714  0.1000
 7455TIP3    H143780   2.605   0.836   3.398  2.3138  1.2897  3.1134
 7455TIP3    H243781   2.679   0.742   3.306 -1.1699 -0.2788  1.7724
 7456TIP3   OH243782   1.491   0.643   3.023  0.2675 -0.5247 -0.0556
 7456TIP3    H143783   1.487   0.668   3.116 -0.6084 -0.8148 -0.0127
 7456TIP3    H243784   1.402   0.654   2.991  0.7464  0.4549 -1.1142
 7457TIP3   OH243785   0.436   2.721   4.270 -0.2876 -0.3388  0.3371
 7457TIP3    H143786   0.471   2.635   4.247 -0.8265 -0.3221 -0.6153
 7457TIP3    H243787   0.367   2.702   4.334 -0.9601 -0.7052 -0.4739
 7458TIP3   OH243788   4.333   5.090   4.727 -0.0822  0.1713  0.4120
 7458TIP3    H143789   4.349   5.042   4.808  1.8743  0.9354  0.5129
 7458TIP3    H243790   4.242   5.070   4.706 -0.3667 -0.7810  2.2963
 7459TIP3   OH243791   5.387   3.215  15.956 -0.0878 -0.3422 -0.2996
 7459TIP3    H143792   5.403   3.159  16.032 -1.8684 -0.1457  0.2582
 7459TIP3    H243793   5.422   3.165  15.882  0.1554 -1.2884  0.4322
 7460TIP3   OH243794   6.365   0.300   6.300 -0.0357 -0.2935  0.1131
 7460TIP3    H143795   6.334   0.246   6.373  0.1915  0.6557  0.9266
 7460TIP3    H243796   6.436   0.353   6.338 -0.5328  0.8737 -0.5556
 7461TIP3   OH243797   3.034   1.856  13.678  0.6235 -0.1095 -0.0304
 7461TIP3    H143798   2.991   1.776  13.646  0.6419  0.2627 -1.0205
 7461TIP3    H243799   3.113   1.825  13.722 -0.5698 -0.8055  1.7388
 7462TIP3   OH243800   3.160   0.675  17.267 -0.3206 -0.2073 -0.1575
 7462TIP3    H143801   3.220   0.604  17.289 -1.1631 -0.5834  0.9992
 7462TIP3    H243802   3.217   0.752  17.258  0.5142 -0.8593 -0.7307
 7463TIP3   OH243803   0.569   1.293  17.082  0.5316  0.0338  0.2298
 7463TIP3    H143804   0.528   1.292  17.168  0.5384  0.2464  0.2367
 7463TIP3    H243805   0.561   1.384  17.053 -2.3539 -0.6105 -1.3799
 7464TIP3   OH243806   2.504   0.312  14.441  0.2516  0.2684  0.0284
 7464TIP3    H143807   2.587   0.358  14.442 -0.0568  0.8361  0.8449
 7464TIP3    H243808   2.461   0.340  14.360  0.1530  1.2838  0.4150
 7465TIP3   OH243809   3.272   2.686  15.158 -0.8070  0.2928 -0.1043
 7465TIP3    H143810   3.219   2.623  15.209 -1.1057 -2.7379 -3.7123
 7465TIP3    H243811   3.355   2.690  15.205 -1.9481 -0.0616  2.1009
 7466TIP3   OH243812   6.163   3.878  17.334 -0.6487 -0.0751  0.1562
 7466TIP3    H143813   6.191   3.881  17.242 -3.8667  2.4481 -0.9452
 7466TIP3    H243814   6.205   3.954  17.374  0.2115 -0.7863  0.6259
 7467TIP3   OH243815   1.202   4.628  10.996  0.3233 -0.0957  0.3250
 7467TIP3    H143816   1.221   4.714  10.958  2.1344 -0.0503  1.2066
 7467TIP3    H243817   1.154   4.582  10.927 -0.3028  1.4479 -0.3358
 7468TIP3   OH243818   1.171   4.116   0.499 -0.1184  0.2418  0.0947
 7468TIP3    H143819   1.251   4.095   0.547 -0.3152  1.5081  1.0385
 7468TIP3    H243820   1.177   4.066   0.418  0.1713 -2.0950  1.4672
 7469TIP3   OH243821   5.539   5.559  13.020 -0.5588 -0.4203  0.5258
 7469TIP3    H143822   5.493   5.637  13.051 -2.1295 -0.3698 -1.7673
 7469TIP3    H243823   5.629   5.589  13.005 -0.8820  0.6687  0.6847
 7470TIP3   OH243824   0.041   5.298  11.397 -0.1945 -0.2936 -0.3387
 7470TIP3    H143825   0.100   5.358  11.350 -0.7000  0.3962 -0.1207
 7470TIP3    H243826   0.099   5.247  11.453  0.2127  0.3276 -0.1719
 7471TIP3   OH243827   4.488   1.028  16.725 -0.1687 -0.3714 -0.4130
 7471TIP3    H143828   4.499   1.038  16.820  1.5989 -0.0116 -0.6261
 7471TIP3    H243829   4.461   0.937  16.713  1.3598 -0.9434  0.3271
 7472TIP3   OH243830   4.939   2.230   0.201  0.3393  0.3918 -0.3182
 7472TIP3    H143831   4.881   2.290   0.155 -1.0866  0.6058  1.5960
 7472TIP3    H243832   5.015   2.284   0.226 -0.9308  1.5224  1.4012
 7473TIP3   OH243833   5.521   6.322  11.358 -0.0790 -0.1451  0.0158
 7473TIP3    H143834   5.445   6.352  11.308  0.9684 -1.3701 -2.5337
 7473TIP3    H243835   5.544   6.239  11.316  1.9971 -0.3511  1.4535
 7474TIP3   OH243836   4.052   3.999  13.706  0.2078 -0.2966  0.1582
 7474TIP3    H143837   4.009   3.988  13.790 -0.0777 -0.3225  0.0117
 7474TIP3    H243838   4.133   3.950  13.714  0.0270 -0.5753  0.3068
 7475TIP3   OH243839   6.311   5.340   5.663  0.1273  0.4214  0.4756
 7475TIP3    H143840   6.333   5.252   5.633 -0.9909  0.5290 -0.7367
 7475TIP3    H243841   6.220   5.351   5.638  0.3023  1.9924  0.4756
 7476TIP3   OH243842   1.549   3.595   0.051  0.1828 -0.2098  0.1845
 7476TIP3    H143843   1.575   3.553  -0.031 -1.2159 -0.6947 -0.0409
 7476TIP3    H243844   1.552   3.689   0.032 -0.2069 -0.3220 -0.4463
 7477TIP3   OH243845   0.415   5.146   2.940 -0.0511  0.1838 -0.1799
 7477TIP3    H143846   0.461   5.163   3.023  1.6485  0.7588 -1.1955
 7477TIP3    H243847   0.333   5.197   2.948  0.1886  0.4255  1.0382
 7478TIP3   OH243848   0.444   0.845   1.903  1.0099 -0.5615  0.2340
 7478TIP3    H143849   0.401   0.918   1.857  1.5820  1.3710  2.5607
 7478TIP3    H243850   0.531   0.841   1.864  0.3236 -1.4017 -1.2974
 7479TIP3   OH243851   0.709   1.484   2.728  0.0359  0.2767 -0.4413
 7479TIP3    H143852   0.716   1.463   2.635  1.6341  0.8064 -0.4623
 7479TIP3    H243853   0.799   1.488   2.759 -0.4257 -2.8026  1.8241
 7480TIP3   OH243854   5.968   1.580   1.401  0.4442 -0.3001 -0.6388
 7480TIP3    H143855   5.944   1.659   1.351  1.0923  0.2562 -0.0945
 7480TIP3    H243856   5.933   1.597   1.489  1.6655 -0.0617 -0.1887
 7481TIP3   OH243857   2.920   4.059  11.813  0.8238  0.5229  0.5193
 7481TIP3    H143858   2.846   4.012  11.852 -1.2987  1.7426 -1.7121
 7481TIP3    H243859   2.905   4.052  11.719  2.6176  2.2924  0.0334
 7482TIP3   OH243860   1.373   6.200   2.060  0.1613  0.3496 -0.0066
 7482TIP3    H143861   1.350   6.291   2.080 -0.9731  0.4194 -1.4566
 7482TIP3    H243862   1.423   6.171   2.136 -1.1981  1.5399  1.4143
 7483TIP3   OH243863   4.841   5.753   4.036  0.5217  0.3340 -0.0445
 7483TIP3    H143864   4.809   5.780   4.123  0.5641  0.2938 -0.0165
 7483TIP3    H243865   4.765   5.762   3.979  0.7549  1.3841 -0.2195
 7484TIP3   OH243866   3.596   4.721   0.407  0.0600 -0.3110  0.3065
 7484TIP3    H143867   3.609   4.807   0.366  2.3624 -0.0218  1.4859
 7484TIP3    H243868   3.504   4.722   0.434 -0.1004  1.5919 -0.1210
 7485TIP3   OH243869   6.609   3.445  15.214  0.3263 -0.0394 -0.2776
 7485TIP3    H143870   6.691   3.492  15.204 -0.0321  0.5927 -0.2605
 7485TIP3    H243871   6.636   3.353  15.223  0.9152 -0.1930 -2.7659
 7486TIP3   OH243872   6.260   6.736  11.038  0.1076  0.1668  0.3184
 7486TIP3    H143873   6.311   6.774  10.967 -0.2672 -0.5481 -0.3493
 7486TIP3    H243874   6.266   6.642  11.025 -2.5327  0.0437 -0.6451
 7487TIP3   OH243875   4.531   5.891  14.943 -0.1550  0.0363  0.2970
 7487TIP3    H143876   4.558   5.902  15.034 -2.2979  0.5480  0.9248
 7487TIP3    H243877   4.583   5.956  14.895  0.4555  0.2793  1.2500
 7488TIP3   OH243878   3.288   0.979  14.400 -0.6575 -0.5354 -0.3325
 7488TIP3    H143879   3.220   0.934  14.350 -2.2019  0.1105  1.0924
 7488TIP3    H243880   3.247   1.060  14.430  1.0663  0.3367 -0.2106
 7489TIP3   OH243881   1.914   5.465   4.364 -0.1014 -1.0446  0.1320
 7489TIP3    H143882   1.967   5.494   4.437  1.9906 -2.0286 -0.9149
 7489TIP3    H243883   1.975   5.419   4.306 -1.2932  1.0593 -3.0617
 7490TIP3   OH243884   6.204   6.103  14.302  0.2811  0.2382  0.7609
 7490TIP3    H143885   6.235   6.192  14.284  1.0170 -0.1430  0.0869
 7490TIP3    H243886   6.283   6.049  14.297 -0.4416 -0.7337 -0.8068
 7491TIP3   OH243887   4.607   0.534  13.706 -0.8309  0.4065  0.5792
 7491TIP3    H143888   4.592   0.616  13.659  0.9477 -0.0527 -0.9168
 7491TIP3    H243889   4.673   0.488  13.653 -1.2195 -1.6464  1.7849
 7492TIP3   OH243890   0.433   1.101   1.824  0.2788 -0.0798 -0.5677
 7492TIP3    H143891   0.465   1.116   1.913  1.0183 -0.5223 -0.7442
 7492TIP3    H243892   0.369   1.170   1.809 -1.2515 -1.0822  0.9781
 7493TIP3   OH243893   0.818   3.828   1.079 -0.1660  0.0987  0.0257
 7493TIP3    H143894   0.903   3.850   1.039 -1.0919  0.6641 -1.7642
 7493TIP3    H243895   0.764   3.802   1.005 -1.5005 -0.4608  1.1722
 7494TIP3   OH243896   4.209   5.592   4.400  0.3901 -0.1449  0.0654
 7494TIP3    H143897   4.223   5.687   4.396 -0.9834  0.1255  0.8636
 7494TIP3    H243898   4.294   5.554   4.377  1.0782  1.2812  0.1301
 7495TIP3   OH243899   5.848   1.419   4.535  1.2104 -0.3499  0.0398
 7495TIP3    H143900   5.849   1.399   4.629  3.1337 -0.4753  0.0216
 7495TIP3    H243901   5.776   1.366   4.501  0.6087 -0.4603  1.3950
 7496TIP3   OH243902   2.183   1.174   1.392 -0.0514 -0.2734  0.2111
 7496TIP3    H143903   2.116   1.233   1.426 -0.8136 -0.0949 -1.4928
 7496TIP3    H243904   2.151   1.148   1.306  2.1055 -0.0961 -0.7214
 7497TIP3   OH243905   4.056   1.769  16.169 -0.4813 -0.1266  0.0973
 7497TIP3    H143906   4.035   1.701  16.105 -0.7680  0.8759 -0.9096
 7497TIP3    H243907   3.971   1.801  16.199 -0.4403  1.4322 -1.2700
 7498TIP3   OH243908   0.332   4.299  17.203  0.6132 -0.7467  0.3879
 7498TIP3    H143909   0.380   4.242  17.262  0.2916 -0.5490  0.8506
 7498TIP3    H243910   0.246   4.258  17.194  0.5552 -0.6113  0.3119
 7499TIP3   OH243911   5.393   0.950  13.576  0.1185  0.1733  0.1216
 7499TIP3    H143912   5.461   0.983  13.517  0.3278 -0.0169  0.2554
 7499TIP3    H243913   5.336   1.025  13.591 -0.4215  0.0001 -1.0090
 7500TIP3   OH243914   0.388   0.618  12.342 -0.5145  0.4333  0.5307
 7500TIP3    H143915   0.293   0.617  12.327 -0.5305 -0.5464  0.6845
 7500TIP3    H243916   0.420   0.683  12.280 -1.2511  0.5639  0.2693
 7501TIP3   OH243917   3.289   6.593   6.167 -0.6089  0.1727 -0.4493
 7501TIP3    H143918   3.306   6.682   6.197 -1.9614  0.2588  0.1563
 7501TIP3    H243919   3.209   6.600   6.115 -2.3942 -1.0634  1.9329
 7502TIP3   OH243920   5.824   5.985   0.747 -0.0916 -0.5075 -0.1323
 7502TIP3    H143921   5.821   5.950   0.657 -0.7141  2.8174 -1.5452
 7502TIP3    H243922   5.748   5.945   0.790  0.0168 -1.9108 -1.1756
 7503TIP3   OH243923   4.610   2.760  11.603 -0.0816  0.3034  0.3069
 7503TIP3    H143924   4.659   2.818  11.545 -0.9982  1.4698  0.6575
 7503TIP3    H243925   4.578   2.690  11.545  1.8049 -0.3911  0.0543
 7504TIP3   OH243926   0.703   2.706  15.361 -0.1930 -0.4511 -0.6918
 7504TIP3    H143927   0.721   2.800  15.363  1.8872 -0.8185  0.3820
 7504TIP3    H243928   0.773   2.669  15.308 -0.4926 -1.5056 -0.3792
 7505TIP3   OH243929   4.293   3.610  12.025 -0.2021  0.3443  0.2044
 7505TIP3    H143930   4.363   3.670  12.053 -0.4580  0.0131  1.6363
 7505TIP3    H243931   4.325   3.523  12.050 -0.9630  0.1523  0.5269
 7506TIP3   OH243932   1.602   2.180   1.742 -0.2677  0.0223 -0.0827
 7506TIP3    H143933   1.658   2.102   1.742 -0.1749  0.0625 -1.4155
 7506TIP3    H243934   1.658   2.250   1.708 -0.5561  0.5194  0.4491
 7507TIP3   OH243935   2.125   3.287   3.027 -0.4103  0.1797  0.1921
 7507TIP3    H143936   2.030   3.296   3.029 -0.6196 -1.6975  0.4351
 7507TIP3    H243937   2.143   3.239   2.947  0.4165  1.1423 -0.2140
 7508TIP3   OH243938   5.957   5.956  15.170  0.4618  0.0341  0.4845
 7508TIP3    H143939   5.999   5.870  15.162 -0.1289 -0.0966 -3.8303
 7508TIP3    H243940   5.865   5.936  15.186  0.3835 -0.1773 -0.1739
 7509TIP3   OH243941   5.551   4.709   1.469 -0.3559 -0.5454  0.3581
 7509TIP3    H143942   5.467   4.751   1.453 -0.5464 -0.9494  0.2778
 7509TIP3    H243943   5.575   4.670   1.385  1.3155  1.9938 -0.4423
 7510TIP3   OH243944   0.260   1.407   3.311 -0.1967  0.4078 -0.3395
 7510TIP3    H143945   0.286   1.368   3.228  1.5396  0.6327  0.0433
 7510TIP3    H243946   0.225   1.493   3.288 -1.4973 -0.2540 -0.9585
 7511TIP3   OH243947   6.051   5.519  10.357  0.1069 -0.7775 -0.1167
 7511TIP3    H143948   6.133   5.569  10.349 -0.2995  0.0102  0.5605
 7511TIP3    H243949   6.058   5.452  10.289  0.8169 -0.0127 -0.8214
 7512TIP3   OH243950   2.607   5.500   1.798 -0.2970  0.4381 -0.2155
 7512TIP3    H143951   2.611   5.587   1.838 -0.3868  0.9809 -1.3548
 7512TIP3    H243952   2.516   5.472   1.811 -0.5383  0.9590 -0.7498
 7513TIP3   OH243953   3.097   5.508   4.875  0.0396 -0.1082 -1.0022
 7513TIP3    H143954   3.164   5.543   4.816  0.5498 -1.2911 -1.1600
 7513TIP3    H243955   3.108   5.557   4.956  2.4009 -1.5367 -0.3689
 7514TIP3   OH243956   4.734   2.100   5.997 -0.5858  0.2088 -0.1454
 7514TIP3    H143957   4.646   2.087   6.033 -0.5173  3.3388  1.4664
 7514TIP3    H243958   4.762   2.012   5.971 -2.1063 -1.8144  4.1071
 7515TIP3   OH243959   6.505   4.740  16.938  0.0650  0.1304 -0.0241
 7515TIP3    H143960   6.579   4.781  16.894  0.5002 -1.2541 -0.6356
 7515TIP3    H243961   6.543   4.666  16.986 -1.0791 -1.6531 -1.7005
 7516TIP3   OH243962   4.470   0.936  11.557 -0.3075  0.4005 -0.1682
 7516TIP3    H143963   4.499   0.963  11.469 -0.0587 -0.8172 -0.4780
 7516TIP3    H243964   4.480   0.841  11.557 -3.6540 -0.0460 -0.0268
 7517TIP3   OH243965   0.382   3.617  15.850 -0.0165  0.1956 -0.2117
 7517TIP3    H143966   0.406   3.642  15.761  0.9232 -1.7988 -0.5849
 7517TIP3    H243967   0.429   3.535  15.865 -2.3059 -0.9753  1.1312
 7518TIP3   OH243968   3.774   6.387  15.134  0.4675  0.3577 -0.0388
 7518TIP3    H143969   3.756   6.388  15.228 -0.3309 -1.3816 -0.1267
 7518TIP3    H243970   3.699   6.432  15.095 -0.8036 -1.6179 -0.0023
 7519TIP3   OH243971   1.405   5.343   1.641 -0.2265  0.6511  0.5590
 7519TIP3    H143972   1.437   5.326   1.729 -4.0106  0.5183  2.1061
 7519TIP3    H243973   1.384   5.257   1.606 -0.5877  0.8219  0.3488
 7520TIP3   OH243974   5.793   4.924  14.640 -0.1177 -1.1676  0.2749
 7520TIP3    H143975   5.734   4.907  14.566  0.1053 -1.1951  0.0982
 7520TIP3    H243976   5.871   4.960  14.599  0.5347 -2.4202  0.3549
 7521TIP3   OH243977   6.085   5.065  15.041  0.3338  0.0604 -0.4407
 7521TIP3    H143978   6.166   5.035  15.000  1.0924  1.0828  0.2508
 7521TIP3    H243979   6.079   5.158  15.019 -0.0556  0.2603  0.4557
 7522TIP3   OH243980   6.156   4.689  12.671 -0.5628  0.3050  0.1825
 7522TIP3    H143981   6.243   4.727  12.683  0.5580 -1.0968 -2.3885
 7522TIP3    H243982   6.112   4.749  12.610 -0.7171  0.1357  0.1265
 7523TIP3   OH243983   4.090   3.424   5.785 -0.6279 -0.2228 -0.0001
 7523TIP3    H143984   4.112   3.405   5.694 -0.7294  1.9330 -0.5354
 7523TIP3    H243985   4.066   3.339   5.822  1.1407 -1.4495 -1.4734
 7524TIP3   OH243986   0.651   6.172  13.155  0.2073 -0.1911  0.0367
 7524TIP3    H143987   0.703   6.252  13.161 -0.5867  0.2999  0.7974
 7524TIP3    H243988   0.600   6.182  13.075  1.6927 -0.9577 -1.0475
 7525TIP3   OH243989   5.593   1.849  17.191 -0.1702 -0.2406  0.4692
 7525TIP3    H143990   5.622   1.758  17.189 -0.5087 -0.3410 -0.6415
 7525TIP3    H243991   5.508   1.846  17.234 -0.5308 -0.5730 -0.2448
 7526TIP3   OH243992   3.973   4.816  13.577  0.6112 -0.5880  0.0870
 7526TIP3    H143993   3.889   4.850  13.547  0.8989  0.5610  0.5502
 7526TIP3    H243994   4.029   4.893  13.585  2.1984 -1.4822 -1.6755
 7527TIP3   OH243995   1.794   3.152   2.208 -0.0165 -0.6199 -0.7521
 7527TIP3    H143996   1.854   3.203   2.262 -0.3714 -0.5015 -0.4642
 7527TIP3    H243997   1.806   3.062   2.237 -1.0434 -0.4259  0.3539
 7528TIP3   OH243998   6.142   5.196  11.072 -0.3333  0.1748 -0.3581
 7528TIP3    H143999   6.211   5.254  11.105  0.9123 -0.9623 -0.8412
 7528TIP3    H244000   6.181   5.108  11.077 -1.7543 -0.4957 -0.6621
 7529TIP3   OH244001   5.832   1.569  11.478  0.4642  0.0491 -0.0232
 7529TIP3    H144002   5.898   1.542  11.414  1.9766  0.7997  1.1312
 7529TIP3    H244003   5.850   1.515  11.556  1.5420  2.0860  1.2386
 7530TIP3   OH244004   0.691   4.295  10.394  0.1707  0.1670  0.4370
 7530TIP3    H144005   0.738   4.375  10.372 -1.2616  0.3034 -2.8353
 7530TIP3    H244006   0.617   4.325  10.448  0.3480  0.8741  0.2991
 7531TIP3   OH244007   2.414   6.136   1.435  0.2987 -0.1586 -0.0398
 7531TIP3    H144008   2.358   6.212   1.453  0.8757 -0.1268  1.7505
 7531TIP3    H244009   2.360   6.061   1.459  1.3019 -0.0918  2.7521
 7532TIP3   OH244010   4.932   6.404   3.620 -0.2862  0.3597 -0.1495
 7532TIP3    H144011   4.845   6.423   3.656 -0.7356 -0.2482 -0.8687
 7532TIP3    H244012   4.956   6.484   3.573 -0.2403  0.7062  0.4557
 7533TIP3   OH244013   0.000   2.393   1.244  0.5944 -0.2817  0.0560
 7533TIP3    H144014   0.011   2.430   1.156 -0.9106  0.5549  0.1980
 7533TIP3    H244015  -0.050   2.458   1.292 -0.5720 -1.7040  0.8666
 7534TIP3   OH244016   3.797   5.793   2.598 -0.1104  0.1285  0.0092
 7534TIP3    H144017   3.705   5.769   2.586  0.3203 -1.3443 -0.5911
 7534TIP3    H244018   3.821   5.837   2.516 -0.2405  0.3760  0.1040
 7535TIP3   OH244019   1.455   1.530   4.257  0.4563 -0.3397  0.0762
 7535TIP3    H144020   1.539   1.485   4.268  0.4003 -0.6185 -0.5861
 7535TIP3    H244021   1.392   1.459   4.245  0.2271 -0.1074 -0.0887
 7536TIP3   OH244022   3.105   1.490   1.821  0.4502  0.4511 -0.2193
 7536TIP3    H144023   3.153   1.492   1.904  0.0976  2.5726 -0.0130
 7536TIP3    H244024   3.016   1.465   1.846  0.2201  1.5746  0.1559
 7537TIP3   OH244025   5.356   5.520   4.614 -0.1118 -0.1389 -0.5230
 7537TIP3    H144026   5.419   5.449   4.620 -2.1927 -2.0587 -0.1158
 7537TIP3    H244027   5.301   5.497   4.538 -0.9985  0.8583 -0.2099
 7538TIP3   OH244028   0.699   2.803  12.289 -0.0374  0.2872 -0.0953
 7538TIP3    H144029   0.718   2.818  12.382  1.3098  0.0868 -0.3195
 7538TIP3    H244030   0.703   2.890  12.249  1.8597  0.1177 -0.3684
 7539TIP3   OH244031   4.303   1.408  17.170  0.4092  0.5327  0.6909
 7539TIP3    H144032   4.368   1.454  17.222  0.7485 -0.6101  1.3030
 7539TIP3    H244033   4.239   1.376  17.233 -0.6725  1.4812  0.1179
 7540TIP3   OH244034   3.176   4.679   5.437  0.0954 -0.2347 -0.0527
 7540TIP3    H144035   3.143   4.636   5.358 -0.3044  1.9930 -1.1732
 7540TIP3    H244036   3.247   4.735   5.407  0.0285  0.5627  1.1817
 7541TIP3   OH244037   6.638   3.115   1.765 -0.3505  0.1346  0.1067
 7541TIP3    H144038   6.731   3.096   1.751 -0.2407  1.8652 -2.0395
 7541TIP3    H244039   6.595   3.031   1.753  0.7859 -0.3564 -0.6991
 7542TIP3   OH244040   2.451   2.530  14.959  0.2370 -0.1085 -0.3325
 7542TIP3    H144041   2.377   2.591  14.962  0.0825 -0.2860 -0.5076
 7542TIP3    H244042   2.439   2.481  14.878 -0.3247 -1.2302  0.3898
 7543TIP3   OH244043   3.152   3.882   3.798 -0.2007 -0.3250  0.2075
 7543TIP3    H144044   3.224   3.902   3.738  1.9327 -0.0023  2.6859
 7543TIP3    H244045   3.195   3.860   3.880 -2.9694  0.4604  1.9990
 7544TIP3   OH244046   2.100   3.687  12.449  0.1797 -0.1318  0.2163
 7544TIP3    H144047   2.016   3.695  12.404  0.6724  4.7870 -0.3810
 7544TIP3    H244048   2.140   3.609  12.411 -2.0171  0.2382 -3.3476
 7545TIP3   OH244049   4.817   2.898  13.017 -0.1340 -0.1079 -0.0106
 7545TIP3    H144050   4.790   2.841  13.089 -1.0489  0.7520  0.3502
 7545TIP3    H244051   4.870   2.966  13.060 -1.1950  0.7572 -0.0379
 7546TIP3   OH244052   2.365   3.409   3.535  0.1480 -0.1296 -0.0243
 7546TIP3    H144053   2.416   3.338   3.495 -1.7618 -2.8900  1.9967
 7546TIP3    H244054   2.277   3.400   3.497 -0.2744  0.8143  0.6838
 7547TIP3   OH244055   3.720   5.947   2.850  0.7202 -0.1847  0.0354
 7547TIP3    H144056   3.780   5.905   2.789  0.1952  0.1890 -0.7589
 7547TIP3    H244057   3.702   5.881   2.916  0.6092 -0.9135 -0.7057
 7548TIP3   OH244058   0.704   5.679  17.161  0.0085 -0.1465  0.3973
 7548TIP3    H144059   0.732   5.646  17.076  0.5112 -0.3782  0.6431
 7548TIP3    H244060   0.647   5.610  17.195 -2.3518  1.0875 -0.8493
 7549TIP3   OH244061   0.169   1.953   2.232  0.1727 -0.2265 -0.0508
 7549TIP3    H144062   0.213   1.916   2.310  0.1362  0.2020  0.1737
 7549TIP3    H244063   0.092   1.996   2.267 -0.3316 -0.8055 -0.4260
 7550TIP3   OH244064   0.886   1.461  12.703 -0.0330 -0.7796  0.3526
 7550TIP3    H144065   0.803   1.458  12.656 -0.3480 -0.3488  0.8703
 7550TIP3    H244066   0.866   1.429  12.791  0.1721  0.0681  0.7160
 7551TIP3   OH244067   1.506   3.564   5.174 -0.1877 -0.3871 -0.1198
 7551TIP3    H144068   1.453   3.599   5.245  0.8144  0.5601  0.1909
 7551TIP3    H244069   1.594   3.596   5.192  0.1600 -0.4658 -1.5685
 7552TIP3   OH244070   1.248   4.247   1.060 -0.2891  0.5565 -0.5540
 7552TIP3    H144071   1.185   4.296   1.113 -0.8274 -0.5390 -0.1400
 7552TIP3    H244072   1.256   4.297   0.979 -1.7545  0.6943 -0.6373
 7553TIP3   OH244073   6.236   4.935   1.259  0.2348  0.0632  0.7320
 7553TIP3    H144074   6.256   4.908   1.169  1.0845  1.6009  0.4189
 7553TIP3    H244075   6.240   4.854   1.310  0.9598 -0.6513 -0.4157
 7554TIP3   OH244076   4.299   0.030  14.428 -0.6694  0.4180 -0.0617
 7554TIP3    H144077   4.321   0.054  14.518  1.4020 -0.3165 -0.3268
 7554TIP3    H244078   4.361   0.079  14.374 -3.6572  3.0751 -1.3879
 7555TIP3   OH244079   3.267   2.482  14.105 -0.1323  0.0875  0.0184
 7555TIP3    H144080   3.198   2.459  14.042 -1.7409 -0.1898  1.7996
 7555TIP3    H244081   3.230   2.554  14.155  1.2711  0.5558  0.4212
 7556TIP3   OH244082   5.648   4.417   0.120 -0.1446  0.1248  0.1490
 7556TIP3    H144083   5.657   4.510   0.140  0.8817 -0.1513  1.1429
 7556TIP3    H244084   5.593   4.383   0.191 -0.5158 -0.0166 -0.2097
 7557TIP3   OH244085   4.688   1.585   6.228 -0.2767  0.3405  0.1833
 7557TIP3    H144086   4.649   1.667   6.257 -1.9142 -0.4420  0.2799
 7557TIP3    H244087   4.615   1.523   6.225  1.1635 -1.5396  1.6281
 7558TIP3   OH244088   0.516   2.128   1.500 -0.1249  0.0864 -0.2100
 7558TIP3    H144089   0.429   2.106   1.532  0.7130 -2.1596  0.7503
 7558TIP3    H244090   0.519   2.093   1.411 -0.5417  1.1674 -0.6648
 7559TIP3   OH244091   5.688   0.464   0.966  0.2859  0.0303 -0.3379
 7559TIP3    H144092   5.757   0.432   1.024 -0.0571 -0.0620  0.0241
 7559TIP3    H244093   5.730   0.471   0.880  0.8294  0.2710 -0.0570
 7560TIP3   OH244094   4.174   6.282   0.963 -0.3039 -0.0655 -0.6123
 7560TIP3    H144095   4.192   6.195   0.999 -2.7071 -0.3094  0.1783
 7560TIP3    H244096   4.154   6.336   1.039 -0.9690  0.6183 -1.2536
 7561TIP3   OH244097   2.577   2.357   0.861  0.6358  0.3848 -0.4267
 7561TIP3    H144098   2.545   2.281   0.910  1.9866  0.9709  1.5071
 7561TIP3    H244099   2.528   2.356   0.779  0.4168 -2.3959 -0.3451
 7562TIP3   OH244100   0.125   4.949   5.572  0.3241  0.9736 -0.0820
 7562TIP3    H144101   0.037   4.970   5.604 -0.0763  1.9118 -1.6724
 7562TIP3    H244102   0.147   4.866   5.615 -1.3910  0.6528  0.2587
 7563TIP3   OH244103   5.519   3.232   0.845 -0.0332 -0.3928  0.2873
 7563TIP3    H144104   5.533   3.170   0.774  0.3085 -1.3428  1.1640
 7563TIP3    H244105   5.499   3.178   0.921 -0.7431  0.6195  0.8531
 7564TIP3   OH244106   3.635   3.438   2.756  0.2204 -0.1237  0.5685
 7564TIP3    H144107   3.596   3.412   2.839  0.7122 -0.9668  0.5450
 7564TIP3    H244108   3.668   3.357   2.717 -0.1308  0.2361 -0.5262
 7565TIP3   OH244109   6.077   2.870   1.412  0.1724 -0.7165 -0.0278
 7565TIP3    H144110   6.156   2.855   1.359 -1.3167  1.6755 -3.2930
 7565TIP3    H244111   6.102   2.939   1.474  0.8773 -0.6029 -0.4327
 7566TIP3   OH244112   4.826   4.917   5.698  0.4685 -0.0728 -0.0379
 7566TIP3    H144113   4.915   4.949   5.707  1.1402 -1.9921  0.7129
 7566TIP3    H244114   4.826   4.871   5.614  0.4768 -0.8828  0.3971
 7567TIP3   OH244115   2.816   1.410   4.121  0.1488  0.1728  0.7844
 7567TIP3    H144116   2.738   1.401   4.066  1.5017 -0.5709 -1.0843
 7567TIP3    H244117   2.822   1.504   4.138 -0.6711  0.3380  0.2302
 7568TIP3   OH244118   3.244   4.470   0.216 -0.2640 -0.1575 -0.9955
 7568TIP3    H144119   3.222   4.558   0.186 -1.7800 -0.5796 -1.1798
 7568TIP3    H244120   3.181   4.413   0.173 -1.0217 -1.0470  1.1218
 7569TIP3   OH244121   4.871   5.723  16.686 -0.6232 -0.4858 -0.5360
 7569TIP3    H144122   4.858   5.813  16.714 -1.1142 -0.5319 -0.6097
 7569TIP3    H244123   4.788   5.679  16.707 -0.7336 -0.6925 -1.3683
 7570TIP3   OH244124   1.257   5.990   0.712 -0.0580  0.0727 -0.2698
 7570TIP3    H144125   1.321   5.942   0.763 -0.7473  0.9927  1.5546
 7570TIP3    H244126   1.305   6.020   0.635  0.6259 -2.5938 -0.9677
 7571TIP3   OH244127   1.145   1.726  15.620 -0.7876 -0.1488 -0.0574
 7571TIP3    H144128   1.064   1.717  15.671 -0.5412 -1.1675  0.1856
 7571TIP3    H244129   1.200   1.654  15.651  1.9672  2.9278  2.9073
 7572TIP3   OH244130   6.151   4.971   3.718  0.3131  0.0041  0.1831
 7572TIP3    H144131   6.190   4.893   3.759 -0.2869 -1.1396 -1.3138
 7572TIP3    H244132   6.223   5.009   3.666  0.7622  0.8029  1.3592
 7573TIP3   OH244133   5.933   2.827  11.904 -0.2115  0.3539  0.0667
 7573TIP3    H144134   5.970   2.910  11.875  0.1053  0.4453  0.7209
 7573TIP3    H244135   5.951   2.824  11.998 -2.6248  0.7941  0.5974
 7574TIP3   OH244136   6.455   1.312  14.667 -0.1674 -0.5661 -0.4386
 7574TIP3    H144137   6.372   1.281  14.632 -0.7652  1.4620 -0.9925
 7574TIP3    H244138   6.477   1.250  14.736 -2.4795 -0.8343  0.1410
 7575TIP3   OH244139   3.189   5.245  15.103  0.0255 -0.0183  0.2656
 7575TIP3    H144140   3.206   5.288  15.187 -0.7543  1.0175 -0.0923
 7575TIP3    H244141   3.214   5.310  15.037  1.2654 -1.0535 -0.3442
 7576TIP3   OH244142   5.684   1.895  12.293 -0.1152 -0.3291 -0.2847
 7576TIP3    H144143   5.643   1.809  12.306 -1.6947  0.5754  1.2331
 7576TIP3    H244144   5.631   1.937  12.226  0.4814 -0.4186 -0.8204
 7577TIP3   OH244145   6.068   3.574   4.390  0.2398  0.3484  0.1596
 7577TIP3    H144146   5.998   3.638   4.383  0.4754  0.4580 -1.4222
 7577TIP3    H244147   6.107   3.570   4.303  1.6155 -0.3819  0.7686
 7578TIP3   OH244148   5.511   5.196  17.317 -0.3420 -0.6487  0.2267
 7578TIP3    H144149   5.467   5.184  17.233  1.0646  1.0652 -0.8070
 7578TIP3    H244150   5.600   5.165  17.302 -0.1201 -0.5125  1.1760
 7579TIP3   OH244151   6.756   2.777   1.561  0.4902  0.6834 -0.1837
 7579TIP3    H144152   6.820   2.745   1.497 -0.3831 -1.2841 -0.1295
 7579TIP3    H244153   6.806   2.786   1.642  1.5471  2.9411 -1.0072
 7580TIP3   OH244154   4.068   0.119  16.151 -0.0857  0.0144  0.4532
 7580TIP3    H144155   4.025   0.042  16.114 -1.5995  1.1672 -0.2884
 7580TIP3    H244156   4.113   0.159  16.076  0.1933  0.1940  0.7135
 7581TIP3   OH244157   4.422   0.888   2.675  0.5421  0.3206 -0.1926
 7581TIP3    H144158   4.327   0.894   2.665  0.1593 -2.0037  1.3934
 7581TIP3    H244159   4.454   0.867   2.587 -0.4845  0.3341 -0.5841
 7582TIP3   OH244160   0.653   2.014  12.478  0.5305  0.1307 -0.3910
 7582TIP3    H144161   0.715   2.085  12.460 -0.7484  0.8433 -2.3227
 7582TIP3    H244162   0.612   2.039  12.561  0.8504  1.0919 -0.5001
 7583TIP3   OH244163   1.331   0.467  14.366  0.6836 -0.0913 -0.4202
 7583TIP3    H144164   1.332   0.385  14.316  0.8482 -0.2036 -0.2384
 7583TIP3    H244165   1.239   0.490  14.374  0.6962  0.3058 -1.3859
 7584TIP3   OH244166   6.170   6.207   1.455  0.3352 -0.9128  0.6187
 7584TIP3    H144167   6.212   6.121   1.453 -0.5910 -1.5076  3.1798
 7584TIP3    H244168   6.142   6.218   1.546  0.0018  1.9152  0.2663
 7585TIP3   OH244169   2.468   5.133  13.612  0.0194 -0.1603 -0.2720
 7585TIP3    H144170   2.551   5.098  13.646 -1.1072 -1.2283  1.5626
 7585TIP3    H244171   2.443   5.072  13.542 -0.2552 -1.1180  0.6342
 7586TIP3   OH244172   0.992   1.084  15.439  0.2594  0.0497  0.8787
 7586TIP3    H144173   1.039   1.123  15.512  0.5813  0.7721  0.2985
 7586TIP3    H244174   0.900   1.109  15.454  0.1133 -0.9357  1.7381
 7587TIP3   OH244175   4.711   1.068  13.233  0.6106 -0.2869  0.0096
 7587TIP3    H144176   4.678   1.064  13.323  0.3362 -1.9765 -0.1299
 7587TIP3    H244177   4.804   1.087  13.243  0.8564 -1.7369  0.7369
 7588TIP3   OH244178   1.689   4.540   0.515  0.3182 -0.4588 -0.2235
 7588TIP3    H144179   1.777   4.506   0.532  0.4459 -0.3597 -0.6833
 7588TIP3    H244180   1.683   4.544   0.420 -0.2850 -0.7244 -0.1986
 7589TIP3   OH244181   0.017   0.529   1.268 -0.1498  0.6046  0.2946
 7589TIP3    H144182   0.012   0.447   1.316 -1.1604 -0.3708 -1.4038
 7589TIP3    H244183   0.110   0.549   1.264  0.0183  0.2863  1.8735
 7590TIP3   OH244184   3.458   1.281   3.882 -0.0220  0.8673  0.0275
 7590TIP3    H144185   3.400   1.238   3.820 -0.9453  1.5234  0.4103
 7590TIP3    H244186   3.495   1.210   3.934  0.5652  0.3381 -1.0848
 7591TIP3   OH244187   2.393   3.519   3.777  0.3680  0.2399 -0.0858
 7591TIP3    H144188   2.372   3.502   3.685  2.8665  1.9994 -1.1085
 7591TIP3    H244189   2.309   3.528   3.820 -0.8952 -1.3498 -2.0338
 7592TIP3   OH244190   1.549   6.108  15.379 -0.2095  0.5471  0.0594
 7592TIP3    H144191   1.479   6.060  15.424  0.9584 -1.5603 -0.2283
 7592TIP3    H244192   1.516   6.123  15.291  0.8732 -3.6769 -1.2946
 7593TIP3   OH244193   1.665   2.641   2.182  0.1088 -0.1133  0.0986
 7593TIP3    H144194   1.706   2.611   2.100  1.4614 -0.2560  0.7992
 7593TIP3    H244195   1.580   2.675   2.155  0.1990 -0.8891 -1.2638
 7594TIP3   OH244196   5.125   5.306   4.096  0.0417  0.3562  0.2209
 7594TIP3    H144197   5.199   5.339   4.044  1.4286  1.2950  2.6279
 7594TIP3    H244198   5.162   5.238   4.151 -1.1767  0.0102  0.6478
 7595TIP3   OH244199   3.621   2.545  14.084  0.6350 -0.4685 -0.4516
 7595TIP3    H144200   3.673   2.561  14.005  0.2837 -1.0296 -0.8042
 7595TIP3    H244201   3.540   2.507  14.052 -0.1433  0.7020  0.0740
 7596TIP3   OH244202   2.080   1.359  13.430 -0.3202 -0.4366 -0.4043
 7596TIP3    H144203   1.993   1.394  13.449 -0.4950 -1.5463  0.9964
 7596TIP3    H244204   2.132   1.435  13.406 -0.9032  0.7111  1.7371
 7597TIP3   OH244205   5.223   5.979  11.532  0.2297 -0.6067 -0.1155
 7597TIP3    H144206   5.200   5.901  11.481 -0.3822  0.1048 -0.9587
 7597TIP3    H244207   5.250   6.043  11.467 -0.1005  0.1702  0.4921
 7598TIP3   OH244208   5.030   2.445   1.168  0.1947 -0.4897  0.3771
 7598TIP3    H144209   5.078   2.498   1.105 -1.9532 -0.1957 -1.0975
 7598TIP3    H244210   5.080   2.454   1.249  0.3479  3.2656  0.0594
 7599TIP3   OH244211   0.814   1.599   4.158  0.1962  0.5968  0.2940
 7599TIP3    H144212   0.811   1.675   4.216 -0.8016 -1.0499  2.5556
 7599TIP3    H244213   0.833   1.635   4.072 -2.3921  3.6834  0.8221
 7600TIP3   OH244214   2.130   6.735  15.977 -0.0132  0.1155  0.1286
 7600TIP3    H144215   2.171   6.749  15.891  0.9647 -0.5173  0.4755
 7600TIP3    H244216   2.168   6.802  16.033  1.6253 -1.2765  0.7828
 7601TIP3   OH244217   3.133   1.559   4.908  0.2247  0.1162  0.5092
 7601TIP3    H144218   3.208   1.543   4.851  0.9353  1.7897  0.9239
 7601TIP3    H244219   3.090   1.473   4.915  0.8978 -0.4375 -1.3866
 7602TIP3   OH244220   0.859   3.687   0.369  0.8035 -0.2191 -0.0734
 7602TIP3    H144221   0.955   3.688   0.372  0.8219 -0.8211 -0.2036
 7602TIP3    H244222   0.832   3.709   0.458  1.0531  0.4884 -0.1709
 7603TIP3   OH244223   2.316   4.206   4.667 -0.4291 -0.3514 -0.5183
 7603TIP3    H144224   2.317   4.290   4.712 -0.6615 -0.1085 -0.9652
 7603TIP3    H244225   2.398   4.205   4.618 -0.7775 -0.0542 -1.1151
 7604TIP3   OH244226   6.289   6.434   4.226 -0.0043 -0.3174 -0.1328
 7604TIP3    H144227   6.232   6.377   4.277 -1.8954  1.1296 -0.5002
 7604TIP3    H244228   6.262   6.420   4.135 -1.0779  1.6549 -0.1734
 7605TIP3   OH244229   5.392   6.441  14.696 -0.5269 -0.7217  0.1182
 7605TIP3    H144230   5.322   6.463  14.635  1.0190  2.3886 -0.7699
 7605TIP3    H244231   5.364   6.480  14.780  0.4841  1.5273 -0.5046
 7606TIP3   OH244232   1.084   0.457  10.811 -0.0144  0.1795 -0.0009
 7606TIP3    H144233   1.095   0.551  10.821 -0.0534  0.1651  0.1861
 7606TIP3    H244234   1.092   0.441  10.717 -0.8430  0.4793 -0.1292
 7607TIP3   OH244235   1.149   1.285  12.136  0.1726  0.1838  0.3451
 7607TIP3    H144236   1.059   1.254  12.141 -0.1561  1.2540  3.0565
 7607TIP3    H244237   1.152   1.340  12.058 -2.4707  2.6863  1.8349
 7608TIP3   OH244238   4.068   4.054  12.702 -1.0878  0.1901 -0.1072
 7608TIP3    H144239   4.079   4.085  12.792 -1.2718  0.6385 -0.2358
 7608TIP3    H244240   4.035   3.965  12.711  1.9441 -1.0238  0.2969
 7609TIP3   OH244241   3.490   3.465   2.503  0.2176 -0.2722 -0.4760
 7609TIP3    H144242   3.561   3.520   2.535 -0.7141 -0.5264  2.2358
 7609TIP3    H244243   3.412   3.494   2.550 -1.7288  0.3589 -3.7392
 7610TIP3   OH244244   2.917   0.991  17.196 -0.0496 -0.0592  0.4896
 7610TIP3    H144245   2.986   1.036  17.244 -1.0580  0.5959  1.3695
 7610TIP3    H244246   2.951   0.902  17.183  0.7446  0.1040  1.3536
 7611TIP3   OH244247   5.488   1.075   1.398  0.6095 -0.6503  0.0490
 7611TIP3    H144248   5.554   1.060   1.465  2.0258 -0.3346 -1.2167
 7611TIP3    H244249   5.405   1.057   1.442  1.4545 -0.2633  1.9210
 7612TIP3   OH244250   0.166   5.996   1.484 -0.5656  0.0682  0.9211
 7612TIP3    H144251   0.201   5.931   1.423 -0.3099 -0.2262  1.3736
 7612TIP3    H244252   0.179   6.080   1.440 -1.1198 -0.2033  0.2319
 7613TIP3   OH244253   3.095   5.017  11.436 -0.6568  0.0637  0.3336
 7613TIP3    H144254   3.005   4.985  11.436 -0.7438 -0.0748  3.9351
 7613TIP3    H244255   3.147   4.940  11.458  0.5552 -0.0586 -2.5517
 7614TIP3   OH244256   2.110   6.114  10.973 -0.4379 -0.3664 -0.3322
 7614TIP3    H144257   2.101   6.153  10.886 -5.6307  1.2930  0.5607
 7614TIP3    H244258   2.131   6.188  11.031  1.9780 -1.2777  0.0539
 7615TIP3   OH244259   2.788   5.442   0.821  0.9247 -0.3868 -0.2704
 7615TIP3    H144260   2.813   5.350   0.832  1.8062 -0.0600  0.5273
 7615TIP3    H244261   2.802   5.482   0.907 -1.8364 -0.0303  0.0999
 7616TIP3   OH244262   2.681   5.334   2.043 -0.3324  0.3221 -0.5322
 7616TIP3    H144263   2.650   5.412   1.996 -0.1939  0.9912  0.4713
 7616TIP3    H244264   2.759   5.364   2.090  0.5050 -0.7606 -1.1715
 7617TIP3   OH244265   4.148   2.429   3.534 -0.0471  0.8592 -0.3680
 7617TIP3    H144266   4.151   2.439   3.629  0.6267  2.7991 -0.5314
 7617TIP3    H244267   4.237   2.402   3.510  0.8365  3.6643 -0.6517
 7618TIP3   OH244268   0.415   2.866  13.409 -0.4504  0.0962 -0.2095
 7618TIP3    H144269   0.485   2.806  13.435 -2.3509 -1.3432  2.0044
 7618TIP3    H244270   0.369   2.820  13.339 -2.7786 -1.9253  2.4325
 7619TIP3   OH244271   4.530   4.088  14.931  0.6707 -0.6431 -0.5110
 7619TIP3    H144272   4.584   4.037  14.992  0.1871  0.8705  1.2547
 7619TIP3    H244273   4.440   4.061  14.949  0.0400  2.8044  2.6841
 7620TIP3   OH244274   3.115   5.815  15.638 -0.2553  0.4221 -0.5761
 7620TIP3    H144275   3.099   5.740  15.694 -3.1579  0.3788 -1.2818
 7620TIP3    H244276   3.102   5.782  15.549  2.7393  0.8348 -1.2551
 7621TIP3   OH244277   1.633   0.852  14.944  0.4381 -0.0979  0.2631
 7621TIP3    H144278   1.614   0.944  14.961 -0.1455 -0.4421  1.5762
 7621TIP3    H244279   1.606   0.839  14.852 -0.6508  0.7430  0.4347
 7622TIP3   OH244280   1.162   6.513  14.312 -0.3241 -0.0929  0.1301
 7622TIP3    H144281   1.125   6.426  14.327 -2.5011  0.8243  0.3981
 7622TIP3    H244282   1.203   6.506  14.225  0.9336 -1.7843  0.8103
 7623TIP3   OH244283   2.849   3.994   4.420 -0.1422 -0.0063  0.9770
 7623TIP3    H144284   2.884   4.083   4.413 -0.2817 -0.0785 -1.5918
 7623TIP3    H244285   2.754   4.006   4.424 -0.2032 -0.0439 -0.1739
 7624TIP3   OH244286   4.016   2.476   5.158  0.0566 -0.6393  0.3036
 7624TIP3    H144287   4.005   2.455   5.065  1.4336  1.8785 -0.5100
 7624TIP3    H244288   3.990   2.395   5.204 -0.3917 -2.0477 -2.2439
 7625TIP3   OH244289   4.389   5.437   6.084  0.1150 -0.4801 -0.7335
 7625TIP3    H144290   4.428   5.374   6.145  1.7371  0.5513 -0.6384
 7625TIP3    H244291   4.459   5.500   6.066 -1.6710  1.7950 -0.1843
 7626TIP3   OH244292   4.469   4.855   6.862 -0.0882  0.3095  0.2635
 7626TIP3    H144293   4.464   4.915   6.788 -0.7998  0.8537  0.7317
 7626TIP3    H244294   4.459   4.768   6.823  1.6755  0.4163 -0.5024
 7627TIP3   OH244295   4.955   0.932  15.139 -0.0604 -0.4851  0.1680
 7627TIP3    H144296   5.012   1.008  15.149 -1.1504  0.3658  0.0824
 7627TIP3    H244297   4.874   0.967  15.102  0.2432 -2.0272 -2.1613
 7628TIP3   OH244298   2.857   1.888   6.016 -0.0582  0.1897 -0.5899
 7628TIP3    H144299   2.915   1.831   5.966  0.2618  1.4462 -1.6983
 7628TIP3    H244300   2.888   1.977   5.997 -0.7393  0.7604  0.8408
 7629TIP3   OH244301   1.219   2.428  13.009 -0.0267 -0.3489  0.2644
 7629TIP3    H144302   1.233   2.504  13.064  0.7773  0.8259 -1.4653
 7629TIP3    H244303   1.127   2.436  12.980 -0.1389 -0.3990  0.6091
 7630TIP3   OH244304   3.792   5.304  14.286  0.0768  0.6381  0.1689
 7630TIP3    H144305   3.769   5.396  14.270  1.1177  0.4751 -2.8265
 7630TIP3    H244306   3.884   5.307  14.314 -0.1048  0.5142  0.8079
 7631TIP3   OH244307   5.336   0.250   3.334  0.1832  0.1846  0.2062
 7631TIP3    H144308   5.334   0.275   3.242  1.5924  1.5871  0.5051
 7631TIP3    H244309   5.423   0.210   3.346 -0.5220 -1.3064  0.6423
 7632TIP3   OH244310   5.198   5.641  12.793  0.0030  0.4011  0.2276
 7632TIP3    H144311   5.208   5.637  12.888  1.4893  0.2233  0.0778
 7632TIP3    H244312   5.177   5.551  12.767  1.5718  0.0207  0.2006
 7633TIP3   OH244313   3.672   1.219   2.585  0.3368 -0.1856 -0.1429
 7633TIP3    H144314   3.680   1.126   2.566  0.3438 -0.3120  0.4806
 7633TIP3    H244315   3.749   1.258   2.544 -0.6109 -0.1893 -2.0378
 7634TIP3   OH244316   3.224   2.749   3.839 -0.0545  0.1594 -0.0759
 7634TIP3    H144317   3.185   2.744   3.926  2.2963 -1.6836  1.0079
 7634TIP3    H244318   3.272   2.832   3.838 -0.6834  0.5276  0.0907
 7635TIP3   OH244319   4.774   4.069   3.213  0.3823  0.4505 -0.0005
 7635TIP3    H144320   4.726   4.007   3.158 -0.7941 -0.4553  1.9521
 7635TIP3    H244321   4.837   4.109   3.154 -0.2484 -1.0802 -1.8082
 7636TIP3   OH244322   2.599   6.463  13.739 -0.0723 -0.4675 -0.1226
 7636TIP3    H144323   2.665   6.450  13.670 -0.3809 -0.4306 -0.4291
 7636TIP3    H244324   2.647   6.449  13.821  0.8789  1.8516 -0.2055
 7637TIP3   OH244325   1.863   2.530  12.508 -0.2533 -0.1606  0.3993
 7637TIP3    H144326   1.926   2.589  12.549  0.8863  0.9648 -2.6150
 7637TIP3    H244327   1.871   2.448  12.556  3.5090 -0.0405  0.2560
 7638TIP3   OH244328   3.860   1.771  12.972  0.2324 -0.2529  0.5070
 7638TIP3    H144329   3.782   1.722  12.945  0.0844  0.0381  0.4010
 7638TIP3    H244330   3.933   1.711  12.954  0.0673 -0.3777  0.2326
 7639TIP3   OH244331   6.755   5.656   2.773 -0.1010  0.3373 -0.3598
 7639TIP3    H144332   6.730   5.747   2.760  0.6526  0.6173  0.0739
 7639TIP3    H244333   6.809   5.657   2.852  1.8731 -0.0860 -1.6291
 7640TIP3   OH244334   5.228   4.411   0.287  0.1392  0.1625  0.2741
 7640TIP3    H144335   5.312   4.368   0.305  1.4660  1.4037 -2.4191
 7640TIP3    H244336   5.186   4.355   0.222 -1.4276 -0.6771  1.9055
 7641TIP3   OH244337   6.050   0.239  14.756  0.6081  0.1549  0.3458
 7641TIP3    H144338   6.038   0.156  14.802 -0.1415  0.2151  0.2713
 7641TIP3    H244339   6.143   0.260  14.766  0.8842 -0.8898  0.0268
 7642TIP3   OH244340   0.524   5.247  11.788  0.1610 -0.4068  0.2680
 7642TIP3    H144341   0.563   5.319  11.738  1.3051 -0.2805  1.2934
 7642TIP3    H244342   0.431   5.265  11.788  0.3481  0.6054 -0.2279
 7643TIP3   OH244343   3.421   1.979   1.723  0.4996 -0.3248  0.1894
 7643TIP3    H144344   3.368   1.899   1.728  1.9718 -1.3023  0.5082
 7643TIP3    H244345   3.471   1.970   1.642 -0.7059  1.1969 -0.7799
 7644TIP3   OH244346   3.323   1.274  11.915 -0.3592  0.0800  0.2842
 7644TIP3    H144347   3.309   1.323  11.834  1.8901  1.9539  0.9096
 7644TIP3    H244348   3.347   1.186  11.886  3.1510  1.3753 -1.3788
 7645TIP3   OH244349   5.244   0.923   1.425 -0.0174  0.7479  0.0677
 7645TIP3    H144350   5.166   0.879   1.392  1.1182  0.7267 -2.9038
 7645TIP3    H244351   5.211   0.994   1.480 -1.9516 -1.6710  2.2876
 7646TIP3   OH244352   5.966   0.201   1.281 -0.0770 -0.0489 -0.2909
 7646TIP3    H144353   6.050   0.206   1.326 -0.2855 -1.4698  0.2999
 7646TIP3    H244354   5.959   0.111   1.251 -0.0294  0.7748 -3.0998
 7647TIP3   OH244355   0.364   2.801  12.017 -0.0507 -0.0681 -0.4659
 7647TIP3    H144356   0.351   2.836  11.929  0.1311 -0.5033 -0.6719
 7647TIP3    H244357   0.343   2.708  12.009 -1.8752  0.2378  0.3824
 7648TIP3   OH244358   1.304   1.919  14.577 -0.3171 -0.0060  0.1411
 7648TIP3    H144359   1.212   1.892  14.574 -0.0212 -0.9634 -1.4188
 7648TIP3    H244360   1.332   1.918  14.486  1.8376 -1.9169  0.7141
 7649TIP3   OH244361   4.652   6.672  13.834  0.5512 -0.4341  0.1513
 7649TIP3    H144362   4.736   6.639  13.866 -0.0755 -0.6689  1.6398
 7649TIP3    H244363   4.621   6.605  13.774  1.1533 -0.6250  0.0436
 7650TIP3   OH244364   4.225   4.945  14.368 -0.2199 -0.3319  0.4585
 7650TIP3    H144365   4.271   4.861  14.368  0.9649  0.2728 -0.9961
 7650TIP3    H244366   4.197   4.958  14.459 -1.6017 -2.9027  0.4852
 7651TIP3   OH244367   5.421   2.433   4.032 -0.2214  0.3328 -0.4675
 7651TIP3    H144368   5.417   2.501   3.964  0.6139 -0.3341 -1.2053
 7651TIP3    H244369   5.414   2.482   4.114 -0.7804  1.2024 -1.0136
 7652TIP3   OH244370   5.316   5.865   0.646  0.1038 -0.3233  0.5950
 7652TIP3    H144371   5.294   5.781   0.604  2.2823 -0.7865  0.2473
 7652TIP3    H244372   5.248   5.878   0.712 -1.4376 -1.3290 -0.7344
 7653TIP3   OH244373   1.584   2.731  15.443  0.5650  0.6785  0.2526
 7653TIP3    H144374   1.528   2.671  15.492  0.6084  0.6178  0.2286
 7653TIP3    H244375   1.577   2.702  15.352  0.6721  0.6400  0.2553
 7654TIP3   OH244376   2.857   0.344   5.657 -0.2899  0.8236  0.3229
 7654TIP3    H144377   2.770   0.380   5.638 -0.5014  0.7268  1.0767
 7654TIP3    H244378   2.847   0.301   5.742  0.1605 -0.3190 -0.1814
 7655TIP3   OH244379   5.007   0.204  17.361 -0.1561 -0.0435 -0.1781
 7655TIP3    H144380   4.944   0.198  17.433 -0.4155 -0.3158 -0.4270
 7655TIP3    H244381   5.038   0.115  17.348  0.6070  0.1558  0.2276
 7656TIP3   OH244382   1.027   3.059  14.438  0.2107  0.3772  0.0289
 7656TIP3    H144383   1.042   2.983  14.495  0.5787 -0.8203 -1.5735
 7656TIP3    H244384   1.058   3.030  14.352 -0.6584  1.9772 -0.8624
 7657TIP3   OH244385   0.127   5.764   4.429 -0.3986  0.4423  0.4135
 7657TIP3    H144386   0.162   5.844   4.469  1.1988  0.8485 -1.6021
 7657TIP3    H244387   0.095   5.793   4.343 -1.5366 -0.7733  0.4030
 7658TIP3   OH244388   5.667   5.335  14.177 -0.3813  0.3825  0.2170
 7658TIP3    H144389   5.603   5.326  14.248  2.2957 -3.2422  2.5012
 7658TIP3    H244390   5.740   5.382  14.216  1.2082 -1.8176  0.0306
 7659TIP3   OH244391   0.741   0.561  14.286  0.2683 -0.0956 -0.1244
 7659TIP3    H144392   0.716   0.636  14.231  1.2038  0.4377  0.1466
 7659TIP3    H244393   0.830   0.539  14.258  0.2699 -0.6465  0.2883
 7660TIP3   OH244394   5.396   0.864   4.219 -0.6823 -0.3012 -0.3902
 7660TIP3    H144395   5.326   0.800   4.219  0.1517 -1.2604  0.4139
 7660TIP3    H244396   5.475   0.813   4.202  0.2010  0.2179  1.8125
 7661TIP3   OH244397   6.320   5.577   2.014  0.2621 -0.1829 -0.3083
 7661TIP3    H144398   6.306   5.486   2.042  2.0600 -0.9283 -1.6232
 7661TIP3    H244399   6.242   5.624   2.045  1.2414 -1.1307  4.5018
 7662TIP3   OH244400   1.266   5.827  12.340  0.1796  0.2902  0.5195
 7662TIP3    H144401   1.345   5.780  12.368  1.1520  0.0144 -2.3619
 7662TIP3    H244402   1.201   5.759  12.325  0.1380  0.3023  0.6394
 7663TIP3   OH244403   5.386   5.640  14.098 -0.6043  0.2254  0.0177
 7663TIP3    H144404   5.437   5.630  14.179 -1.3421 -0.7441  0.3920
 7663TIP3    H244405   5.320   5.706  14.119  0.2947  1.2863 -0.3828
 7664TIP3   OH244406   5.470   4.596   5.073  0.5562  0.3671  0.2502
 7664TIP3    H144407   5.477   4.643   4.990 -3.5205 -0.0193 -0.5541
 7664TIP3    H244408   5.497   4.660   5.139  1.5737  1.5137 -1.2161
 7665TIP3   OH244409   2.833   5.857   5.662 -0.4147 -0.2172  0.0242
 7665TIP3    H144410   2.796   5.877   5.748  0.0431  0.4469  0.0752
 7665TIP3    H244411   2.759   5.821   5.612 -0.7641 -0.2979  0.5888
 7666TIP3   OH244412   5.432   3.352   3.612  0.2634  0.5006  0.7942
 7666TIP3    H144413   5.467   3.263   3.620  0.6818  0.3974 -1.5364
 7666TIP3    H244414   5.413   3.378   3.702  2.1190 -1.1459  1.7535
 7667TIP3   OH244415   5.799   0.752   0.119 -0.3983 -0.3163  0.2949
 7667TIP3    H144416   5.771   0.748   0.027  1.2451 -1.1192 -0.1981
 7667TIP3    H244417   5.866   0.684   0.127  0.9291  1.0732  1.5718
 7668TIP3   OH244418   3.128   1.662  14.156 -0.3099  0.0941 -0.1808
 7668TIP3    H144419   3.182   1.584  14.148 -1.1937 -0.8208  1.9080
 7668TIP3    H244420   3.189   1.735  14.149  0.6983 -0.8188 -1.0363
 7669TIP3   OH244421   0.460   2.845   5.437 -0.5107  0.0245  0.1356
 7669TIP3    H144422   0.483   2.753   5.442 -2.4302 -0.6178 -1.5082
 7669TIP3    H244423   0.460   2.865   5.343  0.6205  1.9425  0.4782
 7670TIP3   OH244424   3.673   2.978   2.357 -0.3936 -0.1703 -0.4342
 7670TIP3    H144425   3.649   3.068   2.382 -0.5118 -0.5538  0.8758
 7670TIP3    H244426   3.590   2.931   2.355 -0.3497 -0.2281 -1.2923
 7671TIP3   OH244427   4.739   1.180   4.717  0.2624  0.4144 -0.7148
 7671TIP3    H144428   4.702   1.218   4.797  0.0653  0.1356 -0.6746
 7671TIP3    H244429   4.683   1.105   4.697  1.5563 -0.7999  0.0610
 7672TIP3   OH244430   3.815   4.307   2.804 -0.1849  0.2680 -0.4288
 7672TIP3    H144431   3.786   4.398   2.796 -0.1888  0.4506  1.2164
 7672TIP3    H244432   3.906   4.314   2.833 -0.7711 -0.1688  1.7252
 7673TIP3   OH244433   3.260   4.616   2.512 -0.1572  0.5968  0.0732
 7673TIP3    H144434   3.287   4.626   2.421 -1.6900 -0.1745 -0.5162
 7673TIP3    H244435   3.167   4.638   2.511 -0.9485 -2.2815  0.8150
 7674TIP3   OH244436   4.295   6.315  13.400 -0.1101  0.2140  0.0468
 7674TIP3    H144437   4.387   6.331  13.421 -0.3144  2.5816 -0.5264
 7674TIP3    H244438   4.298   6.249  13.330  1.2954  1.3613 -1.0599
 7675TIP3   OH244439   1.362   0.444  16.328  0.3855 -0.3701  0.7940
 7675TIP3    H144440   1.399   0.356  16.335  0.5985 -0.4393 -0.7762
 7675TIP3    H244441   1.406   0.482  16.253 -0.7766  0.5398  0.5427
 7676TIP3   OH244442   4.312   2.218   0.925  0.2843  0.4853  1.0836
 7676TIP3    H144443   4.309   2.143   0.865 -1.5794 -0.2043  1.9620
 7676TIP3    H244444   4.386   2.199   0.983  0.7435  0.0780  0.3869
 7677TIP3   OH244445   5.673   3.232   0.393  0.0325  0.0081  0.4796
 7677TIP3    H144446   5.614   3.203   0.324  2.2376 -2.1621 -0.6376
 7677TIP3    H244447   5.759   3.200   0.367  1.6985  2.5734  2.2722
 7678TIP3   OH244448   6.713   5.758   3.495  0.4680 -0.3805  0.1361
 7678TIP3    H144449   6.638   5.711   3.458  1.7181 -2.4954  0.1270
 7678TIP3    H244450   6.784   5.694   3.493  1.9242  1.1218  1.4322
 7679TIP3   OH244451   1.538   3.434  14.305  0.1264  0.0912 -0.0489
 7679TIP3    H144452   1.623   3.421  14.346 -0.5013 -0.9998  0.9860
 7679TIP3    H244453   1.518   3.526  14.320  1.3927  0.5147 -0.8678
 7680TIP3   OH244454   1.390   4.414   3.516  0.2039 -0.5333 -0.0864
 7680TIP3    H144455   1.339   4.457   3.585 -1.5036 -0.3521 -1.4240
 7680TIP3    H244456   1.443   4.484   3.478 -0.2650 -0.2482 -0.2154
 7681TIP3   OH244457   4.451   3.244   1.292  0.1534 -0.2119  0.1030
 7681TIP3    H144458   4.389   3.218   1.360 -0.0723  0.3729  0.1236
 7681TIP3    H244459   4.406   3.311   1.241  0.7788  0.2693  0.1587
 7682TIP3   OH244460   2.387   4.568  12.833 -0.0522 -0.0639  0.2122
 7682TIP3    H144461   2.371   4.627  12.907  1.6892 -0.0516  0.6028
 7682TIP3    H244462   2.477   4.539  12.844  0.2733 -0.0171 -1.9556
 7683TIP3   OH244463   0.685   1.682  12.777  0.7578 -0.8495 -0.2415
 7683TIP3    H144464   0.621   1.748  12.750 -0.1615 -1.7101 -0.2176
 7683TIP3    H244465   0.769   1.714  12.742  0.1398 -0.2575 -1.2235
 7684TIP3   OH244466   5.359   5.420  17.121 -0.0533  0.0936  0.3490
 7684TIP3    H144467   5.271   5.440  17.153  0.3964  2.1011  0.4514
 7684TIP3    H244468   5.359   5.325  17.109 -1.0091 -0.4916  3.9212
 7685TIP3   OH244469   2.117   3.105   0.136  0.3101  0.2721 -0.2176
 7685TIP3    H144470   2.044   3.104   0.074 -0.0882  1.1236  0.2241
 7685TIP3    H244471   2.195   3.116   0.082  0.1528 -0.8866 -0.7160
 7686TIP3   OH244472   1.904   6.277   1.950 -0.1175 -0.4326 -0.6142
 7686TIP3    H144473   2.000   6.280   1.956 -0.1377  0.7731 -0.7268
 7686TIP3    H244474   1.882   6.187   1.973  1.0604 -0.7938 -0.8220
 7687TIP3   OH244475   2.292   4.464   3.230  0.3071  0.3684 -0.4256
 7687TIP3    H144476   2.237   4.483   3.306  0.6944  0.0174 -0.0577
 7687TIP3    H244477   2.334   4.381   3.250  2.1825  1.3654 -0.0078
 7688TIP3   OH244478   2.245   0.108   4.854 -0.7910 -0.5970 -0.1891
 7688TIP3    H144479   2.279   0.037   4.908  0.2006  0.0578  0.0839
 7688TIP3    H244480   2.319   0.133   4.798 -0.7248  0.9820  0.5448
 7689TIP3   OH244481   6.382   0.568  14.021 -0.5954  0.2856 -0.1097
 7689TIP3    H144482   6.432   0.601  14.096 -2.0926  0.8439  0.6954
 7689TIP3    H244483   6.356   0.480  14.047  1.4136 -0.7227 -1.2799
 7690TIP3   OH244484   0.479   2.038   1.234  0.0063  0.0451  0.0605
 7690TIP3    H144485   0.535   2.036   1.157  1.0501  2.0914  0.6885
 7690TIP3    H244486   0.391   2.051   1.200  0.7137  3.3107 -0.7955
 7691TIP3   OH244487   5.373   6.104   0.115  0.1663  0.3376  0.4147
 7691TIP3    H144488   5.362   6.123   0.208 -2.7286 -1.3407  0.5411
 7691TIP3    H244489   5.304   6.040   0.095  2.0187 -1.0048 -2.4123
 7692TIP3   OH244490   0.116   4.845  12.061 -0.4107  0.3326  0.6199
 7692TIP3    H144491   0.183   4.818  11.999 -0.3463  2.6330 -0.4418
 7692TIP3    H244492   0.157   4.836  12.147 -0.3958 -2.6134  0.4087
 7693TIP3   OH244493   6.768   4.205   5.011  0.1436  0.2797  0.0177
 7693TIP3    H144494   6.833   4.271   4.985  0.4062 -0.3145 -0.8591
 7693TIP3    H244495   6.750   4.225   5.103  0.9973  0.9304  0.0575
 7694TIP3   OH244496   5.566   4.797  17.172 -0.0821 -0.0009 -0.2203
 7694TIP3    H144497   5.508   4.832  17.104  0.8666  0.1799 -0.9573
 7694TIP3    H244498   5.631   4.747  17.124  0.2836 -0.3313  0.6119
 7695TIP3   OH244499   1.279   0.136  14.930  0.4143 -0.1705  0.0012
 7695TIP3    H144500   1.234   0.215  14.959 -2.3088 -0.8151 -2.1350
 7695TIP3    H244501   1.334   0.165  14.857 -0.0230 -0.1215 -0.3102
 7696TIP3   OH244502   0.649   2.268   5.495  0.1156  0.1785 -0.3141
 7696TIP3    H144503   0.645   2.173   5.489 -1.0482  0.1745  0.2572
 7696TIP3    H244504   0.591   2.299   5.425  0.3234  0.4670 -0.3623
 7697TIP3   OH244505   2.506   1.340  15.032  0.2359  0.1758  0.5003
 7697TIP3    H144506   2.421   1.302  15.013  0.9277 -1.1224 -0.1006
 7697TIP3    H244507   2.530   1.304  15.118  1.4709 -1.8927 -0.6384
 7698TIP3   OH244508   4.358   5.180   0.343 -0.1560 -0.4818 -0.6030
 7698TIP3    H144509   4.414   5.225   0.406  1.2535 -0.1451 -2.0292
 7698TIP3    H244510   4.322   5.250   0.288 -2.0963 -0.6862  0.3204
 7699TIP3   OH244511   6.199   6.468  16.059  0.2181 -0.1091 -0.3596
 7699TIP3    H144512   6.137   6.481  16.131 -2.4813 -2.8954 -1.8978
 7699TIP3    H244513   6.208   6.554  16.019 -1.5522  0.6852  0.8250
 7700TIP3   OH244514   5.176   1.813  14.729  0.3152  0.1364  0.5837
 7700TIP3    H144515   5.235   1.756  14.680  0.5425  1.1835 -0.3781
 7700TIP3    H244516   5.108   1.754  14.761  1.1228 -0.8528  0.5196
 7701TIP3   OH244517   4.882   5.444  14.167  0.0662  0.4822 -0.2057
 7701TIP3    H144518   4.915   5.496  14.094  1.9229  0.1361  0.3450
 7701TIP3    H244519   4.884   5.504  14.242  1.1716 -0.0443  0.2007
 7702TIP3   OH244520   0.359   6.093   4.808  0.2017  0.1640 -0.0478
 7702TIP3    H144521   0.425   6.121   4.871  1.6022  0.7511 -1.7087
 7702TIP3    H244522   0.409   6.057   4.735 -1.4209 -2.9013  0.1812
 7703TIP3   OH244523   3.517   5.499   5.638  0.5274 -0.5822  0.2829
 7703TIP3    H144524   3.583   5.494   5.708 -0.2922 -0.3511  1.0832
 7703TIP3    H244525   3.537   5.581   5.593  0.9464 -0.6406  0.3559
 7704TIP3   OH244526   2.451   3.316  11.646 -0.5831 -0.1310 -0.4213
 7704TIP3    H144527   2.533   3.291  11.604 -0.2713 -0.7149  0.5065
 7704TIP3    H244528   2.451   3.412  11.643  0.0362 -0.1330 -0.6190
 7705TIP3   OH244529   6.663   4.031  15.492 -0.3413  0.0021  0.2566
 7705TIP3    H144530   6.682   4.085  15.569  1.4519 -0.6408  0.2912
 7705TIP3    H244531   6.580   3.988  15.513 -0.2301  0.3727  1.5344
 7706TIP3   OH244532   1.834   5.511   3.031 -0.0744 -0.1419 -0.2836
 7706TIP3    H144533   1.751   5.540   2.993 -0.3674  1.1327  1.2024
 7706TIP3    H244534   1.849   5.424   2.994 -0.4652  0.8415 -3.0292
 7707TIP3   OH244535   3.491   2.631  16.123  0.1838  0.0087 -0.1963
 7707TIP3    H144536   3.443   2.687  16.061 -0.0936 -0.9936 -0.9111
 7707TIP3    H244537   3.581   2.663  16.119  0.2013 -0.1379 -1.2383
 7708TIP3   OH244538   1.430   5.185   4.552 -0.3122 -0.2640  0.1166
 7708TIP3    H144539   1.343   5.150   4.536  0.1184 -0.7159 -1.4785
 7708TIP3    H244540   1.416   5.265   4.602 -1.6187 -0.4559  0.0746
 7709TIP3   OH244541   2.008   1.351  10.221 -0.4303 -0.0067  0.3696
 7709TIP3    H144542   2.003   1.256  10.224 -1.3527 -0.0473 -1.3940
 7709TIP3    H244543   2.073   1.370  10.153 -0.5789  0.6203  0.3929
 7710TIP3   OH244544   2.472   3.919  15.736 -0.0220  0.1270 -0.1258
 7710TIP3    H144545   2.388   3.954  15.706 -0.4403  0.2472  1.1239
 7710TIP3    H244546   2.460   3.906  15.830  0.9479 -1.0433 -0.1393
 7711TIP3   OH244547   1.121   6.347   0.415  0.1282  0.2767 -0.2137
 7711TIP3    H144548   1.123   6.279   0.483 -1.2301 -1.6992 -2.0415
 7711TIP3    H244549   1.212   6.378   0.409  0.2980  0.5236  2.4225
 7712TIP3   OH244550   4.464   4.693   4.705 -0.4244  0.3938  0.1224
 7712TIP3    H144551   4.442   4.609   4.664  0.6892 -0.6628  1.5781
 7712TIP3    H244552   4.518   4.669   4.781 -0.0173  2.4410  0.5310
 7713TIP3   OH244553   5.987   4.821  10.086 -0.1274 -0.4100 -0.1154
 7713TIP3    H144554   6.007   4.826  10.180 -0.0938 -1.7735 -0.0256
 7713TIP3    H244555   5.934   4.899  10.069 -1.1520 -0.7483  1.2998
 7714TIP3   OH244556   2.640   5.420  12.029  0.0073 -0.0496 -0.4262
 7714TIP3    H144557   2.577   5.445  11.961  0.0045  0.6938 -0.1643
 7714TIP3    H244558   2.586   5.397  12.105  0.0184  1.7031  0.1846
 7715TIP3   OH244559   3.628   2.130  12.973  0.0365  0.3203 -0.0275
 7715TIP3    H144560   3.559   2.191  12.999 -0.8377 -0.4982 -0.3634
 7715TIP3    H244561   3.629   2.134  12.878  1.3043  1.2286  0.0079
 7716TIP3   OH244562   4.677   1.482   2.552  0.4383  0.0690 -0.2269
 7716TIP3    H144563   4.755   1.438   2.521  0.4390 -0.4881  0.5221
 7716TIP3    H244564   4.656   1.439   2.635 -0.0640  0.9027  0.1011
 7717TIP3   OH244565   4.960   3.080  13.143  0.2762  0.5451 -0.1987
 7717TIP3    H144566   5.007   3.056  13.223  1.1383 -0.2248 -0.9096
 7717TIP3    H244567   4.962   3.175  13.141 -0.0757  0.5906  0.8733
 7718TIP3   OH244568   6.386   6.656   3.013  0.1234  0.1416  0.1725
 7718TIP3    H144569   6.336   6.723   2.967 -0.8637  0.3426  1.4865
 7718TIP3    H244570   6.397   6.585   2.949  0.0393  0.9943 -0.8055
 7719TIP3   OH244571   4.220   2.872  15.945  0.9874  0.1798 -0.1388
 7719TIP3    H144572   4.242   2.783  15.918  0.9871 -0.3794  1.5677
 7719TIP3    H244573   4.266   2.885  16.028  0.4563  1.5270 -0.0148
 7720TIP3   OH244574   4.899   1.259  12.693  0.3798 -0.2390  0.7106
 7720TIP3    H144575   4.920   1.342  12.736  1.3931 -0.2754  0.3186
 7720TIP3    H244576   4.815   1.233  12.731  0.4640  0.5393  1.4668
 7721TIP3   OH244577   2.322   3.388  17.063  0.6326  0.4450  0.5968
 7721TIP3    H144578   2.403   3.429  17.031  0.6778  0.6614  0.9752
 7721TIP3    H244579   2.351   3.326  17.130  0.7537 -1.7420 -1.3556
 7722TIP3   OH244580   1.397   2.922  15.614 -0.4441 -0.7756  0.0763
 7722TIP3    H144581   1.431   2.865  15.683 -2.0922 -0.9077  0.8373
 7722TIP3    H244582   1.385   2.864  15.539 -0.2939 -1.0188  0.2390
 7723TIP3   OH244583   5.170   2.700  15.108 -0.1504  0.0675 -0.1429
 7723TIP3    H144584   5.097   2.762  15.113 -0.6997 -0.5991  0.4062
 7723TIP3    H244585   5.132   2.617  15.138  1.3224  0.1308  2.1428
 7724TIP3   OH244586   5.754   0.316  16.013 -0.1376  0.4166 -0.1664
 7724TIP3    H144587   5.730   0.285  16.100 -1.4254  0.9469 -0.2996
 7724TIP3    H244588   5.770   0.410  16.025  3.0882 -0.0616  0.1166
 7725TIP3   OH244589   1.039   2.762   2.095  0.5454  0.1532 -0.1370
 7725TIP3    H144590   0.992   2.774   2.178 -0.5211 -0.4014 -0.6310
 7725TIP3    H244591   1.131   2.760   2.119  0.2733  0.4377  0.9828
 7726TIP3   OH244592   0.690   5.826  11.276 -0.0827 -0.4017  0.6869
 7726TIP3    H144593   0.645   5.742  11.279  1.2444 -1.1170  2.1499
 7726TIP3    H244594   0.761   5.818  11.340  1.6534  0.9338 -0.9563
 7727TIP3   OH244595   2.538   6.267   3.427 -0.6345 -0.4864 -0.0887
 7727TIP3    H144596   2.627   6.259   3.461 -0.5267  2.2818  0.4941
 7727TIP3    H244597   2.485   6.210   3.484  0.5573 -1.2498  0.2941
 7728TIP3   OH244598   4.643   1.750  16.361 -0.2112 -0.0226 -0.1625
 7728TIP3    H144599   4.693   1.684  16.313 -0.3325  1.6930 -2.8887
 7728TIP3    H244600   4.681   1.833  16.334 -0.1222  1.1113  3.0697
 7729TIP3   OH244601   5.855   3.242   0.628 -0.7125 -0.1264 -0.0586
 7729TIP3    H144602   5.778   3.236   0.572 -1.7846 -1.2531  1.4325
 7729TIP3    H244603   5.819   3.259   0.716  0.8596  1.0724  0.3960
 7730TIP3   OH244604   3.026   6.056  14.326  0.7461 -0.2823 -0.3506
 7730TIP3    H144605   2.999   6.136  14.372  0.6421  0.4464 -1.6266
 7730TIP3    H244606   3.120   6.051  14.342  0.4669 -0.9784  1.3049
 7731TIP3   OH244607   2.132   0.187   1.269 -0.3379 -0.4745 -0.4203
 7731TIP3    H144608   2.070   0.252   1.236  0.0446  0.2803  0.2837
 7731TIP3    H244609   2.093   0.156   1.351 -0.8270 -1.6307 -1.0693
 7732TIP3   OH244610   2.095   2.213  13.502  0.2136  0.2166 -0.0715
 7732TIP3    H144611   2.048   2.187  13.423  0.6445  0.5305 -0.4371
 7732TIP3    H244612   2.112   2.130  13.548  2.0893 -0.2881 -1.5180
 7733TIP3   OH244613   1.513   4.015  12.471  0.1834 -0.2144  0.0572
 7733TIP3    H144614   1.521   3.941  12.412 -0.5698 -0.9994  0.9085
 7733TIP3    H244615   1.525   3.978  12.558  0.5330  0.7925  0.4570
 7734TIP3   OH244616   6.094   2.280  17.060 -0.2231  0.2004  0.3394
 7734TIP3    H144617   6.106   2.311  16.970  1.1451 -0.1038  0.3862
 7734TIP3    H244618   6.017   2.326  17.092  0.2255  1.5623 -0.4699
 7735TIP3   OH244619   6.407   6.062  16.807 -0.3797  0.1221  0.2084
 7735TIP3    H144620   6.430   6.136  16.863  0.0161  0.3793 -0.2800
 7735TIP3    H244621   6.311   6.057  16.813 -0.2929 -0.3078  1.4510
 7736TIP3   OH244622   4.988   5.079   4.552 -0.8782 -0.2666 -0.0783
 7736TIP3    H144623   4.915   5.026   4.519 -1.2105 -0.9720  1.6957
 7736TIP3    H244624   5.007   5.043   4.638  1.5902 -0.0905 -0.4762
 7737TIP3   OH244625   2.842   3.217   4.096 -0.0153 -0.2554  0.1953
 7737TIP3    H144626   2.890   3.168   4.029  0.7723  0.1799  0.4254
 7737TIP3    H244627   2.750   3.206   4.073  0.1467 -1.7952  0.2173
 7738TIP3   OH244628   1.435   3.491   2.940  0.4147  0.1258  0.0073
 7738TIP3    H144629   1.512   3.486   2.883  1.4466  0.6023  1.3045
 7738TIP3    H244630   1.444   3.575   2.985 -1.1468  0.4101 -0.1689
 7739TIP3   OH244631   3.591   5.067  16.241  0.3181 -0.1080  0.2279
 7739TIP3    H144632   3.545   5.119  16.175  0.3070 -0.9521 -0.4472
 7739TIP3    H244633   3.595   4.979  16.204  3.1229  0.0572 -0.0859
 7740TIP3   OH244634   2.207   5.849   1.981  0.7973  0.1086 -0.2594
 7740TIP3    H144635   2.257   5.913   1.930  0.9240 -0.4664 -0.8786
 7740TIP3    H244636   2.140   5.817   1.921 -0.2873  0.8233  0.5517
 7741TIP3   OH244637   6.508   0.463   3.215 -0.7162 -0.3625 -0.1416
 7741TIP3    H144638   6.535   0.406   3.286 -1.5676  0.7378  1.1213
 7741TIP3    H244639   6.463   0.536   3.258  0.5519  1.4293 -1.6461
 7742TIP3   OH244640   2.586   2.845   1.125  0.0086 -0.0143  0.0406
 7742TIP3    H144641   2.554   2.902   1.055 -0.0819 -1.0003 -0.7465
 7742TIP3    H244642   2.529   2.768   1.121 -0.3612  0.1537  1.5837
 7743TIP3   OH244643   6.644   1.251  14.002  0.0401  0.7299  0.0270
 7743TIP3    H144644   6.606   1.338  14.012  0.3432  0.8368  0.2759
 7743TIP3    H244645   6.623   1.225  13.913 -1.0030  0.5939  0.3045
 7744TIP3   OH244646   1.737   6.477  10.615  0.1532  0.1296 -0.2130
 7744TIP3    H144647   1.698   6.401  10.572 -2.4899  0.3748  1.5044
 7744TIP3    H244648   1.830   6.471  10.595 -0.2550 -2.4244 -1.7803
 7745TIP3   OH244649   6.214   5.394   4.319  0.2156 -0.0495 -0.3160
 7745TIP3    H144650   6.150   5.445   4.270 -0.7955 -1.5894 -0.6712
 7745TIP3    H244651   6.267   5.459   4.364 -2.4122  1.2798  1.0593
 7746TIP3   OH244652   5.580   2.245   3.926  0.4471 -0.1697 -0.2013
 7746TIP3    H144653   5.517   2.307   3.962  0.2860 -1.3193  1.6299
 7746TIP3    H244654   5.659   2.297   3.909 -0.4588  0.9734 -1.0428
 7747TIP3   OH244655   6.519   2.093  16.460 -0.1113 -0.3070  0.3765
 7747TIP3    H144656   6.576   2.062  16.531  0.4474  0.4056  0.2582
 7747TIP3    H244657   6.523   2.189  16.466 -1.4299 -0.2405  0.4524
 7748TIP3   OH244658   1.037   1.219   0.116  0.1011  0.6570 -0.2748
 7748TIP3    H144659   0.956   1.169   0.127 -0.1755  1.1420 -0.0798
 7748TIP3    H244660   1.084   1.206   0.199  1.4676 -1.7917 -1.3396
 7749TIP3   OH244661   3.790   3.566  15.243  0.0453 -0.0584 -0.7034
 7749TIP3    H144662   3.738   3.562  15.323  1.1709  1.4388  0.1591
 7749TIP3    H244663   3.770   3.485  15.197 -0.2226 -1.2281  1.3641
 7750TIP3   OH244664   1.297   5.564   1.503  0.1065 -0.1656 -0.5881
 7750TIP3    H144665   1.375   5.577   1.449 -0.2179 -0.0993 -1.0470
 7750TIP3    H244666   1.317   5.486   1.555  0.0441 -0.8237 -1.5184
 7751TIP3   OH244667   1.656   2.355   1.257  0.6885  0.2511 -0.1118
 7751TIP3    H144668   1.671   2.449   1.266 -0.7076  0.4871 -0.0722
 7751TIP3    H244669   1.656   2.322   1.347  0.1973  0.3804 -0.0626
 7752TIP3   OH244670   0.685   1.416  15.631 -0.2790 -0.1251  0.1060
 7752TIP3    H144671   0.617   1.416  15.699 -1.3330 -0.1768 -0.9207
 7752TIP3    H244672   0.686   1.325  15.600 -0.2831  0.0449 -0.3970
 7753TIP3   OH244673   1.785   2.753   4.752  0.3127 -0.4634 -0.8555
 7753TIP3    H144674   1.841   2.745   4.675  1.0569  1.1231 -0.5084
 7753TIP3    H244675   1.708   2.801   4.721  1.8806  2.7771 -0.0739
 7754TIP3   OH244676   5.708   5.930  14.784  0.3271 -0.6805  0.3682
 7754TIP3    H144677   5.661   6.014  14.780 -1.5481 -1.7265 -1.6701
 7754TIP3    H244678   5.770   5.941  14.856  0.7864  2.7676 -0.3676
 7755TIP3   OH244679   6.375   0.761  16.022 -0.4125 -0.1496 -0.0081
 7755TIP3    H144680   6.310   0.761  16.092  0.5128 -0.6646  0.8800
 7755TIP3    H244681   6.333   0.807  15.950 -0.7824  1.8944  1.4361
 7756TIP3   OH244682   5.512   0.931  15.229  0.0496  0.1710 -0.6943
 7756TIP3    H144683   5.448   0.879  15.277  1.7987 -0.6382  0.9348
 7756TIP3    H244684   5.512   0.896  15.140  0.2674 -1.7849  0.0336
 7757TIP3   OH244685   2.156   6.723   0.276  0.2078 -0.2864 -0.0211
 7757TIP3    H144686   2.091   6.791   0.295  0.8898  1.0678 -2.1377
 7757TIP3    H244687   2.107   6.654   0.232 -0.1482 -0.2413  0.3019
 7758TIP3   OH244688   2.269   4.569  14.925  0.0368 -0.3179 -0.4480
 7758TIP3    H144689   2.316   4.628  14.866 -0.3132  0.0644 -0.3483
 7758TIP3    H244690   2.229   4.504  14.867 -1.8678  1.1262 -0.8391
 7759TIP3   OH244691   0.683   1.296   5.240  0.0188 -0.5424 -0.3942
 7759TIP3    H144692   0.755   1.325   5.296  0.0261  0.1596 -0.7470
 7759TIP3    H244693   0.629   1.241   5.296  0.8348 -1.0792 -0.1287
 7760TIP3   OH244694   1.437   3.841  13.915  0.6551  0.4562 -0.4087
 7760TIP3    H144695   1.509   3.825  13.977  0.9866 -1.6629 -1.2625
 7760TIP3    H244696   1.360   3.801  13.956  0.6863 -0.1619 -0.9373
 7761TIP3   OH244697   3.876   1.801  11.360  0.5348 -0.2607 -0.0643
 7761TIP3    H144698   3.868   1.896  11.347  0.5319 -0.5343 -2.5872
 7761TIP3    H244699   3.831   1.763  11.285 -2.5094 -2.3970  2.6079
 7762TIP3   OH244700   2.816   6.588  16.603  0.4024  0.6048  0.4953
 7762TIP3    H144701   2.886   6.630  16.552  0.1932  0.7068  0.2865
 7762TIP3    H244702   2.769   6.661  16.642 -0.1950  0.5906 -0.1745
 7763TIP3   OH244703   1.949   5.808  15.658 -0.7359 -0.0146  0.5238
 7763TIP3    H144704   1.891   5.760  15.598  0.2574 -0.6723  0.0701
 7763TIP3    H244705   1.980   5.882  15.606  0.9330 -1.1449 -0.1574
 7764TIP3   OH244706   5.163   0.997   5.770 -0.0074  0.4644 -0.0087
 7764TIP3    H144707   5.204   0.922   5.727  0.8974  1.0854 -0.2460
 7764TIP3    H244708   5.228   1.066   5.764 -0.2396  0.8365  1.5615
 7765TIP3   OH244709   2.572   3.021  15.353  0.3533 -0.2314  0.2277
 7765TIP3    H144710   2.575   2.960  15.426  1.3611  0.8288  1.1083
 7765TIP3    H244711   2.483   3.054  15.353 -0.0032 -1.1566  0.1763
 7766TIP3   OH244712   5.479   1.843   2.680 -0.4585  0.4913  0.3532
 7766TIP3    H144713   5.499   1.884   2.764  0.2188  0.7102  0.0891
 7766TIP3    H244714   5.562   1.844   2.632 -1.1908  1.8800 -0.9616
 7767TIP3   OH244715   0.954   2.247  13.371 -0.0950 -0.0650  0.6268
 7767TIP3    H144716   0.885   2.298  13.412 -0.9258 -0.3668 -0.3492
 7767TIP3    H244717   0.909   2.171  13.334  1.1648 -1.8130  2.4714
 7768TIP3   OH244718   6.488   2.191  11.465  0.3644 -0.1554  0.1178
 7768TIP3    H144719   6.467   2.158  11.553  0.2523  0.7093  0.4182
 7768TIP3    H244720   6.521   2.113  11.419 -0.0730 -0.7364  0.7542
 7769TIP3   OH244721   1.656   2.185  10.956 -0.7051 -0.7572  0.2956
 7769TIP3    H144722   1.595   2.259  10.958 -0.0590 -0.1964  2.5688
 7769TIP3    H244723   1.649   2.150  10.867 -2.8985  0.4591 -0.0834
 7770TIP3   OH244724   6.557   3.683   3.482 -0.7926  0.0686  0.1920
 7770TIP3    H144725   6.549   3.662   3.575 -2.7691  1.9361  0.5284
 7770TIP3    H244726   6.469   3.668   3.447 -0.2385  0.0435 -1.2379
 7771TIP3   OH244727   1.484   2.940   6.046 -0.0710  0.2774 -0.0255
 7771TIP3    H144728   1.399   2.969   6.079 -0.2553 -1.9566  1.6609
 7771TIP3    H244729   1.511   2.871   6.105  1.6240 -1.0265 -2.1646
 7772TIP3   OH244730   4.715   4.540  15.262 -0.0733 -0.6388  0.3460
 7772TIP3    H144731   4.622   4.552  15.278  0.2472  0.1517  1.9100
 7772TIP3    H244732   4.725   4.546  15.167 -1.5675 -0.4736  0.1768
 7773TIP3   OH244733   4.276   0.356  16.364 -0.7970 -0.1708 -0.5409
 7773TIP3    H144734   4.325   0.278  16.392  1.6854  1.2189 -0.6708
 7773TIP3    H244735   4.260   0.342  16.271 -1.1123 -0.8753 -0.3881
 7774TIP3   OH244736   1.280   5.018   1.107 -0.2020 -0.5327  0.8399
 7774TIP3    H144737   1.268   5.111   1.086  1.2796 -0.2602  1.1416
 7774TIP3    H244738   1.308   4.978   1.025 -1.3289 -0.8272  0.5833
 7775TIP3   OH244739   5.214   4.411   4.615 -0.4707  0.1146  0.9252
 7775TIP3    H144740   5.155   4.482   4.590  0.0236  0.3745  0.4933
 7775TIP3    H244741   5.247   4.436   4.702 -0.4485  0.3161  0.8591
 7776TIP3   OH244742   3.973   0.239   0.770  0.3791 -0.6200 -0.2108
 7776TIP3    H144743   4.039   0.232   0.839  0.1417 -0.2688  0.0548
 7776TIP3    H244744   4.020   0.279   0.696  0.9205 -2.0054 -0.6504
 7777TIP3   OH244745   1.623   1.682   2.505  0.2710  0.1338 -0.4482
 7777TIP3    H144746   1.643   1.738   2.431 -0.7616 -1.3221 -1.9115
 7777TIP3    H244747   1.536   1.646   2.485 -0.2910  0.1354  1.7539
 7778TIP3   OH244748   4.569   2.874  13.586 -0.0115 -0.4849 -0.0964
 7778TIP3    H144749   4.513   2.824  13.645 -1.4712 -0.0836 -1.0729
 7778TIP3    H244750   4.554   2.966  13.610  0.6371 -0.3884 -0.0367
 7779TIP3   OH244751   1.598   4.166   4.311  0.1902 -0.0132 -0.6776
 7779TIP3    H144752   1.631   4.084   4.272 -0.7877 -0.4545 -0.5916
 7779TIP3    H244753   1.622   4.159   4.403  1.0459  0.2846 -0.8698
 7780TIP3   OH244754   4.919   4.855  16.040 -0.0160  0.7849  0.4154
 7780TIP3    H144755   4.972   4.836  16.117 -1.2499  3.5544  2.0545
 7780TIP3    H244756   4.841   4.800  16.050 -1.4473  3.0432  2.7027
 7781TIP3   OH244757   1.049   4.114   4.478  0.8098 -0.2454 -1.0025
 7781TIP3    H144758   1.093   4.028   4.481  1.7883  0.2593  1.4252
 7781TIP3    H244759   1.109   4.173   4.524 -1.2081  1.0761  0.0642
 7782TIP3   OH244760   2.729   2.058  14.655  0.2818 -0.1346  0.6592
 7782TIP3    H144761   2.742   2.004  14.733  1.9522  0.0347  0.5307
 7782TIP3    H244762   2.800   2.034  14.596  1.2922  2.3557  0.7176
 7783TIP3   OH244763   0.326   5.609  13.896 -0.2015  0.1327  0.2363
 7783TIP3    H144764   0.337   5.695  13.854 -1.3255  0.0381 -0.2706
 7783TIP3    H244765   0.249   5.571  13.854  0.5662 -1.3458  0.1051
 7784TIP3   OH244766   5.451   3.477  11.140 -0.1476  0.0921 -0.2538
 7784TIP3    H144767   5.465   3.385  11.119 -1.6832  0.0837 -1.3682
 7784TIP3    H244768   5.414   3.515  11.061 -0.8315  1.3579  0.6269
 7785TIP3   OH244769   4.712   4.946  10.882  0.2283  0.0456 -0.5834
 7785TIP3    H144770   4.710   4.850  10.887  0.1139  0.1034  0.7963
 7785TIP3    H244771   4.786   4.966  10.825  2.9330 -0.7919  2.3999
 7786TIP3   OH244772   4.409   1.394   0.556  0.4171 -0.1441 -0.5534
 7786TIP3    H144773   4.335   1.448   0.584 -0.0854 -1.4946  0.8894
 7786TIP3    H244774   4.370   1.310   0.532  1.5248 -1.5072  1.9454
 7787TIP3   OH244775   3.342   0.150  15.534  0.2139 -0.1150  0.0252
 7787TIP3    H144776   3.277   0.202  15.487  0.0030 -1.4887 -1.2577
 7787TIP3    H244777   3.299   0.125  15.615  0.6490  2.4590  1.1720
 7788TIP3   OH244778   1.387   6.197  12.893 -0.2020  0.0283 -0.0875
 7788TIP3    H144779   1.383   6.292  12.903  1.7904  0.3385 -1.5038
 7788TIP3    H244780   1.381   6.163  12.982 -1.6253  1.4066  0.3889
 7789TIP3   OH244781   3.817   2.185  13.469  0.2015 -0.4082 -0.1043
 7789TIP3    H144782   3.839   2.250  13.402  3.2811  0.3635  1.4704
 7789TIP3    H244783   3.776   2.235  13.539  1.4490 -0.3343  0.5938
 7790TIP3   OH244784   3.677   3.792  13.732  0.1327 -0.5260  0.5138
 7790TIP3    H144785   3.639   3.709  13.761  0.9909 -0.6728  1.2305
 7790TIP3    H244786   3.768   3.772  13.713  0.1287  0.0642 -0.1917
 7791TIP3   OH244787   3.087   1.411  12.560 -0.3803 -0.2557 -0.2619
 7791TIP3    H144788   3.116   1.475  12.495  0.1742  1.0584  1.1921
 7791TIP3    H244789   3.152   1.419  12.631 -2.6176  0.6853  1.8492
 7792TIP3   OH244790   3.859   0.618  15.529  0.2481 -0.2558  0.3960
 7792TIP3    H144791   3.889   0.602  15.440  1.4181  0.7941  0.5798
 7792TIP3    H244792   3.766   0.639  15.520 -0.6796 -3.9602 -0.1501
 7793TIP3   OH244793   1.093   3.016  15.065 -0.4652  0.0809 -0.3355
 7793TIP3    H144794   1.127   3.051  14.983 -0.2976 -2.2825 -1.3780
 7793TIP3    H244795   1.145   3.058  15.133 -0.0866  1.5443 -1.4787
 7794TIP3   OH244796   3.507   1.042   3.723 -1.3750  0.3367 -0.0644
 7794TIP3    H144797   3.597   1.052   3.753 -1.4707  3.1042 -0.4534
 7794TIP3    H244798   3.488   0.949   3.734  0.0252  0.3662  4.3112
 7795TIP3   OH244799   1.938   0.794  16.867  0.0032 -0.6503 -0.2767
 7795TIP3    H144800   1.943   0.874  16.919  0.9530 -0.1484 -1.0989
 7795TIP3    H244801   2.012   0.800  16.807 -0.3418 -1.8060 -0.8475
 7796TIP3   OH244802   2.523   5.370   4.411 -0.3712 -0.0430 -0.3470
 7796TIP3    H144803   2.511   5.412   4.496  0.8046  0.0978 -0.2404
 7796TIP3    H244804   2.585   5.426   4.364 -1.0951 -0.0534 -1.3538
 7797TIP3   OH244805   0.801   3.093  15.044  0.0323 -0.3050  0.1038
 7797TIP3    H144806   0.894   3.090  15.065  0.3453 -2.0016 -1.4175
 7797TIP3    H244807   0.789   3.177  15.000  0.9274 -0.2848 -0.1077
 7798TIP3   OH244808   3.744   6.349  13.384 -0.1982 -0.4830 -0.6455
 7798TIP3    H144809   3.795   6.354  13.465  0.2489  2.0983 -0.9952
 7798TIP3    H244810   3.668   6.296  13.407 -0.1687  0.3183  1.5513
 7799TIP3   OH244811   0.071   5.218  15.690 -0.6595  0.0043  0.1721
 7799TIP3    H144812  -0.009   5.192  15.735  0.6637 -1.3742  1.8227
 7799TIP3    H244813   0.092   5.145  15.632 -1.0582  0.7614 -0.9781
 7800TIP3   OH244814   0.341   1.829   0.360 -0.2620  0.4211  0.5002
 7800TIP3    H144815   0.326   1.837   0.265 -1.9046 -2.0662  0.4533
 7800TIP3    H244816   0.434   1.845   0.371  0.1134  0.0696 -1.6659
 7801TIP3   OH244817   0.025   0.372  14.979  0.2242  0.1405 -0.6064
 7801TIP3    H144818   0.093   0.336  14.923  1.4363 -0.9430  1.4255
 7801TIP3    H244819   0.051   0.463  14.993 -0.8803  0.8771 -2.8524
 7802TIP3   OH244820   5.140   3.539   4.513  0.4773 -0.2710 -0.4457
 7802TIP3    H144821   5.076   3.497   4.570  0.5064 -0.2418 -0.3914
 7802TIP3    H244822   5.223   3.498   4.535  0.7147  0.6384  0.4498
 7803TIP3   OH244823   4.894   0.301  14.017 -0.1743  0.3020 -0.2543
 7803TIP3    H144824   4.951   0.269  14.087  2.3847 -1.0563 -2.7492
 7803TIP3    H244825   4.925   0.389  13.999  0.5178 -0.0718 -0.9463
 7804TIP3   OH244826   3.202   0.815  12.000  0.1089  0.3276 -0.3216
 7804TIP3    H144827   3.148   0.833  12.076  0.0557  0.5879 -0.4232
 7804TIP3    H244828   3.159   0.740  11.958 -0.4393  0.8186 -0.6578
 7805TIP3   OH244829   4.342   1.415   4.565  0.2046  0.3077  0.3967
 7805TIP3    H144830   4.252   1.437   4.538  0.2779  0.1039 -0.0205
 7805TIP3    H244831   4.335   1.396   4.658 -0.0861  0.8521  0.4914
 7806TIP3   OH244832   4.620   3.519  14.551 -0.3847  0.9083 -0.1342
 7806TIP3    H144833   4.605   3.443  14.608  2.5630 -0.5682 -1.1226
 7806TIP3    H244834   4.629   3.593  14.611  2.5020 -0.5717  1.4415
 7807TIP3   OH244835   5.669   2.798   2.792  0.7023  0.0078  0.3133
 7807TIP3    H144836   5.754   2.841   2.800  1.9225 -2.5001  2.2825
 7807TIP3    H244837   5.678   2.742   2.715  1.2772 -1.0666  1.1391
 7808TIP3   OH244838   5.122   2.261  13.681  0.1932 -0.6298 -0.0348
 7808TIP3    H144839   5.102   2.282  13.773 -0.6610 -0.5045 -0.2380
 7808TIP3    H244840   5.108   2.167  13.674 -0.3009 -0.5533 -0.1592
 7809TIP3   OH244841   6.209   4.341  14.312  1.2074  0.6499  0.0393
 7809TIP3    H144842   6.120   4.327  14.280  1.1603 -1.5370  0.8891
 7809TIP3    H244843   6.198   4.393  14.391 -0.0191 -3.4896  2.9403
 7810TIP3   OH244844   5.216   4.360  16.827  0.1012 -0.1798  0.2282
 7810TIP3    H144845   5.289   4.309  16.794  1.9256  2.5583 -0.2484
 7810TIP3    H244846   5.230   4.364  16.922  0.1918 -0.2505  0.2178
 7811TIP3   OH244847   4.019   5.371   5.797 -0.5564 -0.8217  0.1088
 7811TIP3    H144848   3.968   5.436   5.748  0.7221 -2.4536 -3.6859
 7811TIP3    H244849   3.968   5.290   5.789 -0.0682 -1.2433  1.1409
 7812TIP3   OH244850   5.885   2.602   2.295  0.1587  0.1761 -0.2950
 7812TIP3    H144851   5.908   2.627   2.385  1.6148 -1.7248 -0.0752
 7812TIP3    H244852   5.846   2.681   2.258  1.3625  1.6582  1.3821
 7813TIP3   OH244853   4.326   2.923  13.409  0.0576  0.3643 -0.5509
 7813TIP3    H144854   4.309   3.013  13.382  1.6314  1.0622  0.6149
 7813TIP3    H244855   4.418   2.908  13.386  1.3667  0.8107  3.5879
 7814TIP3   OH244856   0.595   0.484   3.090 -0.2974 -0.2019  0.4618
 7814TIP3    H144857   0.638   0.444   3.014 -0.5972  2.0140 -0.9434
 7814TIP3    H244858   0.628   0.433   3.165  1.6351 -1.1264 -0.9198
 7815TIP3   OH244859   4.059   2.694   2.391 -0.3539 -0.3371  0.1011
 7815TIP3    H144860   4.029   2.754   2.323 -0.3202  0.5862  0.8722
 7815TIP3    H244861   3.984   2.685   2.450  0.2408  0.5082  1.0310
 7816TIP3   OH244862   1.724   2.954  11.343  0.2461 -0.5930  0.0874
 7816TIP3    H144863   1.736   2.862  11.367  0.0323 -0.8087 -0.6199
 7816TIP3    H244864   1.776   2.965  11.263 -1.3517 -0.6189 -0.9932
 7817TIP3   OH244865   4.982   3.441   4.983 -0.3858 -0.0956  0.3412
 7817TIP3    H144866   4.977   3.507   5.052 -0.8022 -0.3507  0.5643
 7817TIP3    H244867   5.073   3.442   4.954 -0.7517  1.8268 -0.8906
 7818TIP3   OH244868   2.236   5.378  14.959  0.0471 -0.0209  0.5342
 7818TIP3    H144869   2.331   5.384  14.961  0.0908 -0.5284  0.0067
 7818TIP3    H244870   2.213   5.383  14.867 -0.3726 -0.8322  0.5834
 7819TIP3   OH244871   0.191   1.505  13.881  0.4108 -0.4910  0.2438
 7819TIP3    H144872   0.243   1.540  13.808  0.8513 -2.7041 -0.5559
 7819TIP3    H244873   0.130   1.576  13.902 -0.8237 -0.2706 -3.3172
 7820TIP3   OH244874   1.348   5.307  16.915  0.2763  0.7395  0.1062
 7820TIP3    H144875   1.430   5.334  16.873  1.2710 -1.2107  0.7028
 7820TIP3    H244876   1.360   5.332  17.007  1.2304 -1.5702  0.6775
 7821TIP3   OH244877   3.299   3.418   0.909  0.0645  0.2361 -0.1391
 7821TIP3    H144878   3.318   3.496   0.961  0.8050 -0.0785  0.0738
 7821TIP3    H244879   3.223   3.379   0.952  1.3058 -0.6032  1.4086
 7822TIP3   OH244880   6.409   4.974  12.457 -0.0365 -0.2612  0.0172
 7822TIP3    H144881   6.473   4.940  12.395  0.7672 -1.1624  1.2921
 7822TIP3    H244882   6.414   5.069  12.447 -0.9540 -0.3834 -2.2663
 7823TIP3   OH244883   4.872   1.176  14.290 -0.7249 -0.2757  0.0879
 7823TIP3    H144884   4.840   1.264  14.308 -1.9112 -0.5036 -0.7778
 7823TIP3    H244885   4.877   1.170  14.195 -1.5738 -1.4319  0.0900
 7824TIP3   OH244886   1.745   4.178  15.408  0.2384 -0.0142  0.4187
 7824TIP3    H144887   1.777   4.267  15.400  1.0753 -0.3067  0.3832
 7824TIP3    H244888   1.784   4.131  15.334 -0.6223 -0.2942  0.1278
 7825TIP3   OH244889   3.549   0.184   4.198 -0.2772  0.3505  0.2632
 7825TIP3    H144890   3.640   0.166   4.220  0.4264  3.1325  0.0295
 7825TIP3    H244891   3.552   0.214   4.107 -1.7771 -1.4980 -0.4835
 7826TIP3   OH244892   4.075   3.826   1.547  0.1894  0.2714 -0.2395
 7826TIP3    H144893   4.059   3.810   1.640  1.2226  0.0892 -0.0718
 7826TIP3    H244894   4.163   3.865   1.545 -0.0894  0.8871 -1.0882
 7827TIP3   OH244895   3.045   3.115   2.391  0.3254  0.3139 -0.1450
 7827TIP3    H144896   3.082   3.071   2.315  0.2485 -0.2830  0.1562
 7827TIP3    H244897   3.023   3.044   2.451  1.8502  0.8554  1.1024
 7828TIP3   OH244898   0.244   6.577  16.668 -0.1443  0.3519  0.0279
 7828TIP3    H144899   0.238   6.493  16.714  0.5616  2.1082  3.6552
 7828TIP3    H244900   0.333   6.607  16.687 -0.2877  1.8301 -1.4558
 7829TIP3   OH244901   1.688   1.552  11.390 -0.3905 -0.9117  0.0547
 7829TIP3    H144902   1.644   1.550  11.474 -1.1390 -2.9709 -0.3184
 7829TIP3    H244903   1.766   1.498  11.402  0.5161  0.3099 -0.0958
 7830TIP3   OH244904   6.322   2.692  15.381  0.0089 -0.1472 -0.6082
 7830TIP3    H144905   6.271   2.657  15.309  0.9799 -3.2686  0.0527
 7830TIP3    H244906   6.396   2.632  15.389  2.3604  2.6059  0.2055
 7831TIP3   OH244907   3.300   4.760   2.240 -0.5503  0.1136 -0.1098
 7831TIP3    H144908   3.382   4.797   2.207 -0.5746  1.7739  1.5310
 7831TIP3    H244909   3.252   4.836   2.274 -1.4414 -1.2073  1.7089
 7832TIP3   OH244910   2.798   1.753   5.150 -0.9035  0.0520 -0.5306
 7832TIP3    H144911   2.873   1.697   5.169  0.6992  1.6527 -1.7379
 7832TIP3    H244912   2.744   1.702   5.090 -0.3833 -0.8375 -0.2559
 7833TIP3   OH244913   4.724   5.893  17.406  0.6419  0.5411 -0.1748
 7833TIP3    H144914   4.655   5.924  17.348 -0.6568  0.2958  1.1886
 7833TIP3    H244915   4.791   5.962  17.403 -0.7675  2.0050  0.3591
 7834TIP3   OH244916   4.584   6.627   2.296  0.1163 -0.5454 -0.1418
 7834TIP3    H144917   4.662   6.617   2.351 -0.8384  0.2509  1.4072
 7834TIP3    H244918   4.553   6.716   2.314 -1.8685 -1.2665  0.2659
 7835TIP3   OH244919   0.891   2.107  15.406 -0.8364 -0.2994  0.2740
 7835TIP3    H144920   0.933   2.025  15.431 -2.1089 -0.8449  0.7482
 7835TIP3    H244921   0.946   2.143  15.336  1.4492 -0.0019  2.0926
 7836TIP3   OH244922   1.110   3.861   1.689 -0.0822  0.1083 -0.1095
 7836TIP3    H144923   1.100   3.866   1.785  0.9087  0.6324 -0.0208
 7836TIP3    H244924   1.149   3.775   1.674 -0.3982 -0.0455 -0.0621
 7837TIP3   OH244925   0.529   3.966  12.034  0.7378  0.5358 -0.6973
 7837TIP3    H144926   0.620   3.949  12.006  0.2497 -2.0441 -0.9729
 7837TIP3    H244927   0.476   3.913  11.974 -0.8691  0.8441  0.4082
 7838TIP3   OH244928   6.360   3.938   3.629  0.2221 -0.0265  0.1806
 7838TIP3    H144929   6.283   3.887   3.654  0.1422  0.6454  1.3469
 7838TIP3    H244930   6.333   3.987   3.552 -0.1230 -0.7260 -0.1516
 7839TIP3   OH244931   3.699   2.702  12.251 -0.1107  0.0805  0.2287
 7839TIP3    H144932   3.779   2.675  12.204 -0.4952 -0.9436  0.1351
 7839TIP3    H244933   3.633   2.638  12.223 -1.0495  1.1114  0.0528
 7840TIP3   OH244934   0.011   4.790   2.124 -0.0826  0.0165  0.2537
 7840TIP3    H144935  -0.080   4.761   2.118  0.2141 -0.8257 -0.3622
 7840TIP3    H244936   0.059   4.714   2.158  0.7284 -0.2877 -1.4783
 7841TIP3   OH244937   1.926   2.424   2.113 -0.5300  0.0112 -0.1240
 7841TIP3    H144938   1.968   2.346   2.077  1.3175 -0.0405  1.9065
 7841TIP3    H244939   1.836   2.396   2.133  0.1330 -1.6548  0.6789
 7842TIP3   OH244940   2.248   6.500   5.637  0.2428  0.2321  0.5020
 7842TIP3    H144941   2.241   6.491   5.732  0.7735 -0.9915  0.4462
 7842TIP3    H244942   2.269   6.592   5.623 -0.4476  0.5612  1.5263
 7843TIP3   OH244943   6.328   1.210   2.014  0.8075 -0.2908 -0.2888
 7843TIP3    H144944   6.358   1.299   2.029 -1.4492  0.2653  1.4763
 7843TIP3    H244945   6.387   1.155   2.066  0.1537  0.5523  1.4079
 7844TIP3   OH244946   4.151   3.379   6.381 -0.3323 -0.8439 -0.7654
 7844TIP3    H144947   4.221   3.386   6.316 -1.0091 -1.5024 -1.5770
 7844TIP3    H244948   4.163   3.456   6.437 -0.1941  0.1624 -2.1260
 7845TIP3   OH244949   6.499   1.041   5.463 -0.0116 -0.1798  0.3801
 7845TIP3    H144950   6.553   0.989   5.404  1.0890 -0.0516  1.2466
 7845TIP3    H244951   6.560   1.098   5.509 -1.0373  0.9348  0.4293
 7846TIP3   OH244952   2.528   6.625   5.706  0.3751 -0.2450 -0.2159
 7846TIP3    H144953   2.620   6.633   5.729  0.2809  1.0922 -0.2537
 7846TIP3    H244954   2.524   6.646   5.612  0.0893 -0.7993 -0.3370
 7847TIP3   OH244955   0.351   6.073  15.198 -0.5174  0.1572 -0.6695
 7847TIP3    H144956   0.417   6.011  15.230 -1.3110  0.1325  1.0365
 7847TIP3    H244957   0.352   6.062  15.103 -0.0496 -1.8812 -0.4785
 7848TIP3   OH244958   6.566   3.486  14.334 -0.1409 -0.0924  0.3196
 7848TIP3    H144959   6.536   3.495  14.244  0.4705 -1.1764 -0.0186
 7848TIP3    H244960   6.603   3.572  14.356 -1.3357  0.5373 -0.0456
 7849TIP3   OH244961   0.415   4.985   0.548 -0.1662  0.4902  0.8167
 7849TIP3    H144962   0.433   5.065   0.499 -0.3230 -0.2405 -0.4705
 7849TIP3    H244963   0.337   4.948   0.507  1.7422 -2.0379 -0.8763
 7850TIP3   OH244964   5.194   0.178   4.061  0.0043 -0.4443  0.8807
 7850TIP3    H144965   5.164   0.226   4.138 -0.5514 -1.0297  1.0360
 7850TIP3    H244966   5.275   0.135   4.090 -0.0793 -0.4796  1.0649
 7851TIP3   OH244967   5.502   4.442  17.160  0.1393  0.6963 -0.2321
 7851TIP3    H144968   5.589   4.484  17.161 -0.1803  1.3730  0.1159
 7851TIP3    H244969   5.467   4.458  17.248  1.0788 -2.6622  0.9172
 7852TIP3   OH244970   3.680   5.761   6.119  0.5531 -0.2362  0.3386
 7852TIP3    H144971   3.731   5.696   6.167 -0.4891 -2.1400 -0.9930
 7852TIP3    H244972   3.648   5.714   6.042 -1.7200  1.3943  0.2007
 7853TIP3   OH244973   2.693   0.683   0.406 -0.2188 -0.2566 -0.1702
 7853TIP3    H144974   2.693   0.614   0.472  0.0162 -0.2731 -0.1858
 7853TIP3    H244975   2.610   0.728   0.417 -0.7471 -1.0743 -0.7155
 7854TIP3   OH244976   5.325   6.421   3.520  0.0287 -0.1442  0.2666
 7854TIP3    H144977   5.300   6.466   3.440  1.3936  1.8108  0.8653
 7854TIP3    H244978   5.420   6.429   3.524  0.2191 -2.1114  1.0303
 7855TIP3   OH244979   2.136   2.676  17.210 -0.7787 -0.3436  0.2533
 7855TIP3    H144980   2.159   2.585  17.194  2.4837 -0.4166  3.8304
 7855TIP3    H244981   2.088   2.675  17.293 -2.3190  1.1221 -0.5428
 7856TIP3   OH244982   5.978   3.252  16.941  0.4681 -0.0788  0.1502
 7856TIP3    H144983   6.029   3.224  16.865  0.4015 -0.4625  0.2440
 7856TIP3    H244984   5.890   3.266  16.907  0.5387  0.1898  0.0692
 7857TIP3   OH244985   3.951   2.771  11.421 -0.1196  0.3064 -0.1343
 7857TIP3    H144986   4.032   2.814  11.394  0.3174 -0.5575 -0.2425
 7857TIP3    H244987   3.886   2.841  11.424  0.5494  0.9480 -0.3907
 7858TIP3   OH244988   0.112   3.609  17.038  0.0882  0.2828  0.2478
 7858TIP3    H144989   0.025   3.646  17.051 -0.1203 -0.5235  1.3239
 7858TIP3    H244990   0.163   3.679  16.998 -0.8309  1.0381  0.3800
 7859TIP3   OH244991   1.079   4.609   2.676  0.1882 -0.1525  0.2099
 7859TIP3    H144992   0.988   4.639   2.675 -0.2012 -1.2636  0.1563
 7859TIP3    H244993   1.074   4.520   2.711  1.3813  0.1223  1.1281
 7860TIP3   OH244994   3.177   1.372   1.572  0.3766  0.6716  0.2410
 7860TIP3    H144995   3.166   1.454   1.526  1.6914  0.2670 -0.8474
 7860TIP3    H244996   3.152   1.391   1.662  3.8288  3.2191  0.8494
 7861TIP3   OH244997   4.284   4.715  16.014 -0.0929  0.0393 -0.3366
 7861TIP3    H144998   4.347   4.644  16.007  1.2952  0.8774  2.1927
 7861TIP3    H244999   4.227   4.690  16.087 -1.4738  0.2047 -1.3216
 7862TIP3   OH245000   2.240   5.751  14.971 -0.4575  0.3463  0.3072
 7862TIP3    H145001   2.237   5.716  14.881  0.1581  0.6177  0.1755
 7862TIP3    H245002   2.154   5.732  15.007 -0.2718 -0.9770  0.1144
 7863TIP3   OH245003   5.178   6.227   2.687  0.6203 -0.0312  0.3002
 7863TIP3    H145004   5.176   6.255   2.779 -0.2005 -0.2311  0.3482
 7863TIP3    H245005   5.130   6.145   2.685  2.2845 -1.0424  0.0069
 7864TIP3   OH245006   0.079   3.110   1.991 -0.0059 -0.0601  0.4793
 7864TIP3    H145007   0.100   3.179   2.054 -0.4214  1.0994 -0.5874
 7864TIP3    H245008   0.144   3.042   2.007  0.9084  0.9102  1.0724
 7865TIP3   OH245009   5.798   5.434   2.286  0.1853 -0.3937  0.0382
 7865TIP3    H145010   5.753   5.409   2.366  0.3815 -0.8224  0.0204
 7865TIP3    H245011   5.802   5.529   2.289  0.6940 -0.4364  0.8089
 7866TIP3   OH245012   0.974   6.694   4.294  0.2646 -0.4522  0.7365
 7866TIP3    H145013   0.954   6.626   4.357  0.6309  0.2563  1.6299
 7866TIP3    H245014   0.924   6.771   4.324  0.8609  0.0436  0.4838
 7867TIP3   OH245015   5.591   6.423   3.440  0.0347 -0.4146 -0.4911
 7867TIP3    H145016   5.665   6.390   3.389  0.4499 -3.0321  1.5724
 7867TIP3    H245017   5.600   6.518   3.436  2.7592 -0.6179 -1.3692
 7868TIP3   OH245018   0.334   1.056   3.388  0.3766 -0.4619 -0.1006
 7868TIP3    H145019   0.286   1.133   3.419  0.8857 -0.5080  0.8420
 7868TIP3    H245020   0.267   1.000   3.349 -0.0830  0.1985 -0.2731
 7869TIP3   OH245021   4.193   0.864   5.549  0.0153 -0.0655  0.0510
 7869TIP3    H145022   4.259   0.802   5.581 -0.1793 -0.4180 -0.2382
 7869TIP3    H245023   4.126   0.865   5.618 -0.2082 -0.5260 -0.1573
 7870TIP3   OH245024   4.285   4.420  14.263  0.6916 -0.0159 -0.7785
 7870TIP3    H145025   4.249   4.492  14.210 -0.2173  1.9145  2.1821
 7870TIP3    H245026   4.223   4.412  14.335  2.6090 -1.4734  0.7744
 7871TIP3   OH245027   2.117   1.733   1.320 -0.3997 -0.0045  0.1867
 7871TIP3    H145028   2.151   1.663   1.376 -0.7182 -0.9718 -0.7961
 7871TIP3    H245029   2.165   1.724   1.238 -1.1251  0.3104 -0.2809
 7872TIP3   OH245030   4.391   3.201   3.349  0.1183  0.2416 -0.5409
 7872TIP3    H145031   4.451   3.145   3.399 -1.1602  0.1031  0.9127
 7872TIP3    H245032   4.435   3.287   3.347 -0.1215  0.4688  1.5424
 7873TIP3   OH245033   5.696   4.005   0.044 -0.1151 -0.3825  0.4163
 7873TIP3    H145034   5.764   4.065   0.013  0.6511 -0.1590  2.3950
 7873TIP3    H245035   5.720   3.985   0.134 -2.1207 -1.1406  0.8496
 7874TIP3   OH245036   1.044   6.370  11.561  0.2156 -0.3405 -0.6704
 7874TIP3    H145037   1.053   6.281  11.528 -0.5584 -0.1417 -1.4844
 7874TIP3    H245038   0.949   6.386  11.559 -0.0958 -0.8856  3.2869
 7875TIP3   OH245039   1.739   1.642  14.857 -0.2525 -0.0769 -0.6809
 7875TIP3    H145040   1.824   1.600  14.868 -0.4748 -0.2089  0.7574
 7875TIP3    H245041   1.703   1.646  14.945 -2.9729 -2.5983 -1.4836
 7876TIP3   OH245042   6.249   0.790   2.958  0.1254  0.3638 -0.1393
 7876TIP3    H145043   6.174   0.777   3.016  0.7065  0.5863  0.6840
 7876TIP3    H245044   6.211   0.798   2.871 -0.9676  2.1364  0.4477
 7877TIP3   OH245045   5.006   6.374  16.583 -0.2311 -0.1110  0.2471
 7877TIP3    H145046   4.956   6.430  16.525  1.7429 -0.3293 -1.7998
 7877TIP3    H245047   4.956   6.292  16.586 -1.8620  0.8673  1.3067
 7878TIP3   OH245048   2.743   4.192  13.037  0.0191 -0.5801  0.1073
 7878TIP3    H145049   2.715   4.193  12.945  0.0942  0.4086  0.0810
 7878TIP3    H245050   2.798   4.114  13.044 -0.8147 -1.2360 -0.4266
 7879TIP3   OH245051   0.087   1.966   3.293 -0.8294  0.1322 -0.6674
 7879TIP3    H145052   0.026   2.011   3.234 -0.2721  0.6700 -0.8355
 7879TIP3    H245053   0.040   1.886   3.318 -1.3655  0.2471 -1.2670
 7880TIP3   OH245054   2.422   3.538  12.658  0.3891 -0.4478  0.1391
 7880TIP3    H145055   2.383   3.590  12.589  1.1653 -1.9259 -1.4762
 7880TIP3    H245056   2.516   3.553  12.650  0.4284  0.5719  1.9195
 7881TIP3   OH245057   1.590   4.017   1.268  0.2986 -0.5474 -0.6292
 7881TIP3    H145058   1.634   4.035   1.185 -0.4105 -0.5316 -1.0099
 7881TIP3    H245059   1.614   3.926   1.288 -0.3941 -0.9271 -1.4210
 7882TIP3   OH245060   6.686   6.013  16.991  0.0902 -0.6905  0.9257
 7882TIP3    H145061   6.775   6.038  17.016  0.6390 -2.5663  0.9954
 7882TIP3    H245062   6.697   5.958  16.914 -1.2241  0.8476 -0.4508
 7883TIP3   OH245063   2.590   6.612  12.572  0.0407 -0.6425  0.2006
 7883TIP3    H145064   2.666   6.593  12.627 -0.2765 -1.6861  0.3131
 7883TIP3    H245065   2.606   6.699  12.537  1.4584 -0.9942 -0.0728
 7884TIP3   OH245066   2.342   5.105  11.979  0.1927 -0.0891  0.2023
 7884TIP3    H145067   2.275   5.157  12.022 -0.3821 -1.6505  1.2839
 7884TIP3    H245068   2.308   5.015  11.980  1.8242 -0.7577 -0.1545
 7885TIP3   OH245069   4.377   6.598   1.469 -0.5091 -0.2889 -0.5440
 7885TIP3    H145070   4.402   6.528   1.528 -2.9101 -0.7947 -0.0256
 7885TIP3    H245071   4.459   6.643   1.449  0.5415 -0.5698  2.5395
 7886TIP3   OH245072   0.252   3.112  10.264 -0.5095 -0.3941  0.4796
 7886TIP3    H145073   0.236   3.020  10.245  0.1728 -0.1515 -1.5313
 7886TIP3    H245074   0.165   3.148  10.283 -0.9456 -1.2031  0.0557
 7887TIP3   OH245075   5.919   5.923  17.354 -0.7795  0.8936  0.6761
 7887TIP3    H145076   5.828   5.896  17.367 -0.6547 -0.1323 -0.4067
 7887TIP3    H245077   5.970   5.863  17.408 -0.7185  1.2116  0.9731
 7888TIP3   OH245078   1.084   2.609  11.756  0.1079 -0.4270  0.3439
 7888TIP3    H145079   0.999   2.595  11.797 -0.0766  2.2637  1.0602
 7888TIP3    H245080   1.074   2.691  11.707  1.4803 -1.5228 -1.9255
 7889TIP3   OH245081   4.766   0.565   5.320  1.2351 -0.1825 -0.3890
 7889TIP3    H145082   4.841   0.625   5.320  0.8428  0.3607  1.3440
 7889TIP3    H245083   4.719   0.585   5.401 -1.9924  0.9187 -2.3443
 7890TIP3   OH245084   5.025   1.177  11.485  0.1423 -0.4476 -0.0794
 7890TIP3    H145085   5.083   1.156  11.558 -1.0137 -0.7999  0.7740
 7890TIP3    H245086   4.990   1.263  11.508 -0.8182 -0.8971  0.1953
 7891TIP3   OH245087   3.501   1.411  14.291  0.2212 -0.0239  0.0215
 7891TIP3    H145088   3.498   1.335  14.349 -1.1060 -0.4122 -0.5126
 7891TIP3    H245089   3.594   1.429  14.279  0.8110 -3.6983 -2.5435
 7892TIP3   OH245090   1.010   5.222  13.508  0.1579  0.6425 -0.2141
 7892TIP3    H145091   1.041   5.157  13.571 -0.4582  1.9768  1.5426
 7892TIP3    H245092   1.059   5.301  13.528 -0.0351  1.0973 -1.4462
 7893TIP3   OH245093   5.081   2.230  13.961  0.6315  0.0524  0.1962
 7893TIP3    H145094   5.050   2.212  14.050  2.3970 -1.1264  0.6320
 7893TIP3    H245095   5.170   2.265  13.974  0.8624 -0.0186 -1.0968
 7894TIP3   OH245096   0.620   2.697  13.480  0.3637  0.6469 -0.3481
 7894TIP3    H145097   0.626   2.670  13.388  1.5347 -0.3685  0.0056
 7894TIP3    H245098   0.581   2.622  13.525  0.4790  0.8611  0.1150
 7895TIP3   OH245099   1.139   3.789   5.317  0.0174 -0.2721 -0.7276
 7895TIP3    H145100   1.225   3.773   5.356 -0.7459 -0.1233  1.1341
 7895TIP3    H245101   1.121   3.881   5.336  0.0972  0.1379 -2.5086
 7896TIP3   OH245102   2.015   3.291  16.299 -0.1630 -0.3135 -0.5108
 7896TIP3    H145103   2.076   3.349  16.344 -2.0816  1.4052  0.0124
 7896TIP3    H245104   1.987   3.340  16.222 -1.5172 -0.6783 -0.2813
 7897TIP3   OH245105   0.997   3.326  17.073  0.2078 -0.1156 -0.2980
 7897TIP3    H145106   1.091   3.313  17.056  0.6390  1.0038  1.0974
 7897TIP3    H245107   0.985   3.298  17.164 -0.5943  0.7830 -0.1127
 7898TIP3   OH245108   1.373   3.884   1.947  0.2896  0.2105 -0.3447
 7898TIP3    H145109   1.395   3.976   1.936  0.7636  0.2239  0.6549
 7898TIP3    H245110   1.280   3.883   1.967  0.1861  0.4293 -0.7974
 7899TIP3   OH245111   6.303   5.640  16.712  0.0146 -0.4576  0.1116
 7899TIP3    H145112   6.367   5.684  16.769  0.2757  0.0414 -0.5556
 7899TIP3    H245113   6.272   5.566  16.764  1.0066 -0.6042  0.5194
 7900TIP3   OH245114   6.622   0.987  12.511 -0.2395  0.0016  0.2798
 7900TIP3    H145115   6.714   0.976  12.537  0.6242 -0.0857 -2.4660
 7900TIP3    H245116   6.621   1.068  12.461 -1.8090  0.2675  0.6861
 7901TIP3   OH245117   0.283   3.735  14.601  0.1710 -0.0767  0.5476
 7901TIP3    H145118   0.230   3.743  14.521 -0.3001 -0.0434  0.8612
 7901TIP3    H245119   0.373   3.725  14.569 -0.2812 -2.9908 -0.1131
 7902TIP3   OH245120   1.494   6.449  16.477 -0.7447  0.2193  0.0708
 7902TIP3    H145121   1.410   6.485  16.448 -0.9723 -0.5298 -0.2052
 7902TIP3    H245122   1.477   6.356  16.493 -0.0324  0.1151  0.2611
 7903TIP3   OH245123   0.545   2.592   5.412  0.0291  0.0606 -1.0063
 7903TIP3    H145124   0.641   2.592   5.409  0.2484 -0.2869  2.4346
 7903TIP3    H245125   0.519   2.538   5.337  2.5109 -0.0548 -1.8780
 7904TIP3   OH245126   2.267   2.910  12.831 -0.0265 -0.3289 -0.1923
 7904TIP3    H145127   2.288   2.974  12.763  2.5658 -1.8166 -0.9456
 7904TIP3    H245128   2.317   2.937  12.907  0.3813 -0.9447 -0.2341
 7905TIP3   OH245129   5.647   2.344  12.538 -0.3193  0.1633 -0.7626
 7905TIP3    H145130   5.681   2.385  12.458 -0.3338 -1.8100 -1.8386
 7905TIP3    H245131   5.573   2.399  12.564  1.3687  2.4441 -0.4673
 7906TIP3   OH245132   3.068   2.543  14.658 -0.6246 -0.1514 -0.0454
 7906TIP3    H145133   3.064   2.601  14.734 -0.0909 -0.7337  0.4483
 7906TIP3    H245134   3.016   2.467  14.683  1.4224 -1.3996  0.7295
 7907TIP3   OH245135   3.994   0.807   2.056  0.3206 -0.4530 -0.0362
 7907TIP3    H145136   4.023   0.870   1.990  2.2786 -0.8827  0.3533
 7907TIP3    H245137   4.071   0.793   2.111 -0.9249 -0.9859  1.6542
 7908TIP3   OH245138   3.714   2.777  15.529 -0.2745  0.0245 -0.3960
 7908TIP3    H145139   3.800   2.754  15.563  0.1956  0.5263 -1.1971
 7908TIP3    H245140   3.673   2.693  15.508  0.3140 -0.1976 -0.6856
 7909TIP3   OH245141   5.077   4.135   0.323  0.1902 -0.2853 -0.1111
 7909TIP3    H145142   5.110   4.188   0.395 -0.5446 -0.9628  0.7505
 7909TIP3    H245143   5.122   4.168   0.246  0.7932  0.6353  0.6182
 7910TIP3   OH245144   5.872   2.110   4.674  0.0755 -0.0274  0.0563
 7910TIP3    H145145   5.902   2.047   4.608 -1.5965 -1.1963  0.3381
 7910TIP3    H245146   5.876   2.062   4.757 -3.1311 -0.5879  0.0293
 7911TIP3   OH245147   3.096   6.650   4.826  0.2026  0.4134  0.2157
 7911TIP3    H145148   3.076   6.666   4.919 -0.3494 -1.1339  0.3969
 7911TIP3    H245149   3.017   6.608   4.792  0.9682 -0.4503 -0.5547
 7912TIP3   OH245150   6.008   2.754   4.366  0.0077 -0.5520 -0.1265
 7912TIP3    H145151   5.958   2.733   4.445 -2.9733 -0.3095 -1.8143
 7912TIP3    H245152   5.995   2.848   4.353  0.4199 -0.5990 -0.9400
 7913TIP3   OH245153   5.848   2.711  15.931  0.1541 -0.0516  0.1322
 7913TIP3    H145154   5.942   2.698  15.939  0.1087 -0.2287  0.3924
 7913TIP3    H245155   5.823   2.751  16.015  0.1366  0.7943 -0.2662
 7914TIP3   OH245156   4.892   6.508   0.585  0.0027  0.0525  0.6687
 7914TIP3    H145157   4.970   6.452   0.584  0.0454  0.0168  2.7201
 7914TIP3    H245158   4.889   6.544   0.673  0.7230  4.4471 -0.8949
 7915TIP3   OH245159   1.661   5.023   0.442 -0.2430 -0.2711  0.4968
 7915TIP3    H145160   1.735   4.993   0.389 -2.2060 -3.3392 -0.7771
 7915TIP3    H245161   1.648   4.954   0.506 -1.6339  0.5385  1.1251
 7916TIP3   OH245162   0.216   3.160  13.113 -0.1314 -0.1786 -0.4232
 7916TIP3    H145163   0.161   3.155  13.191 -0.2053  2.6229 -0.2025
 7916TIP3    H245164   0.156   3.148  13.039 -0.4865 -0.3081 -0.1110
 7917TIP3   OH245165   3.690   1.732  15.316  0.3747 -0.0688 -0.1189
 7917TIP3    H145166   3.659   1.753  15.228  0.1490 -0.4132 -0.1227
 7917TIP3    H245167   3.629   1.665  15.348  1.0807 -0.7304 -0.1175
 7918TIP3   OH245168   5.843   4.984  11.221  0.2165  0.2721 -0.4425
 7918TIP3    H145169   5.899   4.906  11.223 -0.4754 -0.2315 -0.1934
 7918TIP3    H245170   5.878   5.037  11.150  0.2937 -0.5727 -1.0478
 7919TIP3   OH245171   6.198   5.002  16.563  0.0384  0.5306  0.2499
 7919TIP3    H145172   6.155   4.919  16.542 -0.3067  0.9660 -0.8776
 7919TIP3    H245173   6.125   5.061  16.583  0.3034  0.4652  1.4343
 7920TIP3   OH245174   5.727   0.026  13.916  0.3411  0.1502 -0.0164
 7920TIP3    H145175   5.709   0.093  13.982  2.0673  0.3047  0.3391
 7920TIP3    H245176   5.822   0.019  13.913  0.2621 -0.9335 -1.4313
 7921TIP3   OH245177   0.450   0.472  13.449 -0.5765 -0.3930 -0.1315
 7921TIP3    H145178   0.397   0.393  13.457 -0.3196 -0.6976 -1.2152
 7921TIP3    H245179   0.452   0.509  13.537 -0.3571 -1.8165  0.4832
 7922TIP3   OH245180   0.707   3.601  15.564  0.1638  0.0419  0.0262
 7922TIP3    H145181   0.749   3.620  15.480 -0.2998  2.4279  0.2645
 7922TIP3    H245182   0.615   3.622  15.549  0.3517  2.2595  1.5590
 7923TIP3   OH245183   5.845   1.306  13.368 -0.2362 -0.1944  0.2354
 7923TIP3    H145184   5.811   1.257  13.293  0.8253  0.2458 -0.5618
 7923TIP3    H245185   5.772   1.362  13.394 -1.1855 -1.5747  0.6347
 7924TIP3   OH245186   6.241   4.694  14.408 -0.4411  0.2151  1.3138
 7924TIP3    H145187   6.243   4.785  14.437 -1.9765  0.4652  0.7616
 7924TIP3    H245188   6.270   4.644  14.484  0.4000  1.1553  1.6341
 7925TIP3   OH245189   0.551   5.844  12.341 -0.1519 -0.3229 -0.3945
 7925TIP3    H145190   0.489   5.870  12.409 -1.1983 -1.6397 -0.7969
 7925TIP3    H245191   0.551   5.917  12.279  0.4214  0.6648  0.7200
 7926TIP3   OH245192   3.540   5.276   2.004  0.4307 -0.2684  0.1539
 7926TIP3    H145193   3.575   5.222   2.075  1.9747 -0.4915 -0.7388
 7926TIP3    H245194   3.465   5.226   1.971 -1.6313  0.7955  2.9000
 7927TIP3   OH245195   6.359   1.036  14.436  0.3838 -0.2737  0.2133
 7927TIP3    H145196   6.365   1.031  14.340  1.4380  1.1109  0.1884
 7927TIP3    H245197   6.343   1.128  14.455  0.2755 -0.5176  1.3862
 7928TIP3   OH245198   4.073   5.964  10.898 -0.6651  0.6673  0.3589
 7928TIP3    H145199   4.069   5.952  10.803 -0.7073  0.3896  0.3947
 7928TIP3    H245200   4.125   6.043  10.910  3.4695 -1.7708  0.2591
 7929TIP3   OH245201   0.355   5.623   1.137  0.1655  0.1469 -0.3780
 7929TIP3    H145202   0.324   5.661   1.055 -0.5077 -2.4352 -1.4081
 7929TIP3    H245203   0.398   5.542   1.111  0.4900 -0.4363  1.7905
 7930TIP3   OH245204   5.621   4.368  13.749 -0.0641  0.5232  0.4374
 7930TIP3    H145205   5.687   4.414  13.697 -0.7342 -1.0776 -1.9632
 7930TIP3    H245206   5.566   4.438  13.786  0.8767  1.7356 -0.3829
 7931TIP3   OH245207   0.159   5.574  11.324  0.1620 -0.2154 -0.4391
 7931TIP3    H145208   0.235   5.632  11.332  0.6735 -1.0130  0.8320
 7931TIP3    H245209   0.097   5.607  11.389  0.6228 -1.2972  0.5884
 7932TIP3   OH245210   5.516   5.880   3.234 -0.2335  0.2333 -0.5881
 7932TIP3    H145211   5.471   5.915   3.311  1.0360  2.2491 -0.7067
 7932TIP3    H245212   5.607   5.868   3.262 -0.1198 -0.6833 -1.2854
 7933TIP3   OH245213   3.326   5.940  15.539  0.0370  0.0989  0.4594
 7933TIP3    H145214   3.241   5.907  15.567 -0.2189  1.9493  2.1237
 7933TIP3    H245215   3.305   6.018  15.488  0.6514 -1.5271 -2.5167
 7934TIP3   OH245216   6.010   3.754   4.159 -0.0403  0.3033 -0.4907
 7934TIP3    H145217   5.945   3.686   4.140  0.8396 -0.0021 -2.8325
 7934TIP3    H245218   6.001   3.816   4.087  1.5601  0.7704 -0.3219
 7935TIP3   OH245219   4.944   5.538  13.883 -0.1555  0.4975  0.0457
 7935TIP3    H145220   4.912   5.450  13.864  0.2046  0.7742 -2.1882
 7935TIP3    H245221   5.020   5.548  13.825 -0.2634  2.3121  0.1730
 7936TIP3   OH245222   2.643   1.971   5.811  0.1089 -0.3653 -0.0726
 7936TIP3    H145223   2.682   2.052   5.779 -0.6702  0.0176 -0.0574
 7936TIP3    H245224   2.693   1.950   5.890  0.1592  0.2206  0.0527
 7937TIP3   OH245225   2.882   3.617  13.270 -0.0740  0.1327 -0.7318
 7937TIP3    H145226   2.876   3.675  13.347  0.2709 -1.2356  0.3725
 7937TIP3    H245227   2.808   3.642  13.215 -2.1344 -0.7495  1.4386
 7938TIP3   OH245228   4.961   6.425  17.335 -0.0706 -0.1787  0.1805
 7938TIP3    H145229   4.916   6.497  17.381  1.7040  1.1944 -0.1093
 7938TIP3    H245230   4.954   6.448  17.243  0.5871 -0.3192  0.0916
 7939TIP3   OH245231   0.250   1.643  13.624  0.3184 -0.0739  0.0894
 7939TIP3    H145232   0.336   1.643  13.582  0.2809 -0.2695  0.0120
 7939TIP3    H245233   0.202   1.713  13.580  0.9592  1.1132  1.2086
 7940TIP3   OH245234   5.309   1.694  14.506 -0.2543  0.2011 -0.6466
 7940TIP3    H145235   5.383   1.634  14.497  0.7115  1.3942 -0.9610
 7940TIP3    H245236   5.295   1.728  14.417  1.0741  2.5228 -0.0690
 7941TIP3   OH245237   2.690   3.580  15.614 -0.3386  0.8126 -0.2777
 7941TIP3    H145238   2.630   3.653  15.634 -0.8630  0.6168 -1.0844
 7941TIP3    H245239   2.655   3.506  15.664  0.8428  1.3566  1.4444
 7942TIP3   OH245240   4.843   5.789  15.610  0.9182 -0.2892  0.2515
 7942TIP3    H145241   4.853   5.707  15.562  2.3118 -0.2213  0.3797
 7942TIP3    H245242   4.842   5.857  15.543  0.1289 -0.3791  0.1668
 7943TIP3   OH245243   2.085   0.364  10.907  0.0197  0.1761  0.1669
 7943TIP3    H145244   2.142   0.319  10.844 -1.8178 -1.9465 -0.0759
 7943TIP3    H245245   2.114   0.333  10.992 -2.5246 -3.4260 -0.0421
 7944TIP3   OH245246   1.089   1.596   0.847  0.7903  0.4848 -0.1860
 7944TIP3    H145247   1.151   1.553   0.789  0.2063  0.2837 -0.6681
 7944TIP3    H245248   1.013   1.614   0.792 -0.4434 -1.2026  0.8770
 7945TIP3   OH245249   0.483   2.773  10.534  0.1845 -0.0015  0.3314
 7945TIP3    H145250   0.480   2.820  10.617  0.5536 -1.0099  0.9359
 7945TIP3    H245251   0.571   2.792  10.499  0.3481 -0.2661  0.5933
 7946TIP3   OH245252   6.383   1.785   3.352 -0.1799 -0.1469  0.0091
 7946TIP3    H145253   6.434   1.708   3.377 -0.9188 -0.7091 -0.1647
 7946TIP3    H245254   6.331   1.756   3.277 -0.6600  0.4432  0.1048
 7947TIP3   OH245255   4.931   0.788  13.853  0.4952 -0.3512 -0.1012
 7947TIP3    H145256   5.001   0.813  13.793  1.1858  1.5448  1.3796
 7947TIP3    H245257   4.874   0.865  13.855 -0.2605 -0.9261  0.6076
 7948TIP3   OH245258   4.136   4.168  12.986  0.6009 -0.4299 -0.0407
 7948TIP3    H145259   4.183   4.233  13.037 -0.3600  0.8924 -0.7912
 7948TIP3    H245260   4.045   4.175  13.016  0.1004  0.0744 -1.5886
 7949TIP3   OH245261   4.166   2.265   4.176 -0.2065 -0.2976  0.2278
 7949TIP3    H145262   4.232   2.318   4.221  0.7087  0.3623 -1.7947
 7949TIP3    H245263   4.083   2.303   4.203  0.4020  1.6667 -0.4837
 7950TIP3   OH245264   0.161   2.621   5.514  0.2819  0.0951  0.1825
 7950TIP3    H145265   0.196   2.709   5.505  0.7691 -0.1894 -0.8562
 7950TIP3    H245266   0.237   2.566   5.534  0.1356 -0.2352 -0.1458
 7951TIP3   OH245267   5.008   3.228   0.849 -0.0338 -0.1373 -0.0746
 7951TIP3    H145268   4.975   3.244   0.761 -0.4961 -2.2675 -0.3544
 7951TIP3    H245269   4.931   3.233   0.906  0.3323  1.6745  0.3176
 7952TIP3   OH245270   1.700   0.081  13.340  0.2306 -0.1077  0.6302
 7952TIP3    H145271   1.724   0.055  13.430  0.0738 -1.3007  0.3526
 7952TIP3    H245272   1.763   0.150  13.318  1.4454 -1.0412  1.0234
 7953TIP3   OH245273   3.932   6.214  14.213 -0.1779  0.4108  0.3269
 7953TIP3    H145274   3.949   6.121  14.233 -2.0307  0.0917  0.6048
 7953TIP3    H245275   3.840   6.216  14.185  0.1723  2.0104 -0.8137
 7954TIP3   OH245276   0.673   2.432   4.924  0.3421 -0.0496 -0.1410
 7954TIP3    H145277   0.688   2.526   4.924 -0.4091  0.0813  0.5357
 7954TIP3    H245278   0.743   2.396   4.870  0.9626  0.8425  0.0569
 7955TIP3   OH245279   5.841   5.131  11.471 -0.2107  0.2372  0.4372
 7955TIP3    H145280   5.813   5.071  11.401  1.1571  1.8068 -1.6018
 7955TIP3    H245281   5.915   5.086  11.513 -0.6789 -0.4895  0.4995
 7956TIP3   OH245282   4.942   6.479   2.760  0.2145 -0.7347 -0.5251
 7956TIP3    H145283   4.846   6.482   2.756  0.0019 -0.7212  2.5763
 7956TIP3    H245284   4.963   6.386   2.754 -0.1033 -0.8537  0.1145
 7957TIP3   OH245285   1.861   2.667  11.088  0.6361 -0.0220  0.1692
 7957TIP3    H145286   1.890   2.686  10.999 -2.2136  1.3009 -0.6131
 7957TIP3    H245287   1.799   2.595  11.079 -0.1590  0.5288  0.9476
 7958TIP3   OH245288   2.517   0.952   5.805  0.0452  0.7085 -0.0428
 7958TIP3    H145289   2.509   0.905   5.722 -1.8006 -2.0110  1.5065
 7958TIP3    H245290   2.611   0.951   5.824  0.1567 -2.1048 -0.3212
 7959TIP3   OH245291   5.434   5.847  12.994 -0.2797 -0.1602 -0.7046
 7959TIP3    H145292   5.370   5.919  12.996 -0.2269 -0.1016  1.7095
 7959TIP3    H245293   5.424   5.804  13.079  3.6753  0.5659  0.3372
 7960TIP3   OH245294   1.657   0.475  16.474 -0.3958  0.1594  0.4595
 7960TIP3    H145295   1.594   0.424  16.524 -1.2692 -0.3356 -1.0877
 7960TIP3    H245296   1.609   0.554  16.449 -0.1755  0.1255 -0.0934
 7961TIP3   OH245297   3.247   2.742   5.563 -0.9345 -0.7314  0.1651
 7961TIP3    H145298   3.220   2.656   5.531 -1.5609 -0.4250 -0.1509
 7961TIP3    H245299   3.169   2.777   5.606 -0.9186 -0.0168 -0.3670
 7962TIP3   OH245300   3.290   6.590   0.546 -0.2030  0.0317  0.1380
 7962TIP3    H145301   3.222   6.539   0.591  0.4128  1.4300  2.8892
 7962TIP3    H245302   3.242   6.658   0.499 -0.7914  0.7137  1.6565
 7963TIP3   OH245303   4.350   5.134   2.443 -0.1653 -0.0514 -0.8752
 7963TIP3    H145304   4.398   5.181   2.375 -0.3410  0.2230 -0.8085
 7963TIP3    H245305   4.376   5.042   2.431 -0.8957 -0.1348 -1.8993
 7964TIP3   OH245306   1.967   1.076  16.957 -0.1093 -0.0573 -0.1524
 7964TIP3    H145307   1.900   1.142  16.972 -2.4077 -2.3468  0.3822
 7964TIP3    H245308   1.979   1.075  16.862 -1.3296 -0.0197 -0.3225
 7965TIP3   OH245309   1.632   4.369  14.997  0.1695  0.3006 -0.5775
 7965TIP3    H145310   1.602   4.376  14.907 -1.1318 -0.1472 -0.2099
 7965TIP3    H245311   1.616   4.456  15.034 -1.5380 -0.1464 -0.1652
 7966TIP3   OH245312   1.855   2.393  13.010  0.1833 -0.3467 -0.2635
 7966TIP3    H145313   1.839   2.300  12.993  0.2468 -0.4150  0.0441
 7966TIP3    H245314   1.950   2.402  13.006  0.5182 -1.0289  3.2704
 7967TIP3   OH245315   6.407   6.306  14.229 -0.1295  0.1369 -0.4279
 7967TIP3    H145316   6.494   6.325  14.265 -0.3189  1.8157 -0.7872
 7967TIP3    H245317   6.360   6.389  14.234 -1.8462 -0.8210  0.0601
 7968TIP3   OH245318   6.063   5.396  15.123 -0.0776  0.0105  0.1449
 7968TIP3    H145319   5.981   5.424  15.163 -1.2715 -2.1571 -0.6274
 7968TIP3    H245320   6.037   5.354  15.041  1.6913 -1.6089  0.3248
 7969TIP3   OH245321   0.671   3.667   3.358  0.0494  0.5813 -0.3730
 7969TIP3    H145322   0.611   3.607   3.402  1.5826  0.9121  2.4206
 7969TIP3    H245323   0.739   3.610   3.321  0.5219  0.4174  0.6838
 7970TIP3   OH245324   0.297   6.725  15.350  0.7129 -0.2386  0.1290
 7970TIP3    H145325   0.210   6.707  15.383  0.2785  2.3430  0.5812
 7970TIP3    H245326   0.352   6.655  15.387 -0.8044 -0.8286  1.3632
 7971TIP3   OH245327   4.825   1.516   3.657  0.3447 -0.1196  0.3587
 7971TIP3    H145328   4.849   1.462   3.582  0.1678  1.6327 -1.0335
 7971TIP3    H245329   4.745   1.561   3.630  2.1858  3.2872  0.0878
 7972TIP3   OH245330   4.757   0.877  14.719  0.5042 -0.4841 -0.1966
 7972TIP3    H145331   4.771   0.948  14.657  0.9036  0.4400  0.9040
 7972TIP3    H245332   4.838   0.825  14.715  0.6615 -0.2387 -0.2223
 7973TIP3   OH245333   0.361   4.263  15.079  0.1570 -0.0313 -0.6780
 7973TIP3    H145334   0.299   4.221  15.019 -1.4818  2.0271 -0.5207
 7973TIP3    H245335   0.444   4.218  15.062 -1.2333 -2.6185 -1.1957
 7974TIP3   OH245336   0.076   6.476  12.431 -0.3553  0.3621  0.1006
 7974TIP3    H145337   0.090   6.570  12.420  0.1486  0.5976  2.3437
 7974TIP3    H245338   0.150   6.435  12.385 -0.8951  0.9932 -1.3996
 7975TIP3   OH245339   5.783   6.503  15.614 -0.2320  0.0407 -0.0150
 7975TIP3    H145340   5.831   6.568  15.664 -1.6176  0.3297  0.9929
 7975TIP3    H245341   5.851   6.450  15.572  1.0687 -0.8281  2.9122
 7976TIP3   OH245342   1.870   1.632  13.679  0.0727 -0.0343  0.1207
 7976TIP3    H145343   1.871   1.568  13.750 -1.1112  0.7183  0.8335
 7976TIP3    H245344   1.949   1.685  13.694  0.3771 -0.5149  0.2589
 7977TIP3   OH245345   3.422   3.744  15.290  0.4651  0.3056  0.0371
 7977TIP3    H145346   3.364   3.679  15.329  0.0499  0.5750 -0.1336
 7977TIP3    H245347   3.508   3.702  15.290  0.5473  0.4158  1.5340
 7978TIP3   OH245348   6.443   2.725  12.293 -0.6250 -0.0515  0.2711
 7978TIP3    H145349   6.414   2.741  12.203  1.7809  1.6953 -0.2816
 7978TIP3    H245350   6.475   2.810  12.323  0.6379 -1.0854  2.0101
 7979TIP3   OH245351   0.335   0.154   1.161  0.9667  0.3599  0.1498
 7979TIP3    H145352   0.351   0.207   1.083 -0.5567  0.5356 -0.0590
 7979TIP3    H245353   0.277   0.208   1.215  0.8432 -0.3662  0.7538
 7980TIP3   OH245354   2.954   1.721  16.976  0.2541  0.0913  0.0413
 7980TIP3    H145355   3.032   1.772  16.953 -0.1468  1.1960  1.0369
 7980TIP3    H245356   2.958   1.712  17.072 -0.3075 -0.7416  0.0018
 7981TIP3   OH245357   2.125   2.075  13.037  0.4164  0.3937  0.5787
 7981TIP3    H145358   2.169   2.141  12.984 -1.3499 -0.3385 -2.0243
 7981TIP3    H245359   2.185   2.000  13.036 -0.2521 -0.2509 -2.1091
 7982TIP3   OH245360   3.386   3.443  11.216  0.0293  0.3597 -0.0194
 7982TIP3    H145361   3.336   3.425  11.136  0.0875 -1.1387  0.2471
 7982TIP3    H245362   3.401   3.356  11.255  1.4717  0.9123  0.7363
 7983TIP3   OH245363   3.917   2.221  12.926 -0.7832  0.0234  0.0146
 7983TIP3    H145364   3.970   2.145  12.902 -2.7766 -1.4224 -0.0822
 7983TIP3    H245365   3.885   2.200  13.014  0.9486  2.1336  1.2369
 7984TIP3   OH245366   3.961   5.413   6.439 -0.3160 -0.2058  0.4878
 7984TIP3    H145367   3.941   5.401   6.532 -2.0968 -1.0147  0.0434
 7984TIP3    H245368   4.055   5.397   6.432  0.0298  0.7747  2.2672
 7985TIP3   OH245369   3.170   4.348  12.449  0.1576  0.3751  0.9980
 7985TIP3    H145370   3.231   4.289  12.493  0.9255 -0.1408 -0.6702
 7985TIP3    H245371   3.172   4.429  12.501  1.2713 -0.0828  1.6936
 7986TIP3   OH245372   0.366   1.891   3.959 -0.4651 -0.0759  0.1994
 7986TIP3    H145373   0.347   1.803   3.990 -0.8871  0.0479  0.2994
 7986TIP3    H245374   0.460   1.890   3.938 -0.7283 -0.9173 -1.0234
 7987TIP3   OH245375   5.459   2.187  16.807  0.4239  0.5544  0.9466
 7987TIP3    H145376   5.374   2.165  16.844  0.6287  0.8400  1.5856
 7987TIP3    H245377   5.443   2.266  16.755 -0.3698 -1.1174 -1.5597
 7988TIP3   OH245378   4.077   3.275   2.762  0.2131 -0.2327 -0.4484
 7988TIP3    H145379   4.160   3.321   2.774  0.1284  0.4443 -2.1983
 7988TIP3    H245380   4.015   3.345   2.739 -1.4233 -0.3678  2.9392
 7989TIP3   OH245381   4.418   0.291   3.073 -0.0677 -0.2600 -0.2245
 7989TIP3    H145382   4.418   0.373   3.023 -0.1887 -1.0662 -1.6264
 7989TIP3    H245383   4.495   0.297   3.129 -0.2167  0.9123 -0.1124
 7990TIP3   OH245384   0.873   4.550  16.074  0.1494  0.0294  0.4998
 7990TIP3    H145385   0.859   4.461  16.043 -0.4247  0.4939 -0.6002
 7990TIP3    H245386   0.863   4.544  16.169 -1.8648 -0.7191  0.2773
 7991TIP3   OH245387   1.912   1.122  15.117  0.0564  0.4622  0.6824
 7991TIP3    H145388   1.974   1.178  15.163  0.3636 -0.4399  1.3918
 7991TIP3    H245389   1.967   1.066  15.062 -0.2008  0.3417  0.5479
 7992TIP3   OH245390   2.340   2.021  11.524 -0.5224 -0.1469 -0.1847
 7992TIP3    H145391   2.304   1.998  11.609 -0.8962  1.1702  0.0315
 7992TIP3    H245392   2.302   1.958  11.463  1.8152 -2.8827  0.9399
 7993TIP3   OH245393   0.154   2.791   1.880 -0.4755 -0.1496  0.2937
 7993TIP3    H145394   0.206   2.868   1.904 -1.1537 -0.1442  1.8317
 7993TIP3    H245395   0.068   2.808   1.918 -2.0148  0.3363 -3.0691
 7994TIP3   OH245396   4.984   2.437  11.489  0.7198 -0.3254 -0.3223
 7994TIP3    H145397   4.976   2.449  11.583 -0.1025 -1.0207 -0.2904
 7994TIP3    H245398   4.904   2.390  11.464  0.9810 -0.2443 -1.3424
 7995TIP3   OH245399   3.423   1.684  16.168  0.4508  0.0633 -0.4088
 7995TIP3    H145400   3.390   1.596  16.155 -0.3171  0.3007 -0.1167
 7995TIP3    H245401   3.346   1.740  16.160  0.9087  0.6981 -0.4669
 7996TIP3   OH245402   0.460   6.366   5.806  0.3976 -0.6404  0.6733
 7996TIP3    H145403   0.519   6.411   5.866 -0.5376  0.9176  0.4975
 7996TIP3    H245404   0.470   6.414   5.723 -1.9464  0.4470  0.9543
 7997TIP3   OH245405   1.646   6.711  15.144  0.0750 -0.0316 -0.5741
 7997TIP3    H145406   1.651   6.800  15.109  0.7105  0.0317 -0.3435
 7997TIP3    H245407   1.578   6.714  15.210 -0.8662 -0.0508 -1.5180
 7998TIP3   OH245408   3.635   1.729  17.121 -0.2567  0.8890 -0.1674
 7998TIP3    H145409   3.665   1.739  17.030 -2.7013  0.1786 -1.1478
 7998TIP3    H245410   3.673   1.803  17.167  2.3675  0.3964 -1.3706
 7999TIP3   OH245411   0.410   5.202   0.398  0.8368 -0.2823  0.0116
 7999TIP3    H145412   0.331   5.224   0.348  1.3941 -0.9713 -1.2164
 7999TIP3    H245413   0.464   5.281   0.392  0.5223 -0.0435  0.2928
 8000TIP3   OH245414   0.019   1.896  11.506  0.1359 -0.6047  0.2529
 8000TIP3    H145415  -0.006   1.839  11.433 -0.8753  0.0600  0.0592
 8000TIP3    H245416   0.104   1.863  11.534  1.0278 -0.2498 -1.8722
 8001TIP3   OH245417   5.172   5.543  13.730 -0.3411 -0.1990  0.3341
 8001TIP3    H145418   5.220   5.491  13.665 -1.5395  1.2949 -1.8446
 8001TIP3    H245419   5.239   5.596  13.773  0.2126  0.6081 -1.4533
 8002TIP3   OH245420   3.116   2.842   0.506 -0.0245 -0.0181  0.4622
 8002TIP3    H145421   3.069   2.784   0.566 -1.0614  0.4714  0.1461
 8002TIP3    H245422   3.153   2.909   0.562 -2.3668  1.3762  0.4699
 8003TIP3   OH245423   6.030   2.269   1.777 -0.2935 -0.3493 -0.3004
 8003TIP3    H145424   5.975   2.330   1.825  2.3169  0.9210  1.2653
 8003TIP3    H245425   5.975   2.240   1.703 -3.5083 -0.3556  1.9068
 8004TIP3   OH245426   5.676   5.699   0.237  0.2603  0.1061 -0.1399
 8004TIP3    H145427   5.603   5.638   0.226 -0.1544  0.3563  1.0588
 8004TIP3    H245428   5.748   5.644   0.270  0.8345 -0.2537 -1.9078
 8005TIP3   OH245429   3.253   1.630  11.542 -0.4362 -0.6390 -0.2047
 8005TIP3    H145430   3.327   1.672  11.499 -1.9944  0.9059 -1.5277
 8005TIP3    H245431   3.193   1.702  11.563 -1.1032 -1.7032  1.8714
 8006TIP3   OH245432   2.876   2.754   4.034 -0.2227  0.4541  0.5977
 8006TIP3    H145433   2.878   2.821   4.102  0.6187  1.8241 -0.7313
 8006TIP3    H245434   2.902   2.799   3.954 -1.4667 -1.0370 -0.7242
 8007TIP3   OH245435   5.390   1.536   2.471  0.2703 -0.1355 -0.2347
 8007TIP3    H145436   5.397   1.621   2.428 -1.0243 -1.1901 -2.7782
 8007TIP3    H245437   5.312   1.542   2.525  1.0209  0.7190  0.7877
 8008TIP3   OH245438   2.711   2.713  13.432 -0.4577 -0.4565 -0.0240
 8008TIP3    H145439   2.752   2.657  13.499 -0.8348 -1.5701 -0.6900
 8008TIP3    H245440   2.617   2.705  13.448 -0.5265 -0.2625 -0.3275
 8009TIP3   OH245441   6.197   4.724   1.465 -0.4277 -0.6573 -0.1195
 8009TIP3    H145442   6.110   4.690   1.486 -0.9154  0.2999 -0.5098
 8009TIP3    H245443   6.229   4.760   1.547 -0.3871 -1.0441  0.0338
 8010TIP3   OH245444   4.513   2.702   6.593 -0.5160 -0.1101  0.2087
 8010TIP3    H145445   4.561   2.774   6.553  1.2163 -1.2978  0.0598
 8010TIP3    H245446   4.422   2.733   6.597 -0.0840  1.4750 -1.2183
 8011TIP3   OH245447   5.125   4.697   3.134  0.0629 -0.6855 -0.1827
 8011TIP3    H145448   5.182   4.674   3.207 -0.0975  0.5611  0.3636
 8011TIP3    H245449   5.124   4.793   3.133  0.3172 -0.6544 -2.0329
 8012TIP3   OH245450   3.376   1.475   2.608 -0.0491 -0.0652 -0.3101
 8012TIP3    H145451   3.345   1.481   2.518 -1.9948  0.6147  0.3629
 8012TIP3    H245452   3.406   1.384   2.617 -0.4363 -0.3194 -1.4526
 8013TIP3   OH245453   3.102   6.539  10.469  0.0474 -0.7154  0.3388
 8013TIP3    H145454   3.063   6.593  10.538  1.0741  1.4786 -0.6917
 8013TIP3    H245455   3.035   6.536  10.401  0.4929  0.5055 -0.1824
 8014TIP3   OH245456   6.230   0.614  13.356 -0.2392 -0.0630  0.0548
 8014TIP3    H145457   6.255   0.644  13.269 -2.0509 -1.8438 -1.1898
 8014TIP3    H245458   6.213   0.694  13.406 -2.1548  1.0657 -2.2199
 8015TIP3   OH245459   4.303   1.567   2.580  0.1899 -0.2841  0.2856
 8015TIP3    H145460   4.272   1.544   2.492  2.0087  0.5381 -0.6259
 8015TIP3    H245461   4.245   1.519   2.639 -0.7137 -1.3304 -1.3697
 8016TIP3   OH245462   0.783   0.164   4.736  0.6563 -0.8944  0.0886
 8016TIP3    H145463   0.732   0.240   4.762 -1.1689 -2.3647  1.0739
 8016TIP3    H245464   0.742   0.134   4.655 -0.1813 -2.1254  0.9226
 8017TIP3   OH245465   2.077   0.049   1.743  0.2490  0.0350  0.1665
 8017TIP3    H145466   2.117   0.000   1.815 -0.4873  0.8117  1.1401
 8017TIP3    H245467   2.150   0.071   1.685  0.6497 -1.8792 -0.1289
 8018TIP3   OH245468   2.174   4.374  16.900  0.2529 -0.1187  0.3074
 8018TIP3    H145469   2.260   4.406  16.930 -0.3393  1.3712  0.4783
 8018TIP3    H245470   2.151   4.306  16.963  1.1477 -0.2993  0.4593
 8019TIP3   OH245471   6.524   5.775  13.462  0.4743 -0.5200  0.1480
 8019TIP3    H145472   6.516   5.724  13.381 -0.6971  1.1654 -0.8676
 8019TIP3    H245473   6.520   5.866  13.433  1.2630  0.1581  2.0168
 8020TIP3   OH245474   3.641   2.222   1.540 -0.2815 -0.1230  0.1546
 8020TIP3    H145475   3.562   2.254   1.582 -0.2885  1.4035 -0.9315
 8020TIP3    H245476   3.712   2.251   1.597 -0.4012  0.1675  0.1565
 8021TIP3   OH245477   3.084   2.215  14.865 -0.0324  0.2884 -0.6339
 8021TIP3    H145478   3.017   2.237  14.801  0.7630  1.1656 -1.1914
 8021TIP3    H245479   3.161   2.264  14.837  0.3541  0.6446  0.9481
 8022TIP3   OH245480   5.555   3.017  11.591  0.0879  0.1907 -0.4039
 8022TIP3    H145481   5.584   2.933  11.556 -1.1447 -0.4235 -0.0096
 8022TIP3    H245482   5.496   3.052  11.523  0.4659  0.6678 -0.4935
 8023TIP3   OH245483   6.070   1.566   5.778  0.4016 -0.0434 -0.7891
 8023TIP3    H145484   6.091   1.659   5.786  0.7318  0.0664 -2.4693
 8023TIP3    H245485   6.126   1.523   5.841  0.0383  0.9125  0.2161
 8024TIP3   OH245486   6.488   6.155   2.353 -0.2803 -1.0252 -0.4945
 8024TIP3    H145487   6.505   6.210   2.276 -1.0837 -1.4908 -1.0158
 8024TIP3    H245488   6.469   6.068   2.317  0.6173 -1.5690  0.3036
 8025TIP3   OH245489   4.617   1.245  12.764  0.1496 -0.1941 -0.3112
 8025TIP3    H145490   4.585   1.255  12.675  0.8261 -1.0960 -0.6679
 8025TIP3    H245491   4.563   1.305  12.816  0.4129  1.0657 -1.4617
 8026TIP3   OH245492   5.831   4.428  13.324 -0.0755  0.2065 -0.4298
 8026TIP3    H145493   5.866   4.426  13.413 -0.3954  2.0594 -0.2122
 8026TIP3    H245494   5.790   4.514  13.317 -1.7410 -0.6268 -1.7441
 8027TIP3   OH245495   3.961   5.733   3.592  0.7902 -0.5043 -0.0266
 8027TIP3    H145496   4.049   5.727   3.556  0.6949 -0.9422 -0.1912
 8027TIP3    H245497   3.968   5.799   3.661  1.0543  0.0699 -0.5962
 8028TIP3   OH245498   5.778   6.061   2.577 -0.6012 -0.0764  0.1301
 8028TIP3    H145499   5.728   5.980   2.580 -1.4885  0.4565  0.1229
 8028TIP3    H245500   5.869   6.033   2.583 -0.9106 -1.0441  0.5767
 8029TIP3   OH245501   5.706   4.055  12.358 -0.2988  0.1166 -0.2443
 8029TIP3    H145502   5.688   4.073  12.266  1.2312  0.6645 -0.4659
 8029TIP3    H245503   5.646   4.112  12.406  1.7356  3.0772 -0.9462
 8030TIP3   OH245504   5.490   5.642  14.351  0.1823 -0.6558 -0.5158
 8030TIP3    H145505   5.491   5.674  14.441  0.3038  1.9461 -1.3376
 8030TIP3    H245506   5.583   5.638  14.326  0.1453 -1.2721 -0.5706
 8031TIP3   OH245507   0.358   1.933   1.998  0.1958 -0.1483 -0.4053
 8031TIP3    H145508   0.381   1.855   2.048  0.9937  0.4939  0.2645
 8031TIP3    H245509   0.272   1.958   2.030  0.4613 -0.0634  0.2531
 8032TIP3   OH245510   1.684   3.121  10.492  0.1665  0.0087 -0.5209
 8032TIP3    H145511   1.596   3.112  10.454 -1.2574 -3.0568  2.8854
 8032TIP3    H245512   1.674   3.186  10.562  1.2513  1.2331 -1.4474
 8033TIP3   OH245513   6.549   5.518   5.467 -0.2712 -0.2497 -0.0644
 8033TIP3    H145514   6.498   5.462   5.408  0.6825 -0.1379 -1.0243
 8033TIP3    H245515   6.640   5.501   5.443  0.0960  0.4462  0.8025
 8034TIP3   OH245516   3.601   3.973   0.025  0.5983 -0.5298  0.0853
 8034TIP3    H145517   3.652   4.024  -0.038 -0.4743  0.9491  0.3712
 8034TIP3    H245518   3.610   3.882  -0.005  2.2517 -0.1640 -0.6548
 8035TIP3   OH245519   1.555   5.884   5.597  0.2297  0.2480 -0.0798
 8035TIP3    H145520   1.468   5.870   5.636  0.1713  0.2932 -0.1921
 8035TIP3    H245521   1.543   5.961   5.541  0.0191 -0.4828 -1.0690
 8036TIP3   OH245522   6.493   1.095   2.204  0.3966 -0.2234  0.4826
 8036TIP3    H145523   6.532   1.013   2.236  0.3160  0.8594  3.8087
 8036TIP3    H245524   6.567   1.156   2.199  0.3302 -0.2351 -1.1962
 8037TIP3   OH245525   4.121   0.384  13.859  0.5378  0.2663  0.2076
 8037TIP3    H145526   4.199   0.365  13.807  0.1762  2.7582 -1.4002
 8037TIP3    H245527   4.065   0.308  13.847  0.9482  0.2810 -2.2101
 8038TIP3   OH245528   6.177   0.128  15.915 -0.4604 -0.6629  0.2760
 8038TIP3    H145529   6.195   0.044  15.873  2.0489 -0.6599  1.2229
 8038TIP3    H245530   6.104   0.109  15.975 -1.5052 -1.5506 -1.1935
 8039TIP3   OH245531   5.003   3.133   2.121  0.3200 -0.7481 -0.1604
 8039TIP3    H145532   4.926   3.087   2.155  1.3562 -0.8315  2.3328
 8039TIP3    H245533   5.076   3.074   2.141  1.4411  1.0242  1.2067
 8040TIP3   OH245534   4.949   4.690  11.766  0.3268 -0.7258  0.0387
 8040TIP3    H145535   4.952   4.771  11.816 -0.7856  0.3009 -1.4615
 8040TIP3    H245536   4.856   4.668  11.763  0.5838 -1.9298  0.1685
 8041TIP3   OH245537   2.450   5.868  16.073  0.4330 -0.1722  0.4090
 8041TIP3    H145538   2.458   5.947  16.127  0.4088  0.1569 -0.0602
 8041TIP3    H245539   2.493   5.799  16.124 -0.3151 -0.0579  1.2126
 8042TIP3   OH245540   3.621   3.055  15.498  0.1780 -0.3039  0.2631
 8042TIP3    H145541   3.540   3.036  15.450 -1.4363  1.3924  2.1605
 8042TIP3    H245542   3.642   2.973  15.543 -1.1326 -0.4574  0.6263
 8043TIP3   OH245543   0.583   4.877  12.571 -0.0610  0.0104  0.1889
 8043TIP3    H145544   0.553   4.968  12.559  3.0263  1.1532  0.3964
 8043TIP3    H245545   0.672   4.876  12.537  0.4202 -2.6774  1.2914
 8044TIP3   OH245546   6.254   2.887   0.194  0.3136  0.2556  0.2631
 8044TIP3    H145547   6.193   2.828   0.239  2.2777 -0.5594  2.0528
 8044TIP3    H245548   6.199   2.938   0.134 -1.7473 -2.0262  0.0614
 8045TIP3   OH245549   0.141   1.804  12.157  0.3228 -0.1322 -0.1795
 8045TIP3    H145550   0.157   1.777  12.248 -0.1524 -0.0051 -0.0557
 8045TIP3    H245551   0.225   1.790  12.113  0.5244 -0.3060  0.2518
 8046TIP3   OH245552   3.134   5.290   6.712 -0.2445 -0.1951  0.0757
 8046TIP3    H145553   3.163   5.326   6.796 -1.8744  0.1835  0.5097
 8046TIP3    H245554   3.184   5.208   6.703  0.5755  0.1845  0.9879
 8047TIP3   OH245555   5.842   4.960   3.151 -0.1800 -0.3830  0.2545
 8047TIP3    H145556   5.852   4.896   3.080 -0.5342 -0.1151 -0.0431
 8047TIP3    H245557   5.750   4.985   3.147  0.0907  0.6128 -0.0406
 8048TIP3   OH245558   0.841   5.193   1.882  0.5768 -0.2113 -0.2685
 8048TIP3    H145559   0.841   5.250   1.805  1.3482  0.3658  0.1420
 8048TIP3    H245560   0.771   5.227   1.937  1.8185  1.1634  0.5391
 8049TIP3   OH245561   5.166   4.239   0.099  0.0982  0.0900 -0.1347
 8049TIP3    H145562   5.190   4.166   0.041  2.3021  1.2254 -0.7457
 8049TIP3    H245563   5.117   4.299   0.043 -1.2802 -0.6135  0.2489
 8050TIP3   OH245564   4.197   2.222  15.599 -1.9175 -0.3461  0.1876
 8050TIP3    H145565   4.146   2.167  15.540 -0.1591 -1.7076 -0.1719
 8050TIP3    H245566   4.270   2.254  15.546 -0.6042 -1.1325  1.4275
 8051TIP3   OH245567   5.026   4.317   5.533 -0.1056 -0.1065 -0.5448
 8051TIP3    H145568   5.015   4.301   5.627  3.9668  0.7108  0.2255
 8051TIP3    H245569   5.031   4.413   5.526  2.7008 -0.2180 -1.0301
 8052TIP3   OH245570   4.260   3.438  14.586 -0.5332 -0.3531 -0.2796
 8052TIP3    H145571   4.261   3.343  14.576 -0.7458 -0.3108 -0.7342
 8052TIP3    H245572   4.297   3.454  14.673  0.7529 -0.7823 -0.7206
 8053TIP3   OH245573   5.430   3.878  17.382 -0.0846  0.0606  0.5494
 8053TIP3    H145574   5.422   3.820  17.458  0.3558 -0.4981  0.1744
 8053TIP3    H245575   5.524   3.893  17.372 -0.0743 -0.5674 -0.4001
 8054TIP3   OH245576   1.204   4.255   4.673 -0.3978 -0.2042  0.0046
 8054TIP3    H145577   1.238   4.166   4.687  0.6138  0.2887  0.7338
 8054TIP3    H245578   1.279   4.312   4.688 -0.7645  0.7386 -1.4876
 8055TIP3   OH245579   1.121   3.331   1.705 -0.1543 -0.1795 -0.0482
 8055TIP3    H145580   1.061   3.304   1.636 -0.3727 -2.1446  0.8142
 8055TIP3    H245581   1.200   3.278   1.691  0.5036  0.7242  0.1519
 8056TIP3   OH245582   0.718   0.447  15.651  0.3112 -0.0386 -0.2119
 8056TIP3    H145583   0.755   0.362  15.631  1.1061  0.8136 -2.8078
 8056TIP3    H245584   0.638   0.452  15.598  0.9772  1.2803 -1.1689
 8057TIP3   OH245585   6.671   0.594   5.373 -0.0612 -0.2998  0.1123
 8057TIP3    H145586   6.615   0.592   5.296  0.7595 -1.1181 -0.4904
 8057TIP3    H245587   6.718   0.510   5.371  2.4120  0.9927 -0.3277
 8058TIP3   OH245588   3.094   3.770   0.817  0.0292 -0.0798 -0.6593
 8058TIP3    H145589   3.139   3.749   0.736  0.6972 -1.0051 -0.0641
 8058TIP3    H245590   3.072   3.685   0.856  3.8850  0.0107  2.4118
 8059TIP3   OH245591   4.882   6.559  17.074  0.6634  0.1231  0.2342
 8059TIP3    H145592   4.891   6.539  16.981 -2.8474 -1.0759  0.0217
 8059TIP3    H245593   4.832   6.640  17.077  1.4060  0.5706  1.1284
 8060TIP3   OH245594   1.467   4.493   4.611  0.2909  0.0653 -0.2194
 8060TIP3    H145595   1.445   4.562   4.674 -0.2721 -0.7986  0.5388
 8060TIP3    H245596   1.550   4.522   4.573 -0.3579  1.6022 -0.5658
 8061TIP3   OH245597   2.974   0.744  17.072 -0.3289  0.2543  0.8374
 8061TIP3    H145598   3.030   0.691  17.129  2.8299  2.6409  0.2419
 8061TIP3    H245599   2.972   0.696  16.989 -0.8545 -0.8212  1.4524
 8062TIP3   OH245600   2.232   4.564   3.999  0.3914 -0.0423  0.1684
 8062TIP3    H145601   2.267   4.558   4.088  0.7756  2.0633  0.2008
 8062TIP3    H245602   2.307   4.548   3.943  0.2277 -0.9764  0.1895
 8063TIP3   OH245603   3.876   0.158   0.416  0.0785 -0.0363 -0.0200
 8063TIP3    H145604   3.959   0.168   0.462  1.2688 -2.5791 -1.3796
 8063TIP3    H245605   3.842   0.074   0.447 -0.5753 -0.3434 -1.4837
 8064TIP3   OH245606   5.132   0.875  15.338 -0.0284 -0.0377 -0.6012
 8064TIP3    H145607   5.056   0.900  15.286 -1.0965  0.9729  1.3546
 8064TIP3    H245608   5.121   0.781  15.352 -2.0559  0.3949  1.2734
 8065TIP3   OH245609   2.427   3.471   1.505 -0.2138  0.0049 -0.3501
 8065TIP3    H145610   2.350   3.435   1.461 -0.9705  0.4182  0.6061
 8065TIP3    H245611   2.494   3.475   1.437 -0.3030 -2.5296 -0.6629
 8066TIP3   OH245612   5.534   0.850   0.882 -0.2445  0.4245 -0.5784
 8066TIP3    H145613   5.542   0.824   0.790  0.1901  1.7652 -0.9456
 8066TIP3    H245614   5.518   0.768   0.929 -1.9210 -0.1349 -1.9973
 8067TIP3   OH245615   3.205   6.169   2.342  0.9600  0.5453  0.2369
 8067TIP3    H145616   3.226   6.242   2.400 -0.2496 -0.0982  1.5335
 8067TIP3    H245617   3.114   6.184   2.317  0.9354 -0.1297 -0.0999
 8068TIP3   OH245618   3.319   1.042  14.729  0.1427 -0.3303 -0.8859
 8068TIP3    H145619   3.258   1.098  14.681 -0.2945  0.2458  0.3140
 8068TIP3    H245620   3.373   1.002  14.660 -0.0459  0.9586 -1.8309
 8069TIP3   OH245621   3.954   2.133   5.683 -0.1495 -0.3452  0.2203
 8069TIP3    H145622   4.015   2.063   5.706  1.4681  0.6334 -0.8659
 8069TIP3    H245623   4.010   2.210   5.673 -1.3665  0.3270 -2.0570
 8070TIP3   OH245624   2.564   5.994   4.133 -0.3545  0.1840  0.2832
 8070TIP3    H145625   2.472   5.995   4.107  0.0999 -0.1544 -1.4595
 8070TIP3    H245626   2.596   5.908   4.106  0.7279  0.6837 -0.1059
 8071TIP3   OH245627   2.187   5.886  13.821 -0.2333 -0.1970  0.0134
 8071TIP3    H145628   2.196   5.977  13.851  0.1153 -0.1340 -0.2804
 8071TIP3    H245629   2.275   5.850  13.827 -0.1002 -0.1035 -1.1752
 8072TIP3   OH245630   2.329   5.907   4.365  0.0049 -0.1390  0.3344
 8072TIP3    H145631   2.299   5.915   4.456 -1.2126  0.7111 -0.1275
 8072TIP3    H245632   2.390   5.832   4.367 -1.7317 -1.6113  1.4297
 8073TIP3   OH245633   4.347   3.110   2.987  0.0771  0.0367 -0.3571
 8073TIP3    H145634   4.400   3.160   3.049  1.6465 -0.1273 -1.5105
 8073TIP3    H245635   4.298   3.048   3.041  0.6848  0.5225  0.7838
 8074TIP3   OH245636   6.419   1.182   4.438 -1.0531 -0.0842 -0.0499
 8074TIP3    H145637   6.357   1.227   4.495 -1.7223 -2.5550  1.3063
 8074TIP3    H245638   6.488   1.151   4.497 -1.6935 -2.5930 -0.5066
 8075TIP3   OH245639   1.550   3.567   4.866 -0.2753 -0.1388  0.2152
 8075TIP3    H145640   1.561   3.580   4.961  1.0573 -0.5133  0.1289
 8075TIP3    H245641   1.474   3.508   4.859 -1.0696  0.7600  0.9840
 8076TIP3   OH245642   4.369   3.550  12.791  0.3717  0.0979 -0.5519
 8076TIP3    H145643   4.413   3.529  12.709  0.2323  0.1682 -0.6456
 8076TIP3    H245644   4.336   3.466  12.822 -0.2607  0.1816 -0.9702
 8077TIP3   OH245645   2.601   4.534   5.219  0.2309  0.0855 -0.2220
 8077TIP3    H145646   2.616   4.536   5.124  0.4869  0.0092 -0.1833
 8077TIP3    H245647   2.682   4.567   5.257  0.0682  0.2768 -0.0333
 8078TIP3   OH245648   1.032   2.921   1.757 -0.1533 -0.1225 -0.2905
 8078TIP3    H145649   1.090   2.996   1.774 -1.0907  0.4570  0.4219
 8078TIP3    H245650   0.984   2.909   1.839 -0.1579 -1.3929 -0.4641
 8079TIP3   OH245651   4.137   3.244  11.573 -0.0140 -0.0167  0.0205
 8079TIP3    H145652   4.214   3.288  11.610 -0.1686 -1.2925  2.0107
 8079TIP3    H245653   4.079   3.230  11.648 -2.0823  0.6102 -1.3629
 8080TIP3   OH245654   3.948   0.446  17.410 -0.4611 -0.8885 -0.4022
 8080TIP3    H145655   3.922   0.379  17.474 -2.6894 -0.6320 -0.9766
 8080TIP3    H245656   4.039   0.465  17.432 -0.2547 -2.9206  0.8144
 8081TIP3   OH245657   4.641   4.842   0.720 -0.5172  0.3025  0.2573
 8081TIP3    H145658   4.595   4.762   0.697 -0.6405 -0.1718  2.0330
 8081TIP3    H245659   4.610   4.907   0.657 -0.4756 -1.0081 -1.1510
 8082TIP3   OH245660   3.541   0.903  16.641  0.8933  0.2436  0.2411
 8082TIP3    H145661   3.553   0.808  16.651 -1.6076  0.0505  2.7124
 8082TIP3    H245662   3.467   0.912  16.582  0.2155  0.5641  1.1177
 8083TIP3   OH245663   2.113   1.874   4.932  0.4227 -0.3038  0.0399
 8083TIP3    H145664   2.129   1.879   4.837  0.1650 -0.6982 -0.0280
 8083TIP3    H245665   2.127   1.963   4.963  0.2136 -0.1065 -0.4173
 8084TIP3   OH245666   5.044   6.271  11.144 -0.5654 -0.0045  0.6483
 8084TIP3    H145667   5.026   6.238  11.232 -0.4991 -0.1226  0.6172
 8084TIP3    H245668   4.959   6.300  11.111 -0.8489 -1.3017  0.1916
 8085TIP3   OH245669   5.110   0.423   5.741  0.1055  0.0085  0.0425
 8085TIP3    H145670   5.102   0.329   5.725 -1.7877  0.2336 -0.6276
 8085TIP3    H245671   5.052   0.439   5.816  0.3345  0.6544  0.0860
 8086TIP3   OH245672   6.605   1.824   2.188  0.0212 -0.1099 -0.4615
 8086TIP3    H145673   6.651   1.893   2.235  1.1070 -0.0577 -1.5335
 8086TIP3    H245674   6.535   1.797   2.247  1.2666 -0.0064  1.1305
 8087TIP3   OH245675   0.993   6.390   1.418  0.3574  0.1967  0.0738
 8087TIP3    H145676   0.956   6.350   1.497 -0.0535  1.9959  0.8542
 8087TIP3    H245677   1.083   6.358   1.414  0.7462  0.9174  1.9346
 8088TIP3   OH245678   5.232   2.875   5.597 -0.2580 -0.7580 -0.0856
 8088TIP3    H145679   5.145   2.849   5.565 -0.0382 -0.7853 -0.6708
 8088TIP3    H245680   5.247   2.818   5.673 -0.6289 -0.9492 -0.1512
 8089TIP3   OH245681   5.149   6.352   0.150  0.0043  0.3761  0.3070
 8089TIP3    H145682   5.244   6.338   0.153  0.0722  0.8903  0.7493
 8089TIP3    H245683   5.135   6.401   0.069  0.4538  2.5212  1.4410
 8090TIP3   OH245684   1.626   1.664   3.931 -0.0968  0.5262  0.0387
 8090TIP3    H145685   1.706   1.612   3.935 -0.4404  0.0448  1.1497
 8090TIP3    H245686   1.655   1.755   3.939  0.3097  0.3243  1.0177
 8091TIP3   OH245687   6.412   1.210   4.163  0.2874  0.1386  0.3910
 8091TIP3    H145688   6.383   1.212   4.254  0.3733  2.9100  0.4177
 8091TIP3    H245689   6.508   1.209   4.168  0.2981 -1.2712  0.2922
 8092TIP3   OH245690   0.673   4.392  11.394  0.1709  0.4014  0.0940
 8092TIP3    H145691   0.764   4.415  11.372  0.3019 -0.3919 -0.2411
 8092TIP3    H245692   0.668   4.402  11.489  0.6768  0.2190  0.1414
 8093TIP3   OH245693   4.724   2.110  15.530  0.3372 -0.0557  0.4566
 8093TIP3    H145694   4.809   2.080  15.564  0.1626  1.1384  2.0878
 8093TIP3    H245695   4.747   2.175  15.463  0.7442  0.7523  1.3519
 8094TIP3   OH245696   5.071   5.735  11.877 -0.3910  0.6932  0.1280
 8094TIP3    H145697   5.013   5.677  11.926  0.3775 -0.7315 -0.5823
 8094TIP3    H245698   5.065   5.705  11.786  3.8593 -1.8254  0.4022
 8095TIP3   OH245699   5.560   3.072   0.161 -0.0708  0.3891  0.1033
 8095TIP3    H145700   5.594   3.143   0.106 -0.1495  0.8776  0.6733
 8095TIP3    H245701   5.541   3.001   0.099  0.7725  0.5656 -0.3790
 8096TIP3   OH245702   1.218   0.803  14.591 -0.5534  0.0386  0.2146
 8096TIP3    H145703   1.193   0.888  14.625 -1.4957 -0.6667  1.3771
 8096TIP3    H245704   1.135   0.759  14.574 -0.0819 -0.6911 -0.2545
 8097TIP3   OH245705   4.192   5.220   4.133 -0.2822  0.3642  0.5009
 8097TIP3    H145706   4.273   5.250   4.174  0.2932 -0.7031  0.1940
 8097TIP3    H245707   4.221   5.176   4.053 -1.2272  0.6108  0.0068
 8098TIP3   OH245708   6.134   6.035   1.022 -0.1586 -0.0005 -0.2708
 8098TIP3    H145709   6.188   5.977   1.077 -1.7135 -2.2463 -0.9849
 8098TIP3    H245710   6.062   6.062   1.078  0.3715  1.0221 -0.0505
 8099TIP3   OH245711   4.316   6.122   5.011  0.5541 -0.5245 -0.0437
 8099TIP3    H145712   4.247   6.176   5.050  2.3343  1.3671  0.6586
 8099TIP3    H245713   4.300   6.034   5.045 -0.6268  0.1745  1.3155
 8100TIP3   OH245714   1.357   3.276   5.615  0.2370 -0.0787 -0.0692
 8100TIP3    H145715   1.301   3.199   5.625 -0.0538  0.1933  0.4838
 8100TIP3    H245716   1.300   3.350   5.639  0.7028  0.2423  0.0549
 8101TIP3   OH245717   1.557   0.842   0.690  0.2916  0.1600 -0.2703
 8101TIP3    H145718   1.569   0.769   0.630  0.7883 -0.1834  0.2362
 8101TIP3    H245719   1.503   0.905   0.641 -3.6699 -2.1963  0.6456
 8102TIP3   OH245720   4.914   6.168   3.954  0.0538 -0.4515  0.1661
 8102TIP3    H145721   4.866   6.181   3.873 -0.0149  0.8489  0.3924
 8102TIP3    H245722   4.959   6.084   3.943  0.3746 -0.1047 -1.3814
 8103TIP3   OH245723   3.256   4.359  13.364  0.1858  0.1996 -0.0290
 8103TIP3    H145724   3.336   4.305  13.370 -0.1145 -0.1094  1.7502
 8103TIP3    H245725   3.185   4.295  13.372 -0.1928  0.6853  0.5254
 8104TIP3   OH245726   1.621   0.718  13.065  0.0805 -0.9569 -0.2311
 8104TIP3    H145727   1.603   0.786  13.130  0.9241 -2.9104  2.1925
 8104TIP3    H245728   1.549   0.656  13.074  1.0164 -2.0354 -0.0486
 8105TIP3   OH245729   2.600   3.403   3.089 -0.0915  0.0034 -0.2924
 8105TIP3    H145730   2.572   3.471   3.028  1.9718  1.3149  0.1434
 8105TIP3    H245731   2.518   3.360   3.116 -1.3161  1.3710 -1.6363
 8106TIP3   OH245732   6.014   5.701  13.143 -0.8675  0.3224 -0.0866
 8106TIP3    H145733   6.005   5.792  13.115  0.0319  0.4129 -0.1093
 8106TIP3    H245734   5.961   5.695  13.223  1.0858  1.5697  1.4108
 8107TIP3   OH245735   4.539   3.067  14.766 -0.2291 -0.4064 -0.2350
 8107TIP3    H145736   4.505   3.015  14.693  1.0281 -1.3107 -0.2186
 8107TIP3    H245737   4.625   3.027  14.786 -0.0282  0.5582  0.9626
 8108TIP3   OH245738   2.100   0.270  13.805  0.1278  0.3284  0.1091
 8108TIP3    H145739   2.101   0.178  13.830 -0.2548  0.4010  0.4130
 8108TIP3    H245740   2.166   0.278  13.736 -0.6663 -0.4076 -0.7583
 8109TIP3   OH245741   1.063   0.890   1.274  0.0421  0.0512 -0.4282
 8109TIP3    H145742   1.077   0.844   1.191  0.8720 -0.7155  0.1137
 8109TIP3    H245743   1.046   0.980   1.249  0.3565 -0.1608 -1.4406
 8110TIP3   OH245744   4.646   4.537   4.869 -0.0129  0.7708 -0.0716
 8110TIP3    H145745   4.737   4.558   4.888 -0.0779 -0.0764  1.3430
 8110TIP3    H245746   4.632   4.452   4.910 -2.1283  2.0340  2.0851
 8111TIP3   OH245747   4.181   0.425  12.971  0.1465 -0.3104  0.3856
 8111TIP3    H145748   4.237   0.356  13.007  0.7312 -0.1820 -0.2536
 8111TIP3    H245749   4.195   0.420  12.876 -0.5349  0.0633  0.2629
 8112TIP3   OH245750   1.132   5.141   1.694  0.3504  0.1098  0.1248
 8112TIP3    H145751   1.045   5.134   1.733  0.4500 -0.7293  0.2129
 8112TIP3    H245752   1.192   5.141   1.768  0.5033 -0.8706  0.0206
 8113TIP3   OH245753   1.013   6.326  16.565 -0.1296  0.0549  0.0060
 8113TIP3    H145754   1.033   6.392  16.499 -1.6758 -0.4188 -0.9843
 8113TIP3    H245755   1.021   6.372  16.649  2.4475  0.5143 -0.4045
 8114TIP3   OH245756   2.836   0.975  12.417 -0.2397 -0.3323  0.7931
 8114TIP3    H145757   2.883   1.057  12.402 -0.1695 -0.6005 -0.6144
 8114TIP3    H245758   2.827   0.936  12.330  1.8001 -2.9797  1.6196
 8115TIP3   OH245759   3.605   1.137  12.854  0.2990  0.1551 -0.4892
 8115TIP3    H145760   3.609   1.145  12.950  1.0441  1.2966 -0.5935
 8115TIP3    H245761   3.552   1.059  12.839 -1.4088  0.9821  0.8431
 8116TIP3   OH245762   4.553   6.768   5.239 -0.2390 -0.2168  0.0635
 8116TIP3    H145763   4.463   6.800   5.237 -0.5316 -0.9748  0.8597
 8116TIP3    H245764   4.580   6.775   5.330  0.9600  1.1844 -0.3548
 8117TIP3   OH245765   2.153   4.287  10.948  0.3177 -0.4721 -0.2286
 8117TIP3    H145766   2.110   4.212  10.907 -2.2078 -0.1542  1.6314
 8117TIP3    H245767   2.216   4.316  10.882 -0.4583 -2.6042 -2.0661
 8118TIP3   OH245768   0.252   2.079   1.049  0.4260 -0.8179  0.4030
 8118TIP3    H145769   0.243   2.022   0.973  1.0855 -2.5010  1.5432
 8118TIP3    H245770   0.319   2.142   1.023 -1.2399  0.3404 -1.3529
 8119TIP3   OH245771   6.260   2.124  14.796 -0.1243 -0.1615 -0.1868
 8119TIP3    H145772   6.276   2.030  14.801 -0.5656 -0.2701 -0.7152
 8119TIP3    H245773   6.263   2.144  14.703  0.0880  0.3744 -0.0701
 8120TIP3   OH245774   0.854   1.239  12.110 -0.0798  0.2431  0.1047
 8120TIP3    H145775   0.881   1.151  12.088 -0.8763 -0.2182  0.8749
 8120TIP3    H245776   0.780   1.227  12.170  1.2296  1.3876  2.0650
 8121TIP3   OH245777   3.036   1.636   5.175 -0.0427  0.3040 -0.2325
 8121TIP3    H145778   3.070   1.636   5.086  0.5724 -0.7687 -0.0202
 8121TIP3    H245779   3.112   1.618   5.230 -0.8932 -2.3705  0.2499
 8122TIP3   OH245780   4.887   4.556  13.923  0.2286 -0.1319  0.4092
 8122TIP3    H145781   4.873   4.461  13.924 -3.8886  0.2967  2.0578
 8122TIP3    H245782   4.852   4.584  13.838  1.5809 -0.0086 -0.1421
 8123TIP3   OH245783   4.277   5.693   0.790  0.1601  0.7025  0.2315
 8123TIP3    H145784   4.218   5.700   0.715  0.4545  2.4236  0.1264
 8123TIP3    H245785   4.364   5.705   0.752  0.4942 -0.4987  0.5765
 8124TIP3   OH245786   5.392   2.268   4.260  0.5186  0.7817  0.1461
 8124TIP3    H145787   5.412   2.274   4.166 -0.4585  1.2170 -0.0366
 8124TIP3    H245788   5.470   2.302   4.303  1.9014 -1.4496 -0.4275
 8125TIP3   OH245789   1.866   1.728   1.228  0.5618 -0.8854  0.0666
 8125TIP3    H145790   1.857   1.635   1.211  0.4504 -0.8881  0.1366
 8125TIP3    H245791   1.942   1.735   1.286  2.7229 -0.6257 -2.6318
 8126TIP3   OH245792   0.470   0.915  16.329  0.0770 -0.2255  0.2664
 8126TIP3    H145793   0.401   0.850  16.340 -0.4716  0.0247 -1.4100
 8126TIP3    H245794   0.538   0.870  16.278  0.2034  0.1580  0.0916
 8127TIP3   OH245795   6.276   0.707   1.932  0.3101  0.5258  0.3868
 8127TIP3    H145796   6.230   0.761   1.996  0.6253 -0.1786  1.2194
 8127TIP3    H245797   6.288   0.765   1.856  0.0511  1.4104  1.0058
 8128TIP3   OH245798   1.556   2.693  11.402  0.0101 -0.3778  0.5494
 8128TIP3    H145799   1.538   2.678  11.495  1.2829 -0.2382  0.8402
 8128TIP3    H245800   1.648   2.668  11.392  0.8207  2.4988  0.0001
 8129TIP3   OH245801   6.477   4.127  16.862  0.3913 -0.5241  0.2364
 8129TIP3    H145802   6.519   4.155  16.780 -1.7773  0.5792 -0.5789
 8129TIP3    H245803   6.439   4.042  16.842 -0.7584  0.0623 -0.1897
 8130TIP3   OH245804   3.933   3.842   4.419  0.2975  0.9625 -0.0487
 8130TIP3    H145805   3.920   3.766   4.363 -2.5994  1.3448 -0.0189
 8130TIP3    H245806   4.026   3.839   4.443  0.6693 -1.4750 -1.5508
 8131TIP3   OH245807   4.522   2.641  12.757  0.2420 -0.0577 -0.2082
 8131TIP3    H145808   4.576   2.720  12.755 -0.8398  0.7007 -1.1161
 8131TIP3    H245809   4.536   2.599  12.672  0.1526 -0.3721 -0.0703
 8132TIP3   OH245810   3.029   3.734   2.696 -0.2638 -0.5632 -0.7323
 8132TIP3    H145811   3.014   3.640   2.701 -0.5356 -0.4830  0.2451
 8132TIP3    H245812   2.956   3.768   2.644  0.7296 -1.0626 -2.5556
 8133TIP3   OH245813   1.166   4.650   3.107 -0.7168  0.1247 -0.3743
 8133TIP3    H145814   1.261   4.653   3.120 -0.3821 -0.0007 -2.4812
 8133TIP3    H245815   1.132   4.721   3.161  0.9065  2.2033 -1.9258
 8134TIP3   OH245816   1.335   6.667   3.792  0.0234 -0.2731  0.3163
 8134TIP3    H145817   1.272   6.738   3.803  0.6965  0.4433 -0.2904
 8134TIP3    H245818   1.408   6.690   3.849  0.5161 -0.1371 -0.3568
 8135TIP3   OH245819   2.854   3.058  15.571 -0.0257 -0.5253 -0.5420
 8135TIP3    H145820   2.809   3.125  15.520  0.0976 -0.1293 -0.1466
 8135TIP3    H245821   2.909   3.108  15.631 -1.8396 -0.8911  1.5470
 8136TIP3   OH245822   1.847   6.334   2.832 -0.5546 -0.2766  0.3288
 8136TIP3    H145823   1.762   6.304   2.802 -0.3002 -1.7309  0.9431
 8136TIP3    H245824   1.877   6.395   2.764 -1.3111 -1.1119 -0.7979
 8137TIP3   OH245825   0.994   2.255  15.131 -0.3032  0.2426  0.6584
 8137TIP3    H145826   0.996   2.321  15.062  0.4934  1.6826  1.9759
 8137TIP3    H245827   0.964   2.175  15.088  2.9260  0.2753 -1.9910
 8138TIP3   OH245828   5.761   6.705  17.272  0.3196 -0.4655  0.2003
 8138TIP3    H145829   5.854   6.711  17.295 -0.1267 -0.0836  2.0177
 8138TIP3    H245830   5.715   6.716  17.354 -1.3576 -0.8253 -0.6498
 8139TIP3   OH245831   0.570   0.998   5.029 -0.2197 -0.6312 -0.2770
 8139TIP3    H145832   0.503   1.014   5.096  1.3951  1.4101  0.9994
 8139TIP3    H245833   0.560   1.070   4.967  0.6738 -0.3775 -0.1457
 8140TIP3   OH245834   4.401   6.601  14.710 -0.2751  0.7955 -0.0659
 8140TIP3    H145835   4.350   6.544  14.767  0.7251  0.8926  0.9444
 8140TIP3    H245836   4.360   6.687  14.718 -1.3574  0.3903 -1.0553
 8141TIP3   OH245837   5.386   4.452  14.633  0.0436  0.3180  0.1060
 8141TIP3    H145838   5.465   4.405  14.605 -0.3337 -0.4389  0.2715
 8141TIP3    H245839   5.333   4.458  14.554 -0.1232  0.0183  0.1937
 8142TIP3   OH245840   2.613   6.344   2.710 -0.4547  0.2711 -0.2380
 8142TIP3    H145841   2.548   6.308   2.771 -0.2408  0.6550  0.2172
 8142TIP3    H245842   2.627   6.434   2.740 -1.8667  1.1864 -2.0597
 8143TIP3   OH245843   5.207   5.169   6.347  0.1672 -0.8799 -0.1347
 8143TIP3    H145844   5.204   5.107   6.420 -0.8480 -1.0787 -0.3256
 8143TIP3    H245845   5.204   5.255   6.389 -1.8015 -0.9924  0.0593
 8144TIP3   OH245846   1.700   4.245  10.504 -0.5297  0.5403 -0.2134
 8144TIP3    H145847   1.772   4.250  10.567 -1.9463  1.2751  1.4312
 8144TIP3    H245848   1.670   4.336  10.496 -1.7906  0.1300 -0.2418
 8145TIP3   OH245849   6.452   5.635   5.907  0.3226  0.3780 -0.4283
 8145TIP3    H145850   6.386   5.685   5.956 -1.0055 -1.3190 -0.3803
 8145TIP3    H245851   6.525   5.626   5.968  0.3356  1.7053 -0.2239
 8146TIP3   OH245852   5.863   2.519  11.076  0.0591 -0.8516  0.3654
 8146TIP3    H145853   5.871   2.604  11.119  0.0738 -0.9674  0.5907
 8146TIP3    H245854   5.842   2.541  10.985  0.0455 -0.6068  0.4253
 8147TIP3   OH245855   1.679   0.670  13.541  0.1933  0.1209 -0.6758
 8147TIP3    H145856   1.680   0.763  13.518  1.6606  1.1383  2.8138
 8147TIP3    H245857   1.594   0.657  13.584 -0.9965 -0.8405 -3.1412
 8148TIP3   OH245858   3.306   3.508  17.146  0.0148 -0.1936  0.0643
 8148TIP3    H145859   3.248   3.432  17.146  0.3416 -0.4467  0.2605
 8148TIP3    H245860   3.375   3.485  17.208 -0.0978  0.4289  0.4278
 8149TIP3   OH245861   1.528   0.607   4.636  0.1468  0.3140  0.3216
 8149TIP3    H145862   1.623   0.614   4.629  0.2313 -0.8734  0.1083
 8149TIP3    H245863   1.505   0.665   4.709  1.2359 -0.7457  1.5408
 8150TIP3   OH245864   1.489   4.765  14.334  0.3869 -0.3878  0.3586
 8150TIP3    H145865   1.481   4.683  14.286  0.3683 -0.1581 -0.0279
 8150TIP3    H245866   1.408   4.813  14.315  1.5263  0.8767 -1.5834
 8151TIP3   OH245867   3.375   1.338   5.610 -0.6657  0.5531  0.1406
 8151TIP3    H145868   3.283   1.323   5.631 -0.2613  0.3398  1.9548
 8151TIP3    H245869   3.378   1.429   5.579 -1.8103 -0.1713 -2.3544
 8152TIP3   OH245870   1.568   4.450   4.917  0.2793  0.1673  0.5654
 8152TIP3    H145871   1.555   4.363   4.955  1.8240 -0.4365 -0.1775
 8152TIP3    H245872   1.607   4.502   4.988 -1.0047  0.3922  1.1277
 8153TIP3   OH245873   0.221   6.172   2.609 -0.1967 -0.1840  0.1185
 8153TIP3    H145874   0.222   6.189   2.515 -0.8924  0.6809  0.2456
 8153TIP3    H245875   0.128   6.155   2.629 -0.0223 -0.5850  0.6031
 8154TIP3   OH245876   5.039   1.497  13.429  0.1714 -0.3160 -0.6650
 8154TIP3    H145877   5.044   1.531  13.518 -0.9551  0.7800 -0.9749
 8154TIP3    H245878   4.956   1.450  13.426  0.2440 -0.4201 -1.1173
 8155TIP3   OH245879   0.838   1.464   4.484 -0.3144 -0.2307  0.2143
 8155TIP3    H145880   0.769   1.403   4.458  0.0257 -1.5427  2.1623
 8155TIP3    H245881   0.888   1.417   4.550  0.9463  1.6055  0.6506
 8156TIP3   OH245882   3.993   2.799  13.075 -0.1600  0.9988  0.2678
 8156TIP3    H145883   3.949   2.845  13.147 -0.2942 -0.0702  0.8852
 8156TIP3    H245884   3.975   2.853  12.998 -2.3361  0.7605  0.5400
 8157TIP3   OH245885   1.708   3.896   5.200  0.4263  0.1052 -0.1888
 8157TIP3    H145886   1.615   3.919   5.198  0.2212 -0.6349  0.2470
 8157TIP3    H245887   1.736   3.917   5.289  0.6968  0.3952 -0.3416
 8158TIP3   OH245888   2.486   5.477  13.389  0.1510  0.4444  0.1399
 8158TIP3    H145889   2.542   5.399  13.381 -1.8596 -0.9796 -0.7765
 8158TIP3    H245890   2.454   5.492  13.300 -1.0159  1.1476  0.6624
 8159TIP3   OH245891   1.101   5.907   4.968  0.2433 -0.0231  0.7211
 8159TIP3    H145892   1.109   5.836   5.033  0.4040 -0.1553  0.5569
 8159TIP3    H245893   1.010   5.903   4.940  1.0678 -2.7676 -2.2160
 8160TIP3   OH245894   1.628   0.173  10.580 -0.8690 -0.3537  0.2094
 8160TIP3    H145895   1.552   0.178  10.522 -0.1919 -2.2799 -0.9262
 8160TIP3    H245896   1.627   0.083  10.613  0.3719 -0.1113  0.9513
 8161TIP3   OH245897   2.458   5.862  14.218  0.1263  0.1260  0.2066
 8161TIP3    H145898   2.506   5.932  14.262  0.5999 -0.1019  0.0602
 8161TIP3    H245899   2.468   5.879  14.125  1.3270 -0.8285  0.1335
 8162TIP3   OH245900   1.636   0.252  12.941 -0.2219 -0.0167 -0.5522
 8162TIP3    H145901   1.581   0.303  13.000  0.6696 -0.2238  0.4904
 8162TIP3    H245902   1.649   0.309  12.865  2.4054  2.2834  1.4067
 8163TIP3   OH245903   3.154   1.459   4.048  0.1843  0.3452  0.4309
 8163TIP3    H145904   3.141   1.387   3.987  0.1844  0.1583  0.6519
 8163TIP3    H245905   3.149   1.419   4.135  1.3715  0.4039  0.5378
 8164TIP3   OH245906   1.892   5.869  14.402  0.2782 -0.5208 -0.3453
 8164TIP3    H145907   1.908   5.959  14.428  0.7029  0.4462 -3.5185
 8164TIP3    H245908   1.865   5.825  14.483  0.1290  2.3846  1.3280
 8165TIP3   OH245909   4.326   3.301  14.156  0.2650 -0.0783  0.0384
 8165TIP3    H145910   4.306   3.370  14.092 -2.3554 -0.5645  0.2335
 8165TIP3    H245911   4.240   3.271  14.186  1.3901 -2.0628  1.4403
 8166TIP3   OH245912   2.969   2.872   3.774  0.0788 -0.3850  0.3929
 8166TIP3    H145913   2.919   2.837   3.701  1.5401 -0.3139 -0.7023
 8166TIP3    H245914   3.032   2.802   3.795  0.6467  0.1713  0.5811
 8167TIP3   OH245915   6.501   4.877  14.255  0.1337 -0.0726  0.6127
 8167TIP3    H145916   6.496   4.899  14.348 -0.3481 -0.0390  0.5801
 8167TIP3    H245917   6.594   4.890  14.232  0.1091  0.6398  0.9090
 8168TIP3   OH245918   4.311   5.695   0.390 -0.6043  0.9619 -0.0648
 8168TIP3    H145919   4.267   5.647   0.319 -1.3710  1.4081  0.0936
 8168TIP3    H245920   4.239   5.724   0.446 -0.0078  0.6550  0.8757
 8169TIP3   OH245921   5.553   1.959   6.464 -0.2586  0.0857  0.1717
 8169TIP3    H145922   5.468   1.996   6.488 -0.8937 -0.6884 -0.7922
 8169TIP3    H245923   5.539   1.864   6.466  0.7789 -0.0774  0.6405
 8170TIP3   OH245924   0.557   5.209   3.940 -0.9166  0.1525 -0.1236
 8170TIP3    H145925   0.569   5.121   3.904 -0.6290  0.3319 -0.4660
 8170TIP3    H245926   0.617   5.264   3.891 -0.5849  0.4185  0.5678
 8171TIP3   OH245927   4.818   5.392  16.350  0.9692 -0.1369  0.2266
 8171TIP3    H145928   4.859   5.465  16.396  1.0598  0.0764 -0.1810
 8171TIP3    H245929   4.747   5.363  16.407  0.9461  0.2602  0.3997
 8172TIP3   OH245930   4.928   4.118   2.992 -0.1467  0.4436 -0.2479
 8172TIP3    H145931   5.011   4.081   2.963  0.4082  0.4843  1.2319
 8172TIP3    H245932   4.864   4.049   2.976  0.6637 -0.7306  1.2973
 8173TIP3   OH245933   1.315   0.480  15.867 -0.2106 -0.1890 -0.1498
 8173TIP3    H145934   1.244   0.428  15.830 -1.5300  1.6717 -0.3769
 8173TIP3    H245935   1.393   0.451  15.821 -0.7553 -2.4000  0.2002
 8174TIP3   OH245936   1.347   1.906  15.713 -0.0045 -0.0199 -0.6581
 8174TIP3    H145937   1.332   1.823  15.668  1.4461 -0.2068 -0.8551
 8174TIP3    H245938   1.261   1.949  15.715 -0.7584 -1.4834 -0.6048
 8175TIP3   OH245939   2.711   0.185   1.507  0.0972  0.2157 -0.0828
 8175TIP3    H145940   2.698   0.090   1.505  0.2602  0.1616  1.1467
 8175TIP3    H245941   2.623   0.222   1.506 -0.0934 -0.0325  2.3590
 8176TIP3   OH245942   3.817   0.762   2.285 -0.2324 -0.0227  0.1767
 8176TIP3    H145943   3.722   0.755   2.272  0.1099 -3.1180 -1.7789
 8176TIP3    H245944   3.851   0.790   2.200  0.7818 -2.4760 -0.3133
 8177TIP3   OH245945   0.987   3.994  17.168  0.6085 -0.6284  0.0417
 8177TIP3    H145946   1.046   4.060  17.204 -0.9069  0.7428  0.1563
 8177TIP3    H245947   1.034   3.957  17.094  1.0307  1.4960 -0.8095
 8178TIP3   OH245948   6.542   2.381  13.441 -0.1405 -0.4814 -0.3941
 8178TIP3    H145949   6.557   2.292  13.473 -3.4169 -1.3452 -0.9902
 8178TIP3    H245950   6.463   2.410  13.486 -1.1733  0.7575 -2.8380
 8179TIP3   OH245951   4.960   1.411  11.669 -0.3643 -0.1641 -0.3986
 8179TIP3    H145952   4.939   1.499  11.638  0.8424 -0.4753 -2.2954
 8179TIP3    H245953   5.049   1.419  11.703 -0.7611 -0.3754  0.7130
 8180TIP3   OH245954   5.756   3.551  13.521  0.0964  0.0940  0.3088
 8180TIP3    H145955   5.693   3.559  13.449  0.2757  1.8322  0.3014
 8180TIP3    H245956   5.753   3.636  13.565  0.4684 -0.7250  1.9655
 8181TIP3   OH245957   3.619   1.174   4.465 -0.1319  0.0285  0.3436
 8181TIP3    H145958   3.611   1.079   4.467  2.2805 -0.2736 -0.6144
 8181TIP3    H245959   3.701   1.192   4.511  0.6416  1.4206 -1.4526
 8182TIP3   OH245960   5.945   6.260  12.279 -0.5167 -0.2466  0.7828
 8182TIP3    H145961   5.906   6.177  12.252  1.1595 -0.3545 -1.6502
 8182TIP3    H245962   5.898   6.326  12.228  0.0346 -0.0258  0.5480
 8183TIP3   OH245963   1.958   2.930  10.681 -0.3141  0.1280 -0.6382
 8183TIP3    H145964   2.019   3.002  10.690  0.7016 -0.6887 -0.7757
 8183TIP3    H245965   1.958   2.909  10.588  1.0494 -1.3909 -0.3554
 8184TIP3   OH245966   1.620   3.522  13.246 -0.1163 -0.4036  0.0769
 8184TIP3    H145967   1.543   3.467  13.234 -0.6558 -0.4201  2.8321
 8184TIP3    H245968   1.681   3.467  13.296 -0.0187  0.9225  1.4946
 8185TIP3   OH245969   2.138   6.238  12.282  0.1851  0.3097 -0.3105
 8185TIP3    H145970   2.224   6.268  12.310  0.8543  0.0345 -1.9242
 8185TIP3    H245971   2.117   6.293  12.206 -0.0460 -1.0927 -1.2995
 8186TIP3   OH245972   5.573   6.537   1.045  0.4179  0.3853  0.1619
 8186TIP3    H145973   5.500   6.537   0.983  1.2869  3.4999 -1.0476
 8186TIP3    H245974   5.632   6.470   1.010 -0.3611  0.1651 -0.7979
 8187TIP3   OH245975   6.588   0.846   2.341 -0.4283  0.1333 -0.0084
 8187TIP3    H145976   6.610   0.753   2.337 -1.2087 -0.0295 -0.7963
 8187TIP3    H245977   6.517   0.852   2.404 -0.7586  0.1150 -0.3767
 8188TIP3   OH245978   3.244   3.762  17.349 -0.3906  0.0246  0.0306
 8188TIP3    H145979   3.305   3.747  17.276 -0.3101 -1.5416  0.3873
 8188TIP3    H245980   3.170   3.705  17.329 -1.8028  1.9201 -0.4078
 8189TIP3   OH245981   4.525   1.724  15.447  0.1497  0.2989  0.0192
 8189TIP3    H145982   4.592   1.741  15.514 -1.9265  1.7005  1.8793
 8189TIP3    H245983   4.507   1.811  15.410  0.7073 -0.3535 -1.8928
 8190TIP3   OH245984   6.009   1.435   4.792 -0.4024 -0.1413 -0.2012
 8190TIP3    H145985   6.038   1.524   4.771  0.1260 -0.3579 -0.3966
 8190TIP3    H245986   6.058   1.412   4.871 -1.7465  0.3474  0.8104
 8191TIP3   OH245987   5.392   4.601  11.764 -0.5026  0.0244  0.0952
 8191TIP3    H145988   5.326   4.645  11.710 -0.1277  1.8086  1.0091
 8191TIP3    H245989   5.470   4.597  11.709 -1.1026 -1.3405 -0.6938
 8192TIP3   OH245990   2.202   1.986   1.673  0.6813  0.5062  0.0258
 8192TIP3    H145991   2.108   1.989   1.656  0.5088  1.6222  1.0218
 8192TIP3    H245992   2.210   2.010   1.765  1.9003 -0.3407  0.1591
 8193TIP3   OH245993   3.525   0.858   3.479 -0.5014 -0.1515  0.2083
 8193TIP3    H145994   3.473   0.894   3.407 -0.4001  0.4730  0.4441
 8193TIP3    H245995   3.489   0.771   3.493  1.3542 -1.5603 -2.5985
 8194TIP3   OH245996   1.481   4.179  16.005 -0.4909  0.4589 -0.0742
 8194TIP3    H145997   1.444   4.207  15.921  0.9038  2.6750 -0.0497
 8194TIP3    H245998   1.422   4.111  16.036 -1.8602  0.5950 -2.1667
 8195TIP3   OH245999   2.463   3.252  14.096  0.3224 -0.1707 -0.1493
 8195TIP3    H146000   2.390   3.234  14.155  1.0452  1.6360  1.4228
 8195TIP3    H246001   2.516   3.172  14.096  0.6884  0.0165  2.3009
 8196TIP3   OH246002   5.379   4.289  13.402 -0.0973  0.2344  0.0978
 8196TIP3    H146003   5.291   4.271  13.367 -0.4566 -0.6432  1.3823
 8196TIP3    H246004   5.404   4.209  13.447  0.1397  1.4254  2.2127
 8197TIP3   OH246005   3.897   5.099   1.611  0.0709  0.8628  0.4221
 8197TIP3    H146006   3.844   5.173   1.643 -2.5023 -1.0811  0.9696
 8197TIP3    H246007   3.910   5.044   1.688  0.4922 -0.0910 -0.3213
 8198TIP3   OH246008   6.622   6.285   2.117  0.3247 -0.2638  0.1691
 8198TIP3    H146009   6.536   6.281   2.075  0.4622 -0.2862 -0.1140
 8198TIP3    H246010   6.642   6.378   2.124  1.2503 -0.2617 -1.7962
 8199TIP3   OH246011   3.476   2.452   1.653 -0.3065 -0.4578 -0.2531
 8199TIP3    H146012   3.552   2.485   1.699 -0.1543  0.1203 -0.8982
 8199TIP3    H246013   3.436   2.390   1.714  0.4252 -0.4380  0.2626
 8200TIP3   OH246014   0.157   5.835  14.954  0.2031 -0.0576 -0.2735
 8200TIP3    H146015   0.186   5.788  15.032  0.1112  0.1060 -0.1393
 8200TIP3    H246016   0.196   5.922  14.962 -0.8963  0.4066  0.2745
 8201TIP3   OH246017   0.557   1.000  13.746  0.3063 -0.1514  0.2962
 8201TIP3    H146018   0.605   1.081  13.733  0.4614 -0.6134 -2.7470
 8201TIP3    H246019   0.624   0.931  13.742  0.0238 -0.5364  1.6204
 8202TIP3   OH246020   4.099   0.923   4.667  0.5426 -0.1739 -0.1489
 8202TIP3    H146021   4.143   0.914   4.752  0.7680 -0.2049 -0.2705
 8202TIP3    H246022   4.096   0.834   4.633 -0.8498 -0.3976  0.4806
 8203TIP3   OH246023   4.416   5.189   3.747 -0.1839  0.3263  0.4932
 8203TIP3    H146024   4.392   5.113   3.801  1.2143 -0.8418 -0.4322
 8203TIP3    H246025   4.455   5.251   3.809  0.2903 -0.4823  1.0234
 8204TIP3   OH246026   1.508   4.832  14.804  0.5245 -0.0373 -0.2240
 8204TIP3    H146027   1.520   4.818  14.898  0.1427  0.7785 -0.0442
 8204TIP3    H246028   1.413   4.844  14.794  0.6676  0.8929 -0.5569
 8205TIP3   OH246029   0.337   3.578  10.746 -0.0666 -0.1108 -0.0758
 8205TIP3    H146030   0.386   3.566  10.664  0.8414  0.7136  0.3328
 8205TIP3    H246031   0.265   3.515  10.740  1.9833 -2.6483  0.0333
 8206TIP3   OH246032   0.911   5.302  11.514  0.1481  0.0608  0.1872
 8206TIP3    H146033   0.883   5.379  11.564 -0.9051 -0.8430  1.0400
 8206TIP3    H246034   0.931   5.337  11.427 -0.1213  1.3302  0.6024
 8207TIP3   OH246035   1.905   6.422   5.646  0.2420  0.1621 -0.0295
 8207TIP3    H146036   1.936   6.382   5.727 -3.0480  1.9988  2.3420
 8207TIP3    H246037   1.853   6.353   5.604  3.2471 -1.3506 -1.6599
 8208TIP3   OH246038   3.711   0.819  13.192 -1.0468 -0.4299 -0.3854
 8208TIP3    H146039   3.750   0.753  13.250 -1.6346  0.0803  0.6217
 8208TIP3    H246040   3.777   0.888  13.187 -1.0605 -0.4037 -0.1999
 8209TIP3   OH246041   3.968   1.853   3.415 -0.1001  0.5921 -0.2520
 8209TIP3    H146042   3.875   1.858   3.394 -0.4030 -0.9057  0.5833
 8209TIP3    H246043   3.971   1.825   3.506  1.1335 -1.0883 -0.7483
 8210TIP3   OH246044   2.477   1.021  13.735 -0.2759  0.1632 -0.3086
 8210TIP3    H146045   2.482   1.097  13.677  1.8801 -0.6119 -1.2653
 8210TIP3    H246046   2.565   1.012  13.771 -1.1263 -0.4303  1.7682
 8211TIP3   OH246047   4.646   4.936  15.502  0.0059  0.0490  0.0134
 8211TIP3    H146048   4.566   4.940  15.450 -0.6672 -0.6147  0.9703
 8211TIP3    H246049   4.631   4.865  15.564  2.0191 -1.3295 -0.9264
 8212TIP3   OH246050   3.555   3.027   6.367 -0.1647  0.2636 -0.4644
 8212TIP3    H146051   3.580   3.118   6.384  0.1521  0.2774 -0.9956
 8212TIP3    H246052   3.474   3.033   6.316 -1.1559  0.2205  1.0272
 8213TIP3   OH246053   5.032   0.546   4.740 -0.7200  0.1435 -0.3525
 8213TIP3    H146054   5.108   0.587   4.781 -0.5131  2.0363 -2.4305
 8213TIP3    H246055   4.983   0.508   4.813  1.1907  0.5919  1.2479
 8214TIP3   OH246056   5.244   1.427  11.690 -0.1162 -0.2331  0.1157
 8214TIP3    H146057   5.276   1.431  11.600 -1.5229 -1.0282 -0.4455
 8214TIP3    H246058   5.222   1.335  11.704  2.3893 -0.6205  2.1531
 8215TIP3   OH246059   3.668   5.485   3.133 -0.2263  0.1632 -0.7081
 8215TIP3    H146060   3.693   5.401   3.093  0.5956  0.8544 -1.6844
 8215TIP3    H246061   3.576   5.496   3.110 -0.7622 -1.1065  0.6135
 8216TIP3   OH246062   0.446   3.131   3.839  0.1035 -0.5278 -0.2234
 8216TIP3    H146063   0.512   3.131   3.770  0.1751 -0.3275 -0.1562
 8216TIP3    H246064   0.496   3.143   3.920 -0.1504  1.6761 -0.3240
 8217TIP3   OH246065   2.180   6.375   0.868 -0.0771  0.1647 -0.0510
 8217TIP3    H146066   2.223   6.381   0.783 -1.1317  0.2360 -0.5893
 8217TIP3    H246067   2.219   6.298   0.909  1.4527  0.9272  0.0008
 8218TIP3   OH246068   3.961   0.694   6.200 -0.1631  0.2614  1.0960
 8218TIP3    H146069   4.044   0.721   6.160 -0.1546  1.1642  1.6805
 8218TIP3    H246070   3.985   0.623   6.260 -0.3679 -2.0969 -1.4213
 8219TIP3   OH246071   3.516   4.269  15.735  0.2646  0.3093  0.1362
 8219TIP3    H146072   3.587   4.329  15.760 -1.1324  1.8751  0.5649
 8219TIP3    H246073   3.451   4.278  15.805 -0.2503 -1.3163 -0.0785
 8220TIP3   OH246074   6.665   1.794   0.278 -0.0898  0.7893 -0.1741
 8220TIP3    H146075   6.698   1.708   0.305 -1.1066  0.7969  1.1628
 8220TIP3    H246076   6.738   1.833   0.230  0.6505 -0.5135 -0.1672
 8221TIP3   OH246077   3.359   4.086   1.749 -0.1686  0.0240 -0.0675
 8221TIP3    H146078   3.414   4.023   1.795 -0.5930  0.2545  0.7666
 8221TIP3    H246079   3.305   4.126   1.817 -2.9715 -1.7493 -1.0701
 8222TIP3   OH246080   4.881   2.650   0.222 -0.2379 -0.1414  0.0676
 8222TIP3    H146081   4.927   2.706   0.160 -0.4189 -0.2359 -0.1542
 8222TIP3    H246082   4.949   2.617   0.280 -0.3069  1.4684  1.1201
 8223TIP3   OH246083   0.998   4.015  12.298  0.1398  0.0924 -0.1616
 8223TIP3    H146084   0.938   3.953  12.339 -1.2425 -0.3733 -2.6953
 8223TIP3    H246085   0.959   4.101  12.316  0.5612  0.0633  0.9961
 8224TIP3   OH246086   4.534   0.689   3.936 -0.3183 -0.1327 -0.5703
 8224TIP3    H146087   4.543   0.688   3.841 -1.3400  0.2762 -0.6778
 8224TIP3    H246088   4.471   0.619   3.955  0.9973 -1.2188 -0.0539
 8225TIP3   OH246089   3.172   1.810   3.266  0.4030 -0.0962 -0.2501
 8225TIP3    H146090   3.258   1.778   3.292 -0.5987 -1.9872  0.9895
 8225TIP3    H246091   3.145   1.752   3.195  0.1983  0.5769 -0.7313
 8226TIP3   OH246092   0.418   6.752   2.150 -0.2607 -0.1036  0.3644
 8226TIP3    H146093   0.447   6.823   2.093  0.4415 -0.7784 -0.1382
 8226TIP3    H246094   0.434   6.673   2.100 -1.1152 -0.6234  0.8817
 8227TIP3   OH246095   6.039   6.547  15.522 -0.5274 -0.1187  0.0182
 8227TIP3    H146096   6.072   6.634  15.501 -0.2843  0.0294  1.0060
 8227TIP3    H246097   6.083   6.489  15.460 -0.0725  0.3538 -0.1021
 8228TIP3   OH246098   2.426   6.736  14.894 -0.4668  0.4314 -0.7719
 8228TIP3    H146099   2.407   6.686  14.815 -1.9024 -0.5986  0.1685
 8228TIP3    H246100   2.342   6.743  14.939  0.7219 -1.7057  2.1456
 8229TIP3   OH246101   3.799   4.700  11.419  0.4158  0.3536  0.2298
 8229TIP3    H146102   3.801   4.740  11.506 -1.7305 -0.9442  0.9722
 8229TIP3    H246103   3.730   4.747  11.372  0.4407 -0.0250 -0.1962
 8230TIP3   OH246104   5.224   5.246  13.220 -0.4022  0.5096  0.1816
 8230TIP3    H146105   5.309   5.208  13.245 -0.4217  0.4920  0.2219
 8230TIP3    H246106   5.238   5.278  13.131 -0.1551  1.1224  0.4350
 8231TIP3   OH246107   6.529   3.091  11.316 -0.2960  0.4498  0.5103
 8231TIP3    H146108   6.469   3.084  11.242 -0.6503  1.9626  0.6194
 8231TIP3    H246109   6.616   3.079  11.279 -0.5124  0.6252 -0.0546
 8232TIP3   OH246110   1.648   2.264   5.084  0.2944  0.0033  0.6611
 8232TIP3    H146111   1.734   2.286   5.048 -0.9407  0.0893 -2.5636
 8232TIP3    H246112   1.661   2.179   5.126  1.9173 -0.1343 -0.0359
 8233TIP3   OH246113   2.119   5.370   2.809  0.6280 -0.0273 -0.0357
 8233TIP3    H146114   2.038   5.397   2.767  0.4679 -0.4826 -0.0218
 8233TIP3    H246115   2.187   5.383   2.743  0.7661  1.7079  0.4123
 8234TIP3   OH246116   4.993   1.000  12.776  0.2481  0.3244  0.7574
 8234TIP3    H146117   5.024   1.002  12.866 -1.3896 -0.6094  1.3924
 8234TIP3    H246118   5.000   1.090  12.745  1.8198  0.4622  1.4399
 8235TIP3   OH246119   3.163   4.369  13.727  0.2014 -0.2402 -0.4408
 8235TIP3    H146120   3.188   4.456  13.696  0.9080  0.0370  0.8156
 8235TIP3    H246121   3.245   4.331  13.760 -0.3474 -0.8078  0.3084
 8236TIP3   OH246122   4.665   3.468   4.836 -0.1998  0.4166 -0.2313
 8236TIP3    H146123   4.591   3.408   4.834  1.2961 -1.5897 -3.0466
 8236TIP3    H246124   4.726   3.429   4.900 -0.4957  0.6700  0.2111
 8237TIP3   OH246125   1.932   2.878  13.267 -0.1453 -0.0356 -0.1190
 8237TIP3    H146126   1.939   2.929  13.186  0.3992 -0.4777 -0.3628
 8237TIP3    H246127   2.011   2.823  13.266 -0.7239 -0.8803  0.1283
 8238TIP3   OH246128   1.850   0.437   1.225  0.3789 -0.2342 -0.0017
 8238TIP3    H146129   1.919   0.430   1.159  0.7502 -0.4809  0.4090
 8238TIP3    H246130   1.804   0.519   1.203  0.7938 -0.0723 -0.2806
 8239TIP3   OH246131   5.128   4.578   1.826  0.7252  0.0644 -0.3556
 8239TIP3    H146132   5.141   4.639   1.753 -0.0612 -0.4998 -0.9745
 8239TIP3    H246133   5.216   4.558   1.856  1.0536  0.4081 -1.0625
 8240TIP3   OH246134   1.579   3.960  14.894 -0.1493 -0.0638 -0.6210
 8240TIP3    H146135   1.541   3.891  14.840  0.3109 -0.5317 -0.3617
 8240TIP3    H246136   1.663   3.924  14.923  1.1674  1.4475 -2.3047
 8241TIP3   OH246137   3.681   3.902  14.243  0.1514  0.0620  0.0346
 8241TIP3    H146138   3.642   3.839  14.183 -0.1760  0.8908 -0.6497
 8241TIP3    H246139   3.725   3.849  14.309  1.2461 -0.9006 -1.4084
 8242TIP3   OH246140   3.683   5.562  14.204  0.2619 -0.4318  0.7043
 8242TIP3    H146141   3.720   5.649  14.185 -0.4833  0.2254  2.1306
 8242TIP3    H246142   3.595   5.565  14.166  0.8073 -1.1932 -0.7041
 8243TIP3   OH246143   6.351   5.384  14.406 -0.2080  0.3671 -0.3870
 8243TIP3    H146144   6.369   5.476  14.385 -0.9297  1.0398  1.6887
 8243TIP3    H246145   6.300   5.387  14.487  0.4708 -1.9036  0.2094
 8244TIP3   OH246146   2.015   0.823   1.097  0.3949 -0.9195 -0.1699
 8244TIP3    H146147   1.940   0.817   1.157 -0.5240  0.2068 -1.1569
 8244TIP3    H246148   2.001   0.753   1.034 -0.8962  0.4160 -1.4536
 8245TIP3   OH246149   6.295   0.044  12.191  0.9537 -0.0455  0.5422
 8245TIP3    H146150   6.288   0.074  12.281  0.4905 -1.5896  1.0591
 8245TIP3    H246151   6.250  -0.041  12.190  1.8943 -0.5753 -0.8932
 8246TIP3   OH246152   1.108   4.852   5.506  0.3548 -0.0890  0.1932
 8246TIP3    H146153   1.163   4.783   5.542 -0.3397 -1.0645 -0.5641
 8246TIP3    H246154   1.039   4.864   5.572  0.9250  0.4680  0.6997
 8247TIP3   OH246155   2.894   2.119  17.387  0.1430  0.1372 -0.3043
 8247TIP3    H146156   2.938   2.101  17.304 -0.2583  0.3070 -0.5539
 8247TIP3    H246157   2.877   2.032  17.424 -3.3091 -0.1907 -2.2885
 8248TIP3   OH246158   6.543   6.269  13.229  0.3970  0.2290  0.2578
 8248TIP3    H146159   6.522   6.289  13.320 -1.1953 -0.6268  0.1291
 8248TIP3    H246160   6.545   6.354  13.185  0.9250  0.6272  1.0411
 8249TIP3   OH246161   5.595   0.667   0.348 -0.6465 -0.5211 -0.4398
 8249TIP3    H146162   5.627   0.580   0.373 -0.7300 -0.6524 -0.7912
 8249TIP3    H246163   5.627   0.679   0.259 -2.1859 -0.9549 -1.0724
 8250TIP3   OH246164   0.458   5.077  15.764 -0.6578 -0.4148 -0.1603
 8250TIP3    H146165   0.448   5.075  15.669  0.3533  1.8887 -0.3811
 8250TIP3    H246166   0.398   5.146  15.792 -0.6020 -0.7611  0.8312
 8251TIP3   OH246167   5.869   2.511   1.967 -0.3333 -0.3465  0.0943
 8251TIP3    H146168   5.799   2.554   1.918  0.2405 -0.3258 -0.7192
 8251TIP3    H246169   5.872   2.559   2.051  0.4855  1.4174 -0.8870
 8252TIP3   OH246170   1.690   0.538  14.557  0.3564 -0.2879 -0.2448
 8252TIP3    H146171   1.711   0.445  14.561  0.3135 -0.3453 -1.1099
 8252TIP3    H246172   1.599   0.544  14.586  0.8067 -0.3292  1.2267
 8253TIP3   OH246173   3.531   1.295   3.097 -0.2941 -0.8436 -0.4985
 8253TIP3    H146174   3.547   1.291   3.002  2.3792  0.9147 -0.2454
 8253TIP3    H246175   3.580   1.221   3.133 -0.7562 -1.1182 -0.4293
 8254TIP3   OH246176   2.503   2.271  12.477  0.1214 -0.4257  0.4689
 8254TIP3    H146177   2.408   2.277  12.482  0.2342  1.2764  1.0619
 8254TIP3    H246178   2.528   2.325  12.402  0.6098 -1.2400  0.0216
 8255TIP3   OH246179   2.922   4.605  16.536  0.1102  0.3285 -0.2616
 8255TIP3    H146180   2.995   4.663  16.558  0.0219 -0.3463  2.1459
 8255TIP3    H246181   2.844   4.658  16.552  0.0051  0.7876 -2.0526
 8256TIP3   OH246182   4.200   3.075  16.396  0.5074 -0.1138  0.1869
 8256TIP3    H146183   4.152   3.086  16.478 -0.5911  0.2680 -0.4867
 8256TIP3    H246184   4.186   2.983  16.373  0.2784 -0.0591  0.1047
 8257TIP3   OH246185   3.319   6.512  11.283  0.2640 -0.3072  0.0292
 8257TIP3    H146186   3.281   6.584  11.232  0.1480 -1.1519 -1.1065
 8257TIP3    H246187   3.368   6.556  11.353 -0.0287  0.8728 -0.4834
 8258TIP3   OH246188   4.146   6.431   3.486 -0.1486  0.3893  0.1950
 8258TIP3    H146189   4.115   6.517   3.458 -1.0370  0.3178  0.9171
 8258TIP3    H246190   4.225   6.449   3.537  0.5828  0.6367 -0.9815
 8259TIP3   OH246191   6.757   6.707   1.305  0.3107 -0.4747 -0.6503
 8259TIP3    H146192   6.669   6.679   1.280  0.3487 -1.7335  0.4976
 8259TIP3    H246193   6.815   6.642   1.267  0.4364 -1.8357  1.6374
 8260TIP3   OH246194   5.405   0.194  16.146 -0.2386  0.3111  0.4103
 8260TIP3    H146195   5.410   0.203  16.051  0.7968 -0.7702  0.3438
 8260TIP3    H246196   5.401   0.100  16.161  1.9145  0.3205  1.4994
 8261TIP3   OH246197   2.945   5.188  15.473  0.2784 -0.0312  0.0845
 8261TIP3    H146198   2.856   5.211  15.501  0.6037 -1.9834  3.1658
 8261TIP3    H246199   2.933   5.112  15.416 -0.0351 -1.6650  2.2058
 8262TIP3   OH246200   1.247   1.316   4.302  0.5414 -0.0718 -0.0835
 8262TIP3    H146201   1.207   1.280   4.381  1.3731 -1.7071 -0.3775
 8262TIP3    H246202   1.172   1.338   4.247 -0.0583  1.2884  1.2052
 8263TIP3   OH246203   3.994   5.040   5.949  0.8249 -0.0029  0.3000
 8263TIP3    H146204   4.002   4.961   5.896  0.0166 -0.0174  0.1887
 8263TIP3    H246205   4.084   5.073   5.957  1.8106 -2.9642  3.5328
 8264TIP3   OH246206   5.719   4.690  15.254 -0.1694  0.4978  0.8681
 8264TIP3    H146207   5.684   4.718  15.170  0.7631 -0.5734  0.0876
 8264TIP3    H246208   5.742   4.771  15.300  0.7251  1.0808 -0.5409
 8265TIP3   OH246209   4.995   1.462  11.328  0.3885  0.2393  0.1127
 8265TIP3    H146210   4.978   1.464  11.234  0.1478  1.4664  0.1672
 8265TIP3    H246211   4.912   1.487  11.368  1.0418  1.7571  0.5636
 8266TIP3   OH246212   5.250   3.681  11.676 -0.1904  0.1598 -0.2914
 8266TIP3    H146213   5.243   3.768  11.716 -0.7718 -0.1860  0.3723
 8266TIP3    H246214   5.330   3.685  11.624 -0.9625  1.5638 -1.4483
 8267TIP3   OH246215   5.691   5.928   3.742 -0.4454 -0.1457  0.0433
 8267TIP3    H146216   5.673   5.835   3.756  0.7864 -0.3923  0.1388
 8267TIP3    H246217   5.707   5.963   3.829 -1.0576  0.1989  0.0213
 8268TIP3   OH246218   0.437   4.329  13.032  0.0707 -0.0419 -0.1892
 8268TIP3    H146219   0.512   4.273  13.051 -1.1690 -2.1593 -1.0939
 8268TIP3    H246220   0.464   4.382  12.957  1.0929  0.2097  0.3370
 8269TIP3   OH246221   2.451   2.024  16.027  0.4078 -0.1675  0.0697
 8269TIP3    H146222   2.402   2.056  15.951  1.7629  0.3913 -0.6204
 8269TIP3    H246223   2.419   2.076  16.100  0.2555  0.4828 -0.4442
 8270TIP3   OH246224   0.859   5.066  12.361  0.0528  0.3255  0.2511
 8270TIP3    H146225   0.949   5.092  12.383 -0.5193  1.9498  0.8508
 8270TIP3    H246226   0.831   5.132  12.297 -0.1484 -1.1955 -1.3059
 8271TIP3   OH246227   1.371   6.536   5.166  0.7120  0.3488 -0.4351
 8271TIP3    H146228   1.328   6.452   5.184 -0.5713  0.8001 -1.2456
 8271TIP3    H246229   1.442   6.514   5.106 -0.1562 -0.0877 -1.3493
 8272TIP3   OH246230   1.673   1.140  15.235 -0.0088 -0.2093 -0.1411
 8272TIP3    H146231   1.661   1.055  15.276  1.2002  0.6547  2.1662
 8272TIP3    H246232   1.754   1.131  15.185 -0.9702 -0.9728 -1.6304
 8273TIP3   OH246233   4.340   3.772  14.791  0.2185  0.6817  0.3306
 8273TIP3    H146234   4.347   3.681  14.821 -0.8427  0.1856 -0.8391
 8273TIP3    H246235   4.406   3.819  14.842 -0.0376 -0.5019  1.8261
 8274TIP3   OH246236   0.257   1.975   3.503  0.4314  0.4741 -0.2793
 8274TIP3    H146237   0.218   1.946   3.420  0.1740 -0.4696  0.1545
 8274TIP3    H246238   0.277   1.894   3.549 -1.7270  0.9460  1.6610
 8275TIP3   OH246239   2.837   4.159   0.074  0.0021 -0.0462  0.8330
 8275TIP3    H146240   2.803   4.197  -0.007  1.9966  0.4338  0.1624
 8275TIP3    H246241   2.893   4.086   0.044  0.8961  0.2432  1.7554
 8276TIP3   OH246242   2.313   0.874   3.291  0.2734 -0.4912 -0.5834
 8276TIP3    H146243   2.342   0.957   3.328  1.4300 -1.2275  0.2336
 8276TIP3    H246244   2.218   0.882   3.285  0.3653  0.8758 -0.5182
 8277TIP3   OH246245   6.035   5.076  13.144  0.1089  0.5257 -0.7691
 8277TIP3    H146246   6.115   5.129  13.144  0.7573 -0.3588  1.3557
 8277TIP3    H246247   5.967   5.135  13.176  0.8644  0.1206  1.7731
 8278TIP3   OH246248   0.741   3.065   1.132  0.2143 -0.1197 -0.1190
 8278TIP3    H146249   0.779   3.091   1.216 -0.8890  2.0098 -0.2150
 8278TIP3    H246250   0.719   2.972   1.143  1.7396 -0.3668  1.2742
 8279TIP3   OH246251   2.168   0.445   5.993 -0.5621 -0.1438  0.0991
 8279TIP3    H146252   2.210   0.364   6.025  3.5767  1.2344 -1.2084
 8279TIP3    H246253   2.118   0.477   6.068 -0.4278 -2.6931  1.3985
 8280TIP3   OH246254   2.257   2.248   2.107  0.5896  0.0822  0.0310
 8280TIP3    H146255   2.299   2.312   2.048  0.9495 -1.3543 -1.3499
 8280TIP3    H246256   2.201   2.196   2.049  1.6417 -1.9657  0.7425
 8281TIP3   OH246257   4.195   1.550  12.750 -0.4409 -0.4082  0.6095
 8281TIP3    H146258   4.211   1.456  12.741 -2.2623 -0.6645 -0.2998
 8281TIP3    H246259   4.152   1.576  12.668 -2.8296  0.5653  2.0881
 8282TIP3   OH246260   3.786   6.768  11.663 -0.2166  0.3163 -0.2927
 8282TIP3    H146261   3.758   6.679  11.639  0.8303 -0.3740  0.9447
 8282TIP3    H246262   3.826   6.758  11.749  2.0825  1.5778 -1.1490
 8283TIP3   OH246263   0.922   6.306   2.136 -0.3066 -0.2140 -0.0015
 8283TIP3    H146264   0.922   6.316   2.041  0.2519 -2.5144 -0.2876
 8283TIP3    H246265   1.004   6.346   2.165  0.2046 -0.7841 -0.6477
 8284TIP3   OH246266   5.758   0.066   5.410  0.3005 -0.2940  0.0729
 8284TIP3    H146267   5.835   0.026   5.371  1.5091  2.1721 -0.2171
 8284TIP3    H246268   5.722   0.123   5.342 -0.1581  0.6694  1.0774
 8285TIP3   OH246269   6.506   4.478  14.808 -0.0643  0.5148 -1.2192
 8285TIP3    H146270   6.470   4.391  14.790 -0.4814  0.5572 -0.5982
 8285TIP3    H246271   6.553   4.468  14.890  0.2374  0.7833 -1.3592
 8286TIP3   OH246272   5.269   5.361   5.305  0.3365 -0.5828  0.4452
 8286TIP3    H146273   5.349   5.313   5.326  1.0379  1.6314  3.5896
 8286TIP3    H246274   5.278   5.383   5.212  1.5910 -3.4231 -0.2055
 8287TIP3   OH246275   0.137   0.171  16.404  0.5383  0.2703 -0.0913
 8287TIP3    H146276   0.168   0.129  16.484 -0.4844 -0.4048 -0.0267
 8287TIP3    H246277   0.144   0.104  16.337 -2.5744 -0.6483  0.3265
 8288TIP3   OH246278   5.492   0.605  16.863 -0.4224  0.5475 -0.2367
 8288TIP3    H146279   5.404   0.590  16.830 -0.5678 -1.3503  0.8704
 8288TIP3    H246280   5.540   0.526  16.840  1.3686  1.9955 -1.8137
 8289TIP3   OH246281   2.117   2.239   4.754 -0.2392 -0.2440  0.0429
 8289TIP3    H146282   2.031   2.243   4.796 -1.2345  2.2921 -1.9754
 8289TIP3    H246283   2.100   2.195   4.670  0.4894 -0.0385 -0.2212
 8290TIP3   OH246284   5.259   0.565   1.185 -0.0785  0.3596  0.5591
 8290TIP3    H146285   5.244   0.657   1.161  1.6059  0.3792 -0.6531
 8290TIP3    H246286   5.264   0.566   1.281  1.3149  1.8270  0.5325
 8291TIP3   OH246287   2.259   2.007  17.347 -0.0233 -0.2514 -0.5825
 8291TIP3    H146288   2.248   1.995  17.252 -2.4176  0.6873 -0.5001
 8291TIP3    H246289   2.274   2.101  17.357 -1.0128 -0.1488  0.0379
 8292TIP3   OH246290   0.711   1.133  15.509  0.2001 -0.4330  0.4247
 8292TIP3    H146291   0.618   1.124  15.486 -0.2368 -2.1124  2.4774
 8292TIP3    H246292   0.733   1.049  15.550  2.9253 -0.4566 -0.8451
 8293TIP3   OH246293   0.217   6.590   1.593  0.1994  0.0428  0.1201
 8293TIP3    H146294   0.210   6.606   1.499  1.2356 -0.0939  0.0033
 8293TIP3    H246295   0.141   6.536   1.614 -0.4356  0.6870 -0.4949
 8294TIP3   OH246296   3.073   6.403   1.598 -0.5201  0.1477  0.0944
 8294TIP3    H146297   3.046   6.412   1.506  0.0554 -0.2151 -0.1208
 8294TIP3    H246298   3.158   6.447   1.601 -0.5704  0.2169  0.4710
 8295TIP3   OH246299   4.145   1.472   1.465 -0.4358 -0.0449  0.0870
 8295TIP3    H146300   4.235   1.477   1.433 -1.3818 -1.1284 -3.2205
 8295TIP3    H246301   4.100   1.414   1.402 -3.7334  1.5186  0.7485
 8296TIP3   OH246302   4.520   4.139  16.001  0.4201  0.0045  0.6845
 8296TIP3    H146303   4.607   4.160  16.034  0.6079 -0.1025  0.2516
 8296TIP3    H246304   4.517   4.043  16.002  0.1031  0.0109  1.2237
 8297TIP3   OH246305   4.001   6.743   2.241  0.6804  0.5245 -0.0161
 8297TIP3    H146306   4.077   6.693   2.212  1.3435  1.9371 -0.8608
 8297TIP3    H246307   4.020   6.765   2.332  0.9740  0.3160 -0.0245
 8298TIP3   OH246308   4.508   3.172  12.761 -0.1885 -0.4998 -0.0627
 8298TIP3    H146309   4.534   3.233  12.691  0.7907 -0.1637  0.5644
 8298TIP3    H246310   4.508   3.226  12.840 -1.3853 -0.8542  0.1885
 8299TIP3   OH246311   0.954   4.046  15.069 -0.5286 -0.3505  0.6911
 8299TIP3    H146312   1.024   4.111  15.061  1.0106 -1.8391  1.4619
 8299TIP3    H246313   0.904   4.074  15.145 -1.7171  1.5088 -0.6705
 8300TIP3   OH246314   3.912   5.834   1.369  0.1183 -0.0055  0.5662
 8300TIP3    H146315   3.944   5.909   1.418  0.1785 -1.1765  2.3858
 8300TIP3    H246316   3.964   5.834   1.288  2.1966  0.2261  1.8408
 8301TIP3   OH246317   5.306   3.071  16.920  0.3107  0.8331 -0.0748
 8301TIP3    H146318   5.239   3.139  16.915 -0.4450  0.0297 -1.1731
 8301TIP3    H246319   5.258   2.989  16.926  1.2029  0.3763  1.9868
 8302TIP3   OH246320   4.717   4.022   0.281  0.3146 -0.0564  0.1917
 8302TIP3    H146321   4.740   4.085   0.349  1.2993 -0.6867  0.4594
 8302TIP3    H246322   4.732   4.068   0.199  1.8592 -0.1947  0.3728
 8303TIP3   OH246323   1.897   1.961   1.025  0.1709 -0.3512 -0.2697
 8303TIP3    H146324   1.881   2.041   1.076  0.7688  0.5706 -1.4699
 8303TIP3    H246325   1.865   1.890   1.081  0.4925  0.6339  1.2389
 8304TIP3   OH246326   5.874   1.303   6.018 -0.1600 -0.9048  0.0160
 8304TIP3    H146327   5.913   1.354   5.947 -0.8731  0.0989  0.3289
 8304TIP3    H246328   5.903   1.346   6.098 -0.5030 -1.1948  0.3000
 8305TIP3   OH246329   4.029   5.878   3.913 -0.3288 -0.0281  0.2454
 8305TIP3    H146330   4.017   5.893   4.007  0.6728  1.7940  0.1390
 8305TIP3    H246331   4.040   5.784   3.904  0.5651 -0.1440  2.0939
 8306TIP3   OH246332   5.535   3.419   1.860  0.8285  0.1194 -0.5154
 8306TIP3    H146333   5.519   3.338   1.908  1.0338 -0.3479 -1.2194
 8306TIP3    H246334   5.630   3.422   1.849  0.8641  0.7080 -0.0647
 8307TIP3   OH246335   3.047   1.856   2.061 -0.5808  0.5503  0.0268
 8307TIP3    H146336   3.018   1.766   2.078 -0.4177  0.4360 -0.2869
 8307TIP3    H246337   2.976   1.911   2.093 -0.4909  0.3241  0.6283
 8308TIP3   OH246338   3.269   0.043   3.992  0.0232  0.3237 -0.3225
 8308TIP3    H146339   3.202   0.095   3.949  0.1194 -0.7265 -1.8302
 8308TIP3    H246340   3.352   0.079   3.961  0.1473  0.6132  0.3113
 8309TIP3   OH246341   6.104   3.294  16.469  0.1100  0.0658  0.9226
 8309TIP3    H146342   6.043   3.255  16.407  0.4647  0.2210  0.4656
 8309TIP3    H246343   6.155   3.355  16.416  0.8426 -0.2652  1.2303
 8310TIP3   OH246344   1.526   5.695  16.452  0.4993 -0.5292 -1.0159
 8310TIP3    H146345   1.543   5.622  16.511  3.7022  1.5973  1.0626
 8310TIP3    H246346   1.457   5.745  16.496  1.7388  0.1864  0.1915
 8311TIP3   OH246347   0.701   5.729  16.613  0.1800 -0.1549 -1.1138
 8311TIP3    H146348   0.623   5.706  16.663 -0.0701  1.5246 -0.6576
 8311TIP3    H246349   0.669   5.785  16.542  1.0157  1.1435 -0.5078
 8312TIP3   OH246350   6.688   3.896   1.884 -0.5825 -0.1696 -0.0495
 8312TIP3    H146351   6.746   3.969   1.907 -0.0335 -0.2558 -1.0633
 8312TIP3    H246352   6.721   3.866   1.798 -2.5579  0.2367 -0.9997
 8313TIP3   OH246353   2.374   0.620  15.000  1.1431  0.4483  0.3992
 8313TIP3    H146354   2.358   0.667  15.082  0.2753 -0.9154  1.0393
 8313TIP3    H246355   2.359   0.528  15.021 -1.0316  0.2091 -1.7440
 8314TIP3   OH246356   5.722   4.437  12.284  0.4339 -0.0141 -0.4211
 8314TIP3    H146357   5.751   4.375  12.217  0.3582 -0.1591 -0.3222
 8314TIP3    H246358   5.742   4.523  12.248  0.2738 -0.0865 -0.6874
 8315TIP3   OH246359   2.353   0.849   6.020  0.4309 -0.0878 -0.4771
 8315TIP3    H146360   2.416   0.788   6.060  0.2159 -0.2351 -0.3623
 8315TIP3    H246361   2.388   0.864   5.932  1.9861  1.7617  0.3667
 8316TIP3   OH246362   1.149   5.124  13.729  0.4023 -0.0705 -0.2318
 8316TIP3    H146363   1.072   5.068  13.740 -0.3776  0.8010 -1.1455
 8316TIP3    H246364   1.158   5.170  13.813  0.1875 -0.4689  0.0149
 8317TIP3   OH246365   6.353   6.227  15.236  0.0955 -0.4272 -0.3311
 8317TIP3    H146366   6.336   6.133  15.227  0.5591 -0.5248 -0.2363
 8317TIP3    H246367   6.443   6.231  15.268 -0.5311 -0.0083  1.4992
 8318TIP3   OH246368   6.734   2.961   2.324 -0.3785  0.5207 -0.1571
 8318TIP3    H146369   6.657   2.904   2.313 -0.0136 -0.4611  1.8155
 8318TIP3    H246370   6.700   3.050   2.314 -1.2312  0.0359 -1.9456
 8319TIP3   OH246371   5.547   4.844   1.052 -0.5511  0.1560 -0.5617
 8319TIP3    H146372   5.611   4.850   0.980 -0.0645  0.6990 -0.0967
 8319TIP3    H246373   5.478   4.787   1.018  0.7428 -1.4208 -0.6541
 8320TIP3   OH246374   3.244   0.862   4.202 -0.2218 -0.0397 -0.0348
 8320TIP3    H146375   3.331   0.892   4.229 -0.4426  1.4827 -0.9357
 8320TIP3    H246376   3.201   0.836   4.283  1.2645 -1.4077  0.3724
 8321TIP3   OH246377   5.633   1.931   6.004  0.3113  0.2542 -0.2788
 8321TIP3    H146378   5.544   1.898   6.018  1.6259 -2.8720  2.0369
 8321TIP3    H246379   5.675   1.863   5.951  2.1809 -0.1651  1.6101
 8322TIP3   OH246380   3.315   3.836  16.942  0.3628  0.7467 -0.0651
 8322TIP3    H146381   3.242   3.781  16.971 -0.5742  1.0077 -1.7967
 8322TIP3    H246382   3.291   3.924  16.970  0.1185  0.8002 -0.4425
 8323TIP3   OH246383   6.523   1.895   0.050  0.3614  0.0615 -0.1985
 8323TIP3    H146384   6.545   1.856   0.135  0.0708 -0.4631 -0.3592
 8323TIP3    H246385   6.604   1.888  -0.001  0.0390 -1.2329 -0.5561
 8324TIP3   OH246386   0.042   3.012  11.131 -0.3294 -0.2571 -0.3405
 8324TIP3    H146387   0.130   2.976  11.134 -0.3927 -0.5961 -1.8884
 8324TIP3    H246388   0.052   3.097  11.089 -0.7238 -0.2469 -0.4205
 8325TIP3   OH246389   2.414   1.045  11.525 -0.3680 -0.5118  0.1012
 8325TIP3    H146390   2.491   1.022  11.472 -0.0210 -0.0338  0.3879
 8325TIP3    H246391   2.353   0.972  11.511 -0.6717  0.0258 -1.6814
 8326TIP3   OH246392   5.205   5.835   4.056 -0.7074 -0.4574  0.5518
 8326TIP3    H146393   5.176   5.849   4.146 -2.1349  0.6124 -0.0311
 8326TIP3    H246394   5.257   5.913   4.036 -1.0566 -0.3102  0.2061
 8327TIP3   OH246395   4.136   0.806   0.926 -0.0042 -0.1292  0.1511
 8327TIP3    H146396   4.184   0.815   0.844  0.6683 -0.8935  0.4479
 8327TIP3    H246397   4.045   0.821   0.902  0.2332  0.0755 -0.6558
 8328TIP3   OH246398   5.027   3.430  11.123  0.5831  0.0042  0.2877
 8328TIP3    H146399   5.071   3.474  11.196  0.5314 -0.7316  0.7731
 8328TIP3    H246400   4.961   3.492  11.094  0.2218  0.0873  1.2465
 8329TIP3   OH246401   0.259   1.412   2.514  0.0909 -0.2274  0.3371
 8329TIP3    H146402   0.272   1.349   2.443 -0.3418  1.6626 -1.5041
 8329TIP3    H246403   0.166   1.403   2.537  0.0651 -0.3644  0.1819
 8330TIP3   OH246404   5.981   4.225  16.562  0.4805  0.0717  0.3421
 8330TIP3    H146405   6.061   4.258  16.521  0.3774 -1.0014 -0.8190
 8330TIP3    H246406   5.972   4.136  16.527  0.1404 -0.7572  2.4238
 8331TIP3   OH246407   2.797   6.630  11.296 -0.9400  0.7882  0.1072
 8331TIP3    H146408   2.827   6.719  11.279 -0.0009  0.3857 -0.3749
 8331TIP3    H246409   2.724   6.641  11.358 -0.0006  1.8021  1.0781
 8332TIP3   OH246410   2.278   4.833   3.832 -0.3624  0.4708  0.5027
 8332TIP3    H146411   2.284   4.890   3.908 -0.6422  1.0891  0.0706
 8332TIP3    H246412   2.295   4.745   3.866 -0.0071  0.8009  1.1868
 8333TIP3   OH246413   1.961   1.602   6.064  0.0479  0.0341 -0.6478
 8333TIP3    H146414   1.981   1.510   6.047 -0.6760 -0.0515 -1.0807
 8333TIP3    H246415   2.026   1.629   6.130  0.7176 -0.5821 -1.0372
 8334TIP3   OH246416   5.384   2.600   0.337 -0.3374  0.0888 -0.5862
 8334TIP3    H146417   5.342   2.661   0.277 -1.4713  0.8726  0.9400
 8334TIP3    H246418   5.312   2.550   0.376  0.3156 -0.1248  0.4089
 8335TIP3   OH246419   2.751   5.173  16.470 -0.1372  0.5424 -0.0122
 8335TIP3    H146420   2.785   5.085  16.453  1.2068  0.7718  1.3507
 8335TIP3    H246421   2.740   5.177  16.565 -0.3755  1.7806 -0.0758
 8336TIP3   OH246422   2.043   4.835   1.435  0.3005 -0.5880 -0.0575
 8336TIP3    H146423   2.088   4.803   1.357 -0.8580 -0.8190 -0.6666
 8336TIP3    H246424   2.080   4.784   1.507  1.2900 -0.4737 -0.4738
 8337TIP3   OH246425   6.407   1.886  13.298 -0.1385 -0.3561  0.1027
 8337TIP3    H146426   6.328   1.833  13.299  0.1546 -0.8515 -0.9828
 8337TIP3    H246427   6.447   1.868  13.213  0.5831  0.7125  0.1920
 8338TIP3   OH246428   3.384   3.559   2.254 -0.1644 -0.0882  0.0227
 8338TIP3    H146429   3.324   3.485   2.246 -0.6473  0.4456 -1.8106
 8338TIP3    H246430   3.435   3.540   2.333 -2.9326 -0.3954  1.8686
 8339TIP3   OH246431   4.810   0.078  15.120 -0.0033 -0.1988 -0.0047
 8339TIP3    H146432   4.851   0.142  15.061  0.8641 -0.3754  0.4050
 8339TIP3    H246433   4.881   0.020  15.146  0.3102  1.4593  3.3769
 8340TIP3   OH246434   1.067   3.825  11.055 -0.1803 -0.4239  0.0066
 8340TIP3    H146435   1.097   3.813  11.145 -0.9786  1.1040  0.5152
 8340TIP3    H246436   1.145   3.852  11.007 -0.3361  2.0192  0.9898
 8341TIP3   OH246437   2.657   4.920   4.241 -0.3453 -0.0192  0.0679
 8341TIP3    H146438   2.628   4.836   4.207 -0.6746  1.0685 -2.5931
 8341TIP3    H246439   2.753   4.914   4.240 -0.3602 -0.6757  0.8935
 8342TIP3   OH246440   0.655   2.607  13.828  0.0233  0.2362  0.3666
 8342TIP3    H146441   0.680   2.520  13.797 -1.1529  0.1847 -0.5068
 8342TIP3    H246442   0.709   2.667  13.778  0.2576  0.0337  0.3780
 8343TIP3   OH246443   1.197   3.005  12.101  0.0794 -0.0323  0.2778
 8343TIP3    H146444   1.259   3.063  12.145 -1.5150  1.7057  0.3551
 8343TIP3    H246445   1.198   3.033  12.010 -0.9566  0.4089  0.3832
 8344TIP3   OH246446   5.097   3.564   3.834 -0.2536 -0.0913  0.6320
 8344TIP3    H146447   5.088   3.651   3.873 -2.5582  0.8247 -1.5944
 8344TIP3    H246448   5.064   3.575   3.744  0.5307 -3.0038 -0.1194
 8345TIP3   OH246449   3.356   2.048  15.508  0.4954 -0.5673 -0.4786
 8345TIP3    H146450   3.315   2.088  15.432 -0.7910 -0.2148  0.3682
 8345TIP3    H246451   3.449   2.069  15.500 -0.0000  1.8499 -0.5169
 8346TIP3   OH246452   1.048   0.929  15.221 -0.3258 -0.2728 -0.1210
 8346TIP3    H146453   1.022   0.968  15.304 -0.3743 -0.8325  0.1321
 8346TIP3    H246454   0.991   0.970  15.156 -1.2701 -0.8595  0.3113
 8347TIP3   OH246455   1.502   3.999   2.821  0.1080 -0.0144  0.1165
 8347TIP3    H146456   1.451   4.041   2.751  0.9990  0.1294 -0.4623
 8347TIP3    H246457   1.516   4.068   2.886 -1.7830 -0.4645  1.0628
 8348TIP3   OH246458   1.841   1.747  16.707  0.3077  0.6156  0.2244
 8348TIP3    H146459   1.852   1.742  16.612 -0.9572  2.2058 -0.0457
 8348TIP3    H246460   1.873   1.835  16.729  0.2657  0.3851  1.2333
 8349TIP3   OH246461   4.219   0.346   1.151  0.7744  0.7817  0.0205
 8349TIP3    H146462   4.213   0.268   1.096  1.4452  0.7047  0.0399
 8349TIP3    H246463   4.219   0.419   1.089 -2.7062  1.0067  0.0879
 8350TIP3   OH246464   3.069   3.780  11.692 -0.6864 -0.1410 -0.1939
 8350TIP3    H146465   3.105   3.692  11.681 -1.3993 -0.5709  0.7887
 8350TIP3    H246466   2.974   3.769  11.688 -0.7746  0.7537 -1.1328
 8351TIP3   OH246467   1.944   5.641   5.006  0.0974 -0.2141 -0.0556
 8351TIP3    H146468   1.882   5.578   4.969 -0.6607  1.8238 -2.5453
 8351TIP3    H246469   1.926   5.640   5.100 -2.8965 -0.5842 -0.5345
 8352TIP3   OH246470   2.621   0.173   5.754  0.2300 -0.0701  0.9818
 8352TIP3    H146471   2.635   0.133   5.668  0.0087 -0.1812  0.9964
 8352TIP3    H246472   2.697   0.146   5.806  0.9837  0.9756  0.4774
 8353TIP3   OH246473   5.878   1.209  17.157 -0.2670 -0.5174  0.0983
 8353TIP3    H146474   5.908   1.237  17.070 -0.0958 -0.6683  0.1063
 8353TIP3    H246475   5.922   1.125  17.171  0.0606 -0.2795  0.5222
 8354TIP3   OH246476   5.337   0.440  14.563 -0.2342 -0.2467 -0.0732
 8354TIP3    H146477   5.316   0.382  14.490 -0.3079  0.5544 -0.7037
 8354TIP3    H246478   5.415   0.402  14.602  0.4507 -0.0782 -1.2510
 8355TIP3   OH246479   5.998   5.623  12.490  0.2470 -0.2252  0.5358
 8355TIP3    H146480   5.971   5.639  12.400  1.6147 -1.5833 -0.1472
 8355TIP3    H246481   6.004   5.528  12.498 -1.5684 -0.2651  2.6235
 8356TIP3   OH246482   5.508   0.161   5.731 -0.5233  0.2285  0.2156
 8356TIP3    H146483   5.438   0.155   5.796 -0.1964  0.8941  0.6409
 8356TIP3    H246484   5.500   0.250   5.696 -0.1201  0.1852  0.0110
 8357TIP3   OH246485   1.281   4.993  11.347  0.4875 -0.1214  0.2481
 8357TIP3    H146486   1.267   5.077  11.305 -0.6414 -0.9594 -1.1381
 8357TIP3    H246487   1.193   4.957  11.360  0.9103 -0.7388  1.5812
 8358TIP3   OH246488   0.961   3.749  17.313  0.1436 -0.2322  0.0332
 8358TIP3    H146489   0.957   3.840  17.283 -0.7470 -1.1282 -2.9028
 8358TIP3    H246490   1.055   3.727  17.311  0.2370  0.2054 -0.6793
 8359TIP3   OH246491   6.231   5.255   2.467 -0.2169  0.3075  0.1674
 8359TIP3    H146492   6.157   5.313   2.477  0.4996  1.1030  1.0279
 8359TIP3    H246493   6.299   5.291   2.524  0.8203 -0.4177 -0.5498
 8360TIP3   OH246494   5.032   1.688   2.379  0.2064  0.4045 -0.2607
 8360TIP3    H146495   5.045   1.702   2.285  0.3364 -2.4717 -0.7744
 8360TIP3    H246496   4.937   1.692   2.391 -0.0113 -1.5138 -1.0239
 8361TIP3   OH246497   1.604   2.831  13.851 -0.7066 -0.0342  0.0472
 8361TIP3    H146498   1.578   2.742  13.875 -2.6715  0.4830  0.0053
 8361TIP3    H246499   1.661   2.859  13.922  1.4523 -1.9238 -0.8204
 8362TIP3   OH246500   1.353   2.014   3.014  0.0535  0.2634  0.3883
 8362TIP3    H146501   1.308   2.040   3.095  0.3361  0.3907  0.5061
 8362TIP3    H246502   1.357   2.094   2.962 -1.7516 -0.2066 -0.5468
 8363TIP3   OH246503   6.266   5.969   4.602  0.0122  0.3486 -0.2694
 8363TIP3    H146504   6.220   6.027   4.662 -1.6486 -0.8166 -0.3609
 8363TIP3    H246505   6.285   5.890   4.653 -1.7555 -0.8165 -1.2956
 8364TIP3   OH246506   6.309   2.841  11.685 -0.2454 -0.5541 -0.1728
 8364TIP3    H146507   6.355   2.841  11.601 -0.3664  0.1834 -0.2422
 8364TIP3    H246508   6.268   2.927  11.690 -2.4040 -1.4897 -0.5273
 8365TIP3   OH246509   0.691   4.087   3.604 -0.2227  0.1005  0.0661
 8365TIP3    H146510   0.623   4.039   3.555 -0.2092  1.3876 -1.2686
 8365TIP3    H246511   0.656   4.091   3.693 -0.1049 -2.5798  0.3325
 8366TIP3   OH246512   5.195   1.734   4.239  0.6918 -0.7648  0.3112
 8366TIP3    H146513   5.207   1.736   4.144  1.4812  0.3695  0.4099
 8366TIP3    H246514   5.281   1.710   4.274  0.4451 -1.0307  0.7495
 8367TIP3   OH246515   2.942   6.720  10.618 -0.0301 -0.1176  0.6479
 8367TIP3    H146516   2.909   6.759  10.537  0.8425  1.2018  0.9078
 8367TIP3    H246517   2.941   6.791  10.682  3.3636  0.0728  0.6537
 8368TIP3   OH246518   2.451   5.891  12.901  1.1200  0.0862  0.7899
 8368TIP3    H146519   2.377   5.887  12.961  0.1368 -1.2020 -0.4413
 8368TIP3    H246520   2.520   5.937  12.950 -0.4151  1.1645  2.0090
 8369TIP3   OH246521   2.558   4.817  11.465  0.0603  0.2263 -0.5315
 8369TIP3    H146522   2.491   4.834  11.398  1.1672  1.1116 -1.4827
 8369TIP3    H246523   2.523   4.856  11.545 -2.5167 -3.1784  0.2247
 8370TIP3   OH246524   4.994   1.125  17.090  0.2206  0.1087 -0.0714
 8370TIP3    H146525   4.924   1.173  17.047  0.3981  1.3947  1.0193
 8370TIP3    H246526   4.949   1.054  17.137 -0.2564  0.3685 -0.1295
 8371TIP3   OH246527   4.753   2.608   6.289 -0.3982 -0.1316  0.4991
 8371TIP3    H146528   4.658   2.610   6.294 -0.3716  1.5392  0.9175
 8371TIP3    H246529   4.775   2.515   6.290 -1.9940 -0.5381  0.9871
 8372TIP3   OH246530   3.399   1.318   1.415  0.2791  0.0547  0.2735
 8372TIP3    H146531   3.410   1.396   1.361 -0.7824 -1.1995 -1.8572
 8372TIP3    H246532   3.311   1.326   1.451 -0.2662 -0.6736 -0.8641
 8373TIP3   OH246533   6.422   0.066   0.857  0.2841  0.4677 -0.2656
 8373TIP3    H146534   6.415  -0.025   0.827 -0.3178  0.3482  0.2018
 8373TIP3    H246535   6.462   0.113   0.784  0.2224 -0.0979 -0.6694
 8374TIP3   OH246536   3.512   5.358  12.226 -0.0359  0.1510  0.5103
 8374TIP3    H146537   3.452   5.367  12.301  0.4271 -0.9641  1.0244
 8374TIP3    H246538   3.589   5.314  12.262 -0.1524 -1.1832 -0.8025
 8375TIP3   OH246539   4.147   0.303   2.513  0.1964 -0.2531  0.5449
 8375TIP3    H146540   4.058   0.325   2.487  1.1528  3.7176 -0.0652
 8375TIP3    H246541   4.148   0.314   2.609 -0.6602 -3.8472  1.1073
 8376TIP3   OH246542   2.721   1.772  12.089  0.2576  0.0427 -0.0361
 8376TIP3    H146543   2.642   1.720  12.105 -0.0641 -0.2614 -2.3224
 8376TIP3    H246544   2.749   1.801  12.176 -1.6558 -0.8825  0.9370
 8377TIP3   OH246545   5.462   2.122  13.364 -0.0270  0.1955  0.6243
 8377TIP3    H146546   5.399   2.086  13.301 -1.4408  0.7823  1.6424
 8377TIP3    H246547   5.460   2.217  13.348  0.5604  0.2209  0.6979
 8378TIP3   OH246548   3.958   1.609   1.672  0.0301  0.3206 -0.7075
 8378TIP3    H146549   4.002   1.557   1.605  0.0172 -1.3325  0.5008
 8378TIP3    H246550   3.865   1.592   1.659  0.0196  0.1016 -0.3707
 8379TIP3   OH246551   3.353   6.356   3.088 -0.2881 -0.1375  0.0072
 8379TIP3    H146552   3.408   6.310   3.151  1.3723 -1.2520 -2.1311
 8379TIP3    H246553   3.353   6.447   3.117  0.2839 -0.6296  1.6547
 8380TIP3   OH246554   2.577   0.599  13.774  0.3377 -0.1577 -0.1847
 8380TIP3    H146555   2.612   0.687  13.759 -0.9210  0.5445  0.7964
 8380TIP3    H246556   2.651   0.540  13.759  1.8278  1.2119  1.4526
 8381TIP3   OH246557   5.673   0.668  17.273  0.6631 -0.4322 -0.2340
 8381TIP3    H146558   5.616   0.736  17.237  0.4999 -0.5819 -0.2623
 8381TIP3    H246559   5.617   0.619  17.333  1.3033  0.6898  1.3307
 8382TIP3   OH246560   2.624   2.866  16.475  0.2484  0.0316  0.2865
 8382TIP3    H146561   2.614   2.890  16.568 -0.2233  0.6176  0.0908
 8382TIP3    H246562   2.552   2.806  16.458 -0.2031  0.6128  0.0832
 8383TIP3   OH246563   3.704   1.902  13.424  0.4493  0.4726  0.1787
 8383TIP3    H146564   3.733   1.950  13.502  1.2325 -0.2473  0.3366
 8383TIP3    H246565   3.760   1.936  13.353  1.4004 -0.5826  0.3962
 8384TIP3   OH246566   2.486   1.806  15.504 -0.4062 -0.6466  0.0071
 8384TIP3    H146567   2.452   1.791  15.416 -0.9586  0.3183  0.0363
 8384TIP3    H246568   2.421   1.764  15.561 -1.6239  1.1848  0.0623
 8385TIP3   OH246569   6.706   4.755  11.771  0.0840  0.3210  0.0211
 8385TIP3    H146570   6.629   4.811  11.759 -1.6405 -1.9239 -0.2431
 8385TIP3    H246571   6.693   4.715  11.858  0.6557 -0.4874 -0.2507
 8386TIP3   OH246572   5.465   6.402   3.862  0.2071 -0.5725 -0.2312
 8386TIP3    H146573   5.403   6.330   3.845 -0.2789 -0.1225 -0.3966
 8386TIP3    H246574   5.542   6.379   3.810 -0.4179 -0.3563 -1.2885
 8387TIP3   OH246575   5.390   2.974   2.381  0.4358 -0.3102  0.8973
 8387TIP3    H146576   5.421   2.885   2.361  0.5850 -0.3001  1.0762
 8387TIP3    H246577   5.464   3.016   2.424  0.3444 -0.1172  0.8674
 8388TIP3   OH246578   6.082   6.399  14.347 -0.5487  0.6718 -0.3037
 8388TIP3    H146579   6.037   6.421  14.428  0.2372 -0.1899  0.3857
 8388TIP3    H246580   6.011   6.380  14.285 -1.1466  0.7001  0.3563
 8389TIP3   OH246581   5.390   6.489   5.997  0.2205 -0.7653  0.0659
 8389TIP3    H146582   5.315   6.436   6.024  0.8977 -1.4099  0.7000
 8389TIP3    H246583   5.465   6.430   6.002  0.9428  0.1603  0.4717
 8390TIP3   OH246584   3.813   4.397   5.694  0.0696  0.8505  0.3897
 8390TIP3    H146585   3.798   4.468   5.632  0.2882  0.6398  0.0898
 8390TIP3    H246586   3.908   4.381   5.689 -0.2362 -0.7799 -1.0120
 8391TIP3   OH246587   3.053   3.773  17.047  0.5702  0.2805  0.2339
 8391TIP3    H146588   3.020   3.782  16.957 -1.1615  1.8566  0.9558
 8391TIP3    H246589   2.983   3.725  17.093  0.8067  0.6910  1.0437
 8392TIP3   OH246590   5.235   3.591  13.293 -0.5991 -0.4050  0.6939
 8392TIP3    H146591   5.221   3.563  13.202  0.7621  0.4361  0.1894
 8392TIP3    H246592   5.163   3.652  13.310 -0.8046 -0.4816  0.1283
 8393TIP3   OH246593   2.960   5.022  11.067  0.5588  0.0693 -0.3055
 8393TIP3    H146594   2.970   5.109  11.026  1.0310  0.5489  0.7892
 8393TIP3    H246595   3.048   4.984  11.063  0.8002  0.4362  0.8942
 8394TIP3   OH246596   1.698   0.571  15.782  0.8151 -0.3819  0.0499
 8394TIP3    H146597   1.692   0.655  15.828  1.2112 -1.1560  1.5694
 8394TIP3    H246598   1.770   0.525  15.825 -0.1641 -1.9763  0.0446
 8395TIP3   OH246599   4.387   5.028  12.487  0.0693 -0.2463  0.4036
 8395TIP3    H146600   4.301   5.048  12.451 -0.4413 -1.4241  0.9075
 8395TIP3    H246601   4.378   4.939  12.522  1.6383 -0.6041 -0.0108
 8396TIP3   OH246602   1.486   0.806  14.121  0.6361 -0.4376 -0.9049
 8396TIP3    H146603   1.449   0.784  14.207 -1.2633  0.0104 -1.5723
 8396TIP3    H246604   1.516   0.722  14.086  0.8127 -0.7258 -0.0942
 8397TIP3   OH246605   1.272   3.997   4.700  0.0160 -0.8662 -0.2292
 8397TIP3    H146606   1.306   3.990   4.611  1.2827  0.2815  0.1275
 8397TIP3    H246607   1.291   3.912   4.739  1.1091 -0.7859 -0.5309
 8398TIP3   OH246608   2.856   5.188  17.377  0.5093  0.0081 -0.3362
 8398TIP3    H146609   2.878   5.254  17.444 -0.2738  0.2376 -0.2942
 8398TIP3    H246610   2.937   5.140  17.364  0.3354 -1.0366  1.8934
 8399TIP3   OH246611   4.616   5.401  13.056  0.0714  0.4446  0.0809
 8399TIP3    H146612   4.674   5.325  13.051 -0.8716 -0.4238  1.5735
 8399TIP3    H246613   4.663   5.470  13.009  1.9141 -0.4676  0.4967
 8400TIP3   OH246614   5.496   1.266  14.250 -0.0274  0.1656  0.0440
 8400TIP3    H146615   5.536   1.266  14.163  1.3246 -1.2142  0.6239
 8400TIP3    H246616   5.563   1.230  14.307 -1.4151 -0.3527  1.4175
 8401TIP3   OH246617   6.679   4.689  12.015 -0.3761 -0.3808 -0.1915
 8401TIP3    H146618   6.758   4.742  12.021 -0.8993  0.5754 -1.3432
 8401TIP3    H246619   6.671   4.648  12.101  1.7382 -1.0681 -0.2643
 8402TIP3   OH246620   6.036   2.749  17.264  0.3651  0.1685  0.1082
 8402TIP3    H146621   6.006   2.734  17.175 -0.1189 -0.9790  0.4365
 8402TIP3    H246622   6.058   2.661  17.296  0.1475  0.5147  1.2450
 8403TIP3   OH246623   3.717   0.302  14.964 -0.1861 -0.2032 -0.0684
 8403TIP3    H146624   3.644   0.287  15.024 -0.4418 -1.1646 -0.6006
 8403TIP3    H246625   3.706   0.236  14.896  0.1785  0.7809 -1.1074
 8404TIP3   OH246626   4.647   3.861  15.654  0.0994 -0.2366 -0.2065
 8404TIP3    H146627   4.657   3.782  15.706 -2.8527 -0.1590  0.6604
 8404TIP3    H246628   4.707   3.924  15.693  0.9271 -1.3945  0.4506
 8405TIP3   OH246629   6.151   2.762   4.080  0.2151  0.2413 -0.2514
 8405TIP3    H146630   6.141   2.832   4.016  2.4493  1.8747  1.0587
 8405TIP3    H246631   6.130   2.803   4.164 -1.0668 -1.4223  0.3079
 8406TIP3   OH246632   2.091   1.403   1.587 -0.4579  0.1500 -0.1951
 8406TIP3    H146633   2.078   1.342   1.660  1.3552  0.7539  0.6844
 8406TIP3    H246634   2.038   1.479   1.610  2.0662  1.4019  1.8648
 8407TIP3   OH246635   5.063   4.222  14.170  0.4106 -0.4970  0.2392
 8407TIP3    H146636   4.987   4.250  14.220 -0.4771  0.4403 -1.5163
 8407TIP3    H246637   5.036   4.142  14.126  0.7708 -0.6775  0.3413
 8408TIP3   OH246638   0.561   3.736   0.669  0.0883 -0.4887 -0.2980
 8408TIP3    H146639   0.566   3.695   0.583  0.7507  3.0644 -2.1604
 8408TIP3    H246640   0.467   3.747   0.685 -0.0286 -0.7461 -0.7776
 8409TIP3   OH246641   5.672   6.540   0.188  0.0342 -0.3549 -0.0494
 8409TIP3    H146642   5.695   6.496   0.270  1.2307 -0.3645 -0.3681
 8409TIP3    H246643   5.736   6.610   0.180  2.1544 -2.3559 -2.5895
 8410TIP3   OH246644   1.985   6.220   4.071  0.6127  0.8472  0.0257
 8410TIP3    H146645   1.920   6.149   4.070  0.5742  0.8043  1.8883
 8410TIP3    H246646   2.045   6.198   4.000  0.9245 -1.3978  0.9044
 8411TIP3   OH246647   1.138   1.696  12.380 -0.0426 -0.3740 -0.0703
 8411TIP3    H146648   1.198   1.621  12.372 -0.6295 -0.7191 -1.6774
 8411TIP3    H246649   1.081   1.688  12.304  0.8923  2.6123 -1.2240
 8412TIP3   OH246650   1.598   6.246  11.646  0.1624  0.8393 -0.1540
 8412TIP3    H146651   1.536   6.287  11.585 -1.6390  0.5381  1.3598
 8412TIP3    H246652   1.576   6.153  11.642  0.2911  0.7727  0.6617
 8413TIP3   OH246653   6.534   0.270  15.902  0.1111 -0.4348 -0.5079
 8413TIP3    H146654   6.463   0.234  15.955  1.3659 -0.5694  1.1853
 8413TIP3    H246655   6.574   0.194  15.860  0.8042 -0.7095  0.5844
 8414TIP3   OH246656   4.499   1.321  12.088  0.3882  0.0397  0.1774
 8414TIP3    H146657   4.552   1.245  12.066  0.5742 -0.1144  1.0943
 8414TIP3    H246658   4.536   1.353  12.171 -0.6404  0.2132  0.5915
 8415TIP3   OH246659   2.394   2.966  11.850  0.2827  0.0958 -0.2422
 8415TIP3    H146660   2.396   2.870  11.845 -0.5766  0.0256  0.5218
 8415TIP3    H246661   2.486   2.991  11.857  0.5410 -0.6524 -0.8074
 8416TIP3   OH246662   5.947   6.630   0.787  0.5018 -0.9254  0.2365
 8416TIP3    H146663   6.021   6.650   0.730  2.3890 -1.6907  2.2544
 8416TIP3    H246664   5.896   6.711   0.790  0.5726 -0.7232 -2.0794
 8417TIP3   OH246665   5.966   4.549  13.060 -0.7201  0.3905 -0.2642
 8417TIP3    H146666   5.941   4.642  13.056 -1.5629  0.2213  0.6373
 8417TIP3    H246667   5.949   4.524  13.151 -0.5882 -0.6784 -0.5190
 8418TIP3   OH246668   1.432   1.139  13.366  0.1007  0.7798  0.1645
 8418TIP3    H146669   1.461   1.087  13.441 -1.5082  0.2722  0.4810
 8418TIP3    H246670   1.487   1.217  13.367  0.8009  0.2857  1.2444
 8419TIP3   OH246671   4.704   5.283  11.214  1.1614 -0.1876  0.5401
 8419TIP3    H146672   4.782   5.306  11.163  1.4660  0.0244  1.0990
 8419TIP3    H246673   4.668   5.207  11.168  0.6870  0.7913 -0.7526
 8420TIP3   OH246674   1.409   5.789  12.052  0.4917 -0.5473  0.6558
 8420TIP3    H146675   1.423   5.838  12.132 -1.5662 -0.6976  1.1673
 8420TIP3    H246676   1.485   5.731  12.045  2.4307  1.8814  0.6016
 8421TIP3   OH246677   5.146   1.412   0.246  0.2132  0.0458  0.0334
 8421TIP3    H146678   5.191   1.469   0.183  0.3377 -0.8633 -0.7348
 8421TIP3    H246679   5.093   1.471   0.299  0.5736  0.9024 -0.5361
 8422TIP3   OH246680   6.192   1.238   0.433  0.4949 -0.2650  0.6681
 8422TIP3    H146681   6.131   1.296   0.479  2.0367  0.9544  1.2923
 8422TIP3    H246682   6.223   1.291   0.359 -0.4748 -1.5023 -0.6708
 8423TIP3   OH246683   0.636   4.458  12.247  0.3713  0.2051 -0.6578
 8423TIP3    H146684   0.661   4.527  12.186  1.0215  0.0082 -0.6188
 8423TIP3    H246685   0.676   4.379  12.212 -1.6384 -0.4864 -1.5712
 8424TIP3   OH246686   1.569   5.892  12.887  0.2559  0.8318  0.3802
 8424TIP3    H146687   1.505   5.947  12.841 -0.9107  1.3189  2.4809
 8424TIP3    H246688   1.652   5.938  12.877 -0.1412  1.4105 -0.3985
 8425TIP3   OH246689   4.876   2.694  15.821  0.4703 -0.3438 -0.1144
 8425TIP3    H146690   4.822   2.693  15.742 -0.0444  2.6746  0.0638
 8425TIP3    H246691   4.849   2.773  15.868  3.2029 -0.1390  1.3415
 8426TIP3   OH246692   6.608   5.399   2.826  0.0610  0.2054 -0.4683
 8426TIP3    H146693   6.674   5.458   2.790  0.5924 -0.4915 -0.6514
 8426TIP3    H246694   6.573   5.446   2.902  1.0940  0.3880 -0.0963
 8427TIP3   OH246695   4.860   1.334   4.529 -0.0028  0.2079 -0.0440
 8427TIP3    H146696   4.807   1.274   4.582  0.3195 -2.2264 -2.2264
 8427TIP3    H246697   4.869   1.289   4.445  1.3091  2.8599 -1.4404
 8428TIP3   OH246698   1.815   6.118  15.748 -0.0086  0.1898 -0.1893
 8428TIP3    H146699   1.723   6.127  15.724 -0.1525 -1.6487 -0.4894
 8428TIP3    H246700   1.855   6.076  15.671  0.3978 -1.9516  1.1188
 8429TIP3   OH246701   4.138   3.203  13.718 -0.2618  0.2176  0.1169
 8429TIP3    H146702   4.093   3.241  13.794  0.4488  1.4488 -0.0633
 8429TIP3    H246703   4.100   3.248  13.643  0.0518  0.0288 -0.1541
 8430TIP3   OH246704   1.308   0.893   1.393  0.5950  0.6087  0.0604
 8430TIP3    H146705   1.224   0.858   1.363  0.3056 -0.1137  1.5832
 8430TIP3    H246706   1.310   0.871   1.486  1.7530  2.0839  0.4082
 8431TIP3   OH246707   0.940   2.155   6.119 -0.2066  0.1662  0.0459
 8431TIP3    H146708   1.021   2.145   6.169 -0.4086  0.5140  0.4461
 8431TIP3    H246709   0.889   2.077   6.141 -0.0468  0.0266 -0.0797
 8432TIP3   OH246710   1.335   3.748   4.784  0.3106 -0.5128 -0.0780
 8432TIP3    H146711   1.415   3.695   4.788  1.2850  0.9399  1.2089
 8432TIP3    H246712   1.300   3.745   4.873  1.4539  2.4109  0.6108
 8433TIP3   OH246713   2.193   0.572   6.454  0.5470 -0.0166  0.4167
 8433TIP3    H146714   2.129   0.603   6.390 -0.0655 -0.6647  0.7008
 8433TIP3    H246715   2.199   0.478   6.438  2.1124  0.1675 -0.1986
 8434TIP3   OH246716   1.663   2.425  14.617 -0.0053  0.3505 -0.4756
 8434TIP3    H146717   1.688   2.367  14.546  1.6993 -0.8978  1.0740
 8434TIP3    H246718   1.625   2.367  14.684  0.0665  1.2455  0.3708
 8435TIP3   OH246719   1.191   5.093  16.812  0.2213  0.2203 -0.8908
 8435TIP3    H146720   1.231   5.175  16.841  2.6212 -1.1528 -0.0103
 8435TIP3    H246721   1.167   5.048  16.893  0.0752 -0.4545 -1.3029
 8436TIP3   OH246722   3.092   6.549  13.743 -0.4933  0.3574 -0.6796
 8436TIP3    H146723   3.105   6.526  13.651  0.8375  0.3571 -0.5038
 8436TIP3    H246724   3.152   6.491  13.791 -0.8104  0.7012  0.1500
 8437TIP3   OH246725   1.471   3.693  14.399  0.2153 -0.5630  0.0757
 8437TIP3    H146726   1.510   3.756  14.338 -1.5087 -0.2439 -0.7700
 8437TIP3    H246727   1.474   3.737  14.484  1.1678 -0.3405 -0.0537
 8438TIP3   OH246728   1.647   5.019  11.419 -0.2119 -0.0391  0.1317
 8438TIP3    H146729   1.593   4.941  11.410  0.7102 -0.6368 -0.4521
 8438TIP3    H246730   1.728   4.987  11.459 -0.3983  0.8889  1.2964
 8439TIP3   OH246731   2.028   4.578  14.013  0.0900  0.2268 -0.4884
 8439TIP3    H146732   1.934   4.585  14.000  0.2158  0.2760 -1.4299
 8439TIP3    H246733   2.038   4.514  14.083 -0.7361  2.0391  1.3974
 8440TIP3   OH246734   6.229   3.794   2.265 -0.3377 -0.3471  0.5215
 8440TIP3    H146735   6.309   3.847   2.267 -0.7738  0.2906  2.2059
 8440TIP3    H246736   6.166   3.847   2.217 -0.7442  0.6735  2.1162
 8441TIP3   OH246737   6.565   3.181  16.400 -0.3037 -0.2109 -0.2900
 8441TIP3    H146738   6.581   3.267  16.361 -0.1964  0.1177  0.4657
 8441TIP3    H246739   6.623   3.178  16.476 -0.2875 -0.9648 -0.3254
 8442TIP3   OH246740   6.550   3.075   2.021 -0.1381  0.2307  0.2527
 8442TIP3    H146741   6.598   3.134   2.080  2.3470 -0.9704 -0.4049
 8442TIP3    H246742   6.585   3.094   1.934 -1.8377  0.1637 -0.4736
 8443TIP3   OH246743   3.823   0.323   6.339  0.2743 -0.3577 -0.2851
 8443TIP3    H146744   3.861   0.284   6.417  0.3404  0.4525  0.0968
 8443TIP3    H246745   3.884   0.394   6.315  1.1059 -1.5751 -1.9978
 8444TIP3   OH246746   2.702   5.635  13.570  0.8142  0.6112 -0.6327
 8444TIP3    H146747   2.783   5.587  13.553  0.7556  0.1441  0.3760
 8444TIP3    H246748   2.633   5.569  13.564  0.2508  1.3103 -3.3338
 8445TIP3   OH246749   6.696   2.902  10.442 -0.2034  0.1679  0.1318
 8445TIP3    H146750   6.661   2.947  10.365  1.2197  2.2229  0.5961
 8445TIP3    H246751   6.714   2.813  10.412 -1.5452  0.3338 -1.3202
 8446TIP3   OH246752   0.251   4.876   2.889 -0.4828 -0.3805 -0.3312
 8446TIP3    H146753   0.177   4.851   2.944  1.0930 -0.7344  1.7449
 8446TIP3    H246754   0.309   4.926   2.946  1.0830 -0.4400 -1.7673
 8447TIP3   OH246755   2.899   0.664   1.020 -0.2459 -0.0909 -0.2960
 8447TIP3    H146756   2.820   0.617   0.994 -0.0500 -0.5532 -0.0736
 8447TIP3    H246757   2.969   0.600   1.008  0.4960  1.1190 -3.0623
 8448TIP3   OH246758   2.954   0.243  10.694 -0.1051  0.3158 -0.0029
 8448TIP3    H146759   2.861   0.223  10.708  0.4806 -1.9724  1.0276
 8448TIP3    H246760   2.961   0.256  10.599 -1.6850  2.0111  0.0457
 8449TIP3   OH246761   5.761   1.021   1.228  0.0702 -0.1399  0.0445
 8449TIP3    H146762   5.698   0.950   1.237  0.5098 -0.3853  1.4075
 8449TIP3    H246763   5.709   1.101   1.241 -0.7467 -0.0291 -3.0838
 8450TIP3   OH246764   3.255   1.161   0.405 -0.2408 -0.5357 -0.0525
 8450TIP3    H146765   3.206   1.108   0.342  0.7197  1.1551 -2.3573
 8450TIP3    H246766   3.327   1.198   0.354  0.5024  1.0650  2.0234
 8451TIP3   OH246767   2.013   5.600   4.592 -0.7027  0.0277  0.3777
 8451TIP3    H146768   1.979   5.648   4.668  0.5254  1.6562 -0.0464
 8451TIP3    H246769   2.108   5.604   4.601 -0.5335  0.0489 -1.1259
 8452TIP3   OH246770   0.862   3.228  11.117  0.1939  0.6686 -0.3938
 8452TIP3    H146771   0.927   3.211  11.049  0.1074 -1.3050 -0.0430
 8452TIP3    H246772   0.833   3.141  11.145 -0.1989  1.4245  1.7624
 8453TIP3   OH246773   2.942   1.347  16.303  0.2098  0.6776 -0.2635
 8453TIP3    H146774   2.870   1.409  16.292 -0.5707 -0.3351 -1.0636
 8453TIP3    H246775   3.013   1.399  16.341 -0.6302  1.9032 -0.3143
 8454TIP3   OH246776   4.678   6.164   6.082 -0.1654 -0.3291 -0.4960
 8454TIP3    H146777   4.726   6.113   6.147  0.0742  0.8408  0.2882
 8454TIP3    H246778   4.612   6.104   6.047 -1.0822 -0.6666  1.6784
 8455TIP3   OH246779   5.353   5.301  13.891 -0.1824 -0.2379 -0.1970
 8455TIP3    H146780   5.311   5.304  13.978  0.1325 -0.9831 -0.0092
 8455TIP3    H246781   5.432   5.354  13.901 -1.0391  1.1474 -0.5420
 8456TIP3   OH246782   6.657   6.410   1.145  0.2985 -0.2734  0.0951
 8456TIP3    H146783   6.743   6.402   1.104  0.5159 -0.4814  0.5803
 8456TIP3    H246784   6.667   6.367   1.230 -0.2958 -0.3281  0.1417
 8457TIP3   OH246785   5.555   1.187  12.937  0.4068 -0.4151 -0.1323
 8457TIP3    H146786   5.571   1.273  12.897 -0.0429  0.0240  0.6063
 8457TIP3    H246787   5.564   1.125  12.864  2.1954  0.0982 -0.3855
 8458TIP3   OH246788   2.276   3.324   4.908 -0.0715 -0.1198  0.0375
 8458TIP3    H146789   2.227   3.255   4.862  0.3627 -0.2948 -0.1692
 8458TIP3    H246790   2.362   3.286   4.923 -0.2618 -0.1402  1.1788
 8459TIP3   OH246791   1.924   1.597   0.424 -0.3908  0.0819 -0.4748
 8459TIP3    H146792   1.897   1.613   0.333 -2.0821 -0.6058 -0.1292
 8459TIP3    H246793   2.019   1.611   0.423 -0.6765  2.3748 -1.8228
 8460TIP3   OH246794   1.201   3.527   5.653 -0.2288  0.3221 -0.1597
 8460TIP3    H146795   1.130   3.579   5.692 -0.3716 -0.9372  1.3753
 8460TIP3    H246796   1.270   3.591   5.634 -1.1318  1.3311 -0.1520
 8461TIP3   OH246797   5.243   2.539  11.429 -0.0543  0.8668 -0.2084
 8461TIP3    H146798   5.307   2.468  11.432  0.2827  1.1376 -0.8668
 8461TIP3    H246799   5.159   2.494  11.419 -0.0316  0.4928  1.1499
 8462TIP3   OH246800   0.579   3.290  13.369  0.2226 -0.0782 -0.1364
 8462TIP3    H146801   0.640   3.249  13.430  0.9949 -0.0936 -0.9024
 8462TIP3    H246802   0.516   3.221  13.348 -0.6499  0.2113  1.3885
 8463TIP3   OH246803   5.046   3.216   4.432  0.1806 -0.2338 -0.2564
 8463TIP3    H146804   5.011   3.253   4.513 -0.4189  0.9055 -1.0063
 8463TIP3    H246805   5.007   3.129   4.426 -0.3917 -0.0180  0.2839
 8464TIP3   OH246806   4.914   2.104   0.501  0.0909  0.0360  0.6118
 8464TIP3    H146807   4.930   2.157   0.424  0.7073 -0.1127  0.6311
 8464TIP3    H246808   4.820   2.084   0.498  0.5232 -2.1300 -1.5112
 8465TIP3   OH246809   4.458   2.083   2.225 -0.0029 -0.7826  0.0324
 8465TIP3    H146810   4.490   2.173   2.228  0.8703 -0.9405 -2.3377
 8465TIP3    H246811   4.537   2.029   2.236 -0.4285 -1.2778  0.7738
 8466TIP3   OH246812   5.044   1.339   3.718  0.0570  0.2198  0.3372
 8466TIP3    H146813   5.094   1.361   3.639 -2.1570  0.1203 -1.2018
 8466TIP3    H246814   4.981   1.411   3.727  0.1373  0.1271  1.9269
 8467TIP3   OH246815   6.453   2.688  11.171 -0.2761 -0.0346 -0.6506
 8467TIP3    H146816   6.440   2.607  11.121 -2.1920 -0.2435  0.0902
 8467TIP3    H246817   6.383   2.687  11.236 -0.2069  2.1104 -0.4713
 8468TIP3   OH246818   4.025   1.933  15.559 -0.1789  0.3290 -0.6320
 8468TIP3    H146819   3.975   1.851  15.563  1.0259 -0.5394 -2.2098
 8468TIP3    H246820   3.968   1.998  15.600 -1.0140 -1.3593  1.0112
 8469TIP3   OH246821   3.038   4.725   1.182  0.6155  0.4335  0.5632
 8469TIP3    H146822   2.974   4.724   1.110  1.0166 -0.5949  0.2045
 8469TIP3    H246823   3.002   4.787   1.245  0.0505  1.0457 -0.3421
 8470TIP3   OH246824   1.596   4.403  13.929 -0.1176 -0.5336  0.1015
 8470TIP3    H146825   1.630   4.327  13.976 -0.5499  0.5951  2.3676
 8470TIP3    H246826   1.668   4.428  13.870  1.4209 -0.6532  1.8207
 8471TIP3   OH246827   0.046   3.848  15.717 -0.4109 -0.1803  0.3573
 8471TIP3    H146828   0.027   3.942  15.712  2.3148  0.4220 -0.3793
 8471TIP3    H246829   0.095   3.829  15.637  0.3918 -1.9105  1.2020
 8472TIP3   OH246830   4.819   0.100   0.137 -0.1576  0.0703 -0.4270
 8472TIP3    H146831   4.737   0.150   0.140  0.4692  1.1935  2.9714
 8472TIP3    H246832   4.830   0.070   0.227  3.3424  0.2546 -0.6869
 8473TIP3   OH246833   3.270   1.529  13.052  0.3527 -0.1120 -0.5823
 8473TIP3    H146834   3.232   1.563  12.970 -0.6471  0.5480  0.1234
 8473TIP3    H246835   3.290   1.608  13.103 -2.4444 -0.4699  1.2897
 8474TIP3   OH246836   3.166   3.574  15.916  0.8037 -0.2818  0.1816
 8474TIP3    H146837   3.112   3.505  15.953  0.3534  0.5378  1.0806
 8474TIP3    H246838   3.191   3.541  15.829 -1.8342 -0.3394 -0.6367
 8475TIP3   OH246839   3.515   4.881   2.084 -0.1623  0.2260 -0.2840
 8475TIP3    H146840   3.566   4.921   2.013  0.8855  1.0701  0.8864
 8475TIP3    H246841   3.514   4.947   2.153  0.7111 -1.3427  1.3214
 8476TIP3   OH246842   1.754   2.260  15.651 -0.2728  0.2893 -0.3252
 8476TIP3    H146843   1.812   2.279  15.577 -1.4314  1.5145 -0.9632
 8476TIP3    H246844   1.720   2.172  15.632 -0.0774  0.3364 -0.9273
 8477TIP3   OH246845   1.157   0.282   5.371  0.1112 -0.1786 -0.0993
 8477TIP3    H146846   1.088   0.319   5.316  0.8310  0.2728 -0.7364
 8477TIP3    H246847   1.125   0.290   5.460  0.0575  1.6572 -0.2406
 8478TIP3   OH246848   5.706   1.900   3.165 -0.0673  0.4123 -0.6971
 8478TIP3    H146849   5.662   1.896   3.250  0.1166  1.2071 -0.5608
 8478TIP3    H246850   5.716   1.808   3.139  1.3703  0.0455  0.9255
 8479TIP3   OH246851   0.130   2.645   3.657 -0.1966 -0.9359  0.0672
 8479TIP3    H146852   0.065   2.712   3.638  0.0636 -0.8612 -0.5735
 8479TIP3    H246853   0.159   2.614   3.572 -0.9520 -2.4965  0.3240
 8480TIP3   OH246854   5.202   6.257   1.445 -0.1558 -0.3091 -0.2123
 8480TIP3    H146855   5.264   6.184   1.436 -0.3077 -0.6420  1.2803
 8480TIP3    H246856   5.236   6.324   1.385  1.0694 -0.8827 -0.1888
 8481TIP3   OH246857   4.924   5.335   5.294  0.0890  0.2882  0.1070
 8481TIP3    H146858   4.967   5.292   5.220  0.1266 -0.0375  0.3157
 8481TIP3    H246859   4.896   5.263   5.350 -0.7521  0.5021 -0.0333
 8482TIP3   OH246860   4.523   2.307  15.615  0.4106  0.6187  0.5953
 8482TIP3    H146861   4.602   2.258  15.591 -0.1890  0.4512 -1.1819
 8482TIP3    H246862   4.555   2.375  15.674  1.7280 -0.0664  0.7191
 8483TIP3   OH246863   3.461   1.918   2.003 -0.0069 -0.1701 -0.6435
 8483TIP3    H146864   3.397   1.978   2.040  1.0732  0.6572 -0.0437
 8483TIP3    H246865   3.480   1.954   1.916  1.5612  1.1450  0.1865
 8484TIP3   OH246866   2.651   0.933  17.183 -0.4231  0.3569  0.3033
 8484TIP3    H146867   2.743   0.957  17.171 -0.2552 -0.1376  0.5945
 8484TIP3    H246868   2.609   1.015  17.210 -0.2967  0.8676 -0.9542
 8485TIP3   OH246869   1.168   4.867   4.718 -0.5638  0.4143  0.4645
 8485TIP3    H146870   1.199   4.887   4.806  0.9660 -1.5637  0.4270
 8485TIP3    H246871   1.245   4.833   4.672 -1.4231  0.9945 -1.5273
 8486TIP3   OH246872   5.201   3.050   5.325 -0.1591 -0.3737 -0.1638
 8486TIP3    H146873   5.183   3.009   5.409 -1.2822  0.8227  0.2209
 8486TIP3    H246874   5.245   3.132   5.347  1.1906 -0.8896 -0.8597
 8487TIP3   OH246875   2.029   5.355   4.049 -0.7592 -0.1631  0.2699
 8487TIP3    H146876   1.990   5.268   4.058  0.4191 -0.5577  2.4022
 8487TIP3    H246877   2.105   5.353   4.108 -0.3694  2.1264 -0.0646
 8488TIP3   OH246878   2.112   4.837  16.612 -0.3338  0.3488 -0.0116
 8488TIP3    H146879   2.132   4.744  16.604 -0.0085  0.4528 -0.4536
 8488TIP3    H246880   2.192   4.882  16.585  0.1482  0.7670  2.0112
 8489TIP3   OH246881   4.767   0.658  16.644  0.1567 -0.3895 -0.3736
 8489TIP3    H146882   4.702   0.670  16.712  0.5539  0.3279 -0.1106
 8489TIP3    H246883   4.732   0.587  16.589 -1.3878  0.7102 -0.8892
 8490TIP3   OH246884   2.598   0.751   1.547  0.1572 -0.3263 -0.6912
 8490TIP3    H146885   2.683   0.707   1.552  0.4149 -0.2917 -3.3546
 8490TIP3    H246886   2.538   0.692   1.594  1.5572 -0.5222  0.9172
 8491TIP3   OH246887   4.780   6.348   4.805 -0.1493 -0.4128  0.5927
 8491TIP3    H146888   4.714   6.282   4.826 -0.7398 -0.3696 -0.9679
 8491TIP3    H246889   4.821   6.316   4.724  1.5537 -0.2870  1.3620
 8492TIP3   OH246890   6.061   2.814   5.044  0.2864 -0.3348 -0.2899
 8492TIP3    H146891   5.968   2.800   5.026  0.2339  0.6017 -0.7791
 8492TIP3    H246892   6.093   2.865   4.970  1.1664 -0.5432 -0.0673
 8493TIP3   OH246893   0.107   3.538  12.958  0.2193 -0.2083  0.3773
 8493TIP3    H146894   0.119   3.486  12.879 -1.7112 -0.3459  0.1102
 8493TIP3    H246895   0.075   3.475  13.023  1.6492 -0.0679  1.2425
 8494TIP3   OH246896   1.842   5.316   5.223  0.1590  0.0630  0.8342
 8494TIP3    H146897   1.818   5.278   5.138  1.1127  2.5976 -0.7055
 8494TIP3    H246898   1.765   5.303   5.278 -1.3829  0.2850 -1.1442
 8495TIP3   OH246899   3.942   1.160   5.978 -0.1349  0.0751 -0.6251
 8495TIP3    H146900   3.847   1.146   5.978 -0.0769 -0.3238 -0.6961
 8495TIP3    H246901   3.956   1.228   6.044 -0.3478 -0.7070  0.2308
 8496TIP3   OH246902   1.165   5.505  12.521  0.0424  0.1075  0.1358
 8496TIP3    H146903   1.159   5.580  12.463  1.0359 -0.0849 -0.2464
 8496TIP3    H246904   1.229   5.531  12.588 -0.6086  0.0907  0.7800
 8497TIP3   OH246905   3.800   1.876   5.690  0.0601  0.1561 -0.8194
 8497TIP3    H146906   3.869   1.903   5.630  0.7090  1.3469  0.3854
 8497TIP3    H246907   3.820   1.785   5.710 -0.0605 -0.1989 -2.2270
 8498TIP3   OH246908   1.544   0.436   3.733 -0.2354  0.0355 -0.3403
 8498TIP3    H146909   1.491   0.384   3.673 -2.9649  1.8789  0.2607
 8498TIP3    H246910   1.571   0.512   3.682  1.0631 -0.4046 -0.3466
 8499TIP3   OH246911   2.466   1.559  17.354 -0.1529  0.2016 -0.2977
 8499TIP3    H146912   2.558   1.542  17.374  1.5568  1.4203 -5.4613
 8499TIP3    H246913   2.449   1.646  17.389  0.4475 -0.2375  1.1350
 8500TIP3   OH246914   5.140   5.843   2.402 -0.3059  0.2316  0.2858
 8500TIP3    H146915   5.066   5.829   2.344 -0.2636  0.7344  0.1065
 8500TIP3    H246916   5.172   5.931   2.380 -0.7409  0.7408  1.5651
 8501TIP3   OH246917   1.140   4.678  13.447 -0.4712 -0.0001 -0.3248
 8501TIP3    H146918   1.182   4.714  13.526 -2.0339 -0.3823  0.7295
 8501TIP3    H246919   1.195   4.604  13.423  0.5005  0.6249 -0.1064
 8502TIP3   OH246920   4.344   5.386  13.109 -0.5570  0.1278  0.9702
 8502TIP3    H146921   4.410   5.316  13.110 -0.5194  0.1633  1.7795
 8502TIP3    H246922   4.391   5.464  13.138 -0.6961  0.3983  0.4643
 8503TIP3   OH246923   0.227   0.486   2.259 -0.2992  0.2365  0.2975
 8503TIP3    H146924   0.165   0.550   2.294 -1.6832 -1.1497  0.5277
 8503TIP3    H246925   0.262   0.527   2.180 -1.3659  1.1509  0.2718
 8504TIP3   OH246926   5.315   4.208   3.577  0.2041 -0.0149 -0.3850
 8504TIP3    H146927   5.280   4.162   3.653  2.9154 -1.1163  0.3274
 8504TIP3    H246928   5.340   4.138   3.517  0.0193  0.7686 -1.3962
 8505TIP3   OH246929   5.664   2.785   1.483  0.1322  0.0231  0.1843
 8505TIP3    H146930   5.647   2.762   1.575 -2.6131  0.1972 -0.2060
 8505TIP3    H246931   5.584   2.830   1.455  1.0553  0.2706 -2.2234
 8506TIP3   OH246932   5.794   0.974  16.218 -0.0436 -0.6050  0.1004
 8506TIP3    H146933   5.840   0.999  16.298 -0.5758  1.1106 -0.0932
 8506TIP3    H246934   5.707   1.013  16.228 -0.2458 -0.7234 -1.1312
 8507TIP3   OH246935   3.897   1.253   5.697 -0.5364 -0.2104 -0.4305
 8507TIP3    H146936   3.820   1.294   5.736  0.2482  0.6937  0.1914
 8507TIP3    H246937   3.955   1.236   5.770  0.8643  1.3059 -1.1253
 8508TIP3   OH246938   0.926   6.127   2.604 -0.0886 -0.0918 -0.6732
 8508TIP3    H146939   0.976   6.051   2.574 -1.2225 -0.0071 -2.9927
 8508TIP3    H246940   0.840   6.116   2.564 -0.4310  2.1947 -0.6914
 8509TIP3   OH246941   4.728   1.641   0.539  0.4714  0.2015  0.3663
 8509TIP3    H146942   4.646   1.598   0.515 -0.8292  1.7169  1.8240
 8509TIP3    H246943   4.792   1.570   0.546 -0.7669 -1.0490 -0.5343
 8510TIP3   OH246944   1.007   1.405   3.842 -0.0714  0.8297 -0.5189
 8510TIP3    H146945   0.982   1.452   3.763  0.4341  1.8229 -0.1003
 8510TIP3    H246946   1.097   1.375   3.824 -0.4022 -0.0212 -0.7975
 8511TIP3   OH246947   0.660   4.464  11.656 -0.0106  0.0544  0.4687
 8511TIP3    H146948   0.616   4.497  11.734  0.5334  1.4235  0.2361
 8511TIP3    H246949   0.734   4.524  11.643 -0.1764 -0.0393 -1.1720
 8512TIP3   OH246950   0.031   1.950  15.823  0.2928  0.1006  0.3574
 8512TIP3    H146951   0.000   1.876  15.770  1.2296  0.8697 -1.3610
 8512TIP3    H246952   0.065   1.910  15.902 -0.3872 -1.1887  0.0392
 8513TIP3   OH246953   1.127   0.209  15.985 -0.0987 -0.5200 -0.4131
 8513TIP3    H146954   1.129   0.264  15.906  2.0435 -0.1633 -0.1581
 8513TIP3    H246955   1.076   0.259  16.048  0.0242  0.2040 -0.8779
 8514TIP3   OH246956   5.452   1.722  15.238  0.0195 -0.3283  0.1687
 8514TIP3    H146957   5.468   1.803  15.286  0.2608  0.0234 -0.5076
 8514TIP3    H246958   5.460   1.653  15.305  0.2505  0.1669  0.6542
 8515TIP3   OH246959   3.378   4.121   5.086  0.0099 -0.4079 -0.4799
 8515TIP3    H146960   3.294   4.137   5.129  0.3358 -1.7283  0.6917
 8515TIP3    H246961   3.439   4.181   5.129  0.0351 -0.7011 -0.1083
 8516TIP3   OH246962   1.242   2.946   5.015  0.1754 -0.4278 -0.8716
 8516TIP3    H146963   1.265   2.965   4.924  1.2925 -2.2725 -1.0263
 8516TIP3    H246964   1.182   2.871   5.010  1.8312 -1.8996 -0.0759
 8517TIP3   OH246965   0.042   5.086   5.032 -0.5119 -0.0015 -0.2396
 8517TIP3    H146966  -0.008   5.017   4.988  0.3297 -0.6951 -0.1469
 8517TIP3    H246967   0.089   5.040   5.102 -1.1633  0.9429  0.8489
 8518TIP3   OH246968   4.255   3.562  11.483  0.3932  0.3135  0.0081
 8518TIP3    H146969   4.306   3.600  11.555 -0.9324  0.3180  0.9852
 8518TIP3    H246970   4.175   3.615  11.480  1.1760  1.4800 -2.6851
 8519TIP3   OH246971   2.738   5.477  15.039 -0.2930 -0.0585  0.6223
 8519TIP3    H146972   2.826   5.464  15.073  0.4997  0.5535 -1.0796
 8519TIP3    H246973   2.746   5.460  14.945 -1.8790  0.4687  0.3591
 8520TIP3   OH246974   4.724   3.750  13.731  0.3249  0.2618 -0.4425
 8520TIP3    H146975   4.715   3.736  13.636 -0.7026  3.0089 -0.8597
 8520TIP3    H246976   4.649   3.706  13.769 -0.2500  0.6377 -1.1195
 8521TIP3   OH246977   1.242   3.886   4.189  0.7749 -0.3155 -0.2069
 8521TIP3    H146978   1.213   3.796   4.174 -1.2882  0.2124  0.3021
 8521TIP3    H246979   1.204   3.936   4.117  1.0436  0.2990  0.0718
 8522TIP3   OH246980   2.913   5.024   5.747  0.2862  0.4426  0.0465
 8522TIP3    H146981   2.965   5.072   5.681 -1.5109 -0.5506 -2.2100
 8522TIP3    H246982   2.828   5.010   5.705 -0.6536 -1.0233  2.2841
 8523TIP3   OH246983   0.825   3.716  12.159 -0.0673  0.3052 -0.1936
 8523TIP3    H146984   0.732   3.702  12.174 -0.2551  0.8590 -0.7716
 8523TIP3    H246985   0.851   3.778  12.228  0.0649 -0.4615  0.4592
 8524TIP3   OH246986   4.307   1.653  11.837 -0.3253 -0.0100 -0.0202
 8524TIP3    H146987   4.278   1.689  11.754 -1.9970 -0.9224  0.1276
 8524TIP3    H246988   4.355   1.724  11.879 -1.2558  1.1562 -0.8728
 8525TIP3   OH246989   5.419   1.807   3.655 -0.0393  0.1743  0.2792
 8525TIP3    H146990   5.415   1.733   3.715 -0.6524  0.6509  0.8335
 8525TIP3    H246991   5.424   1.884   3.712  0.5381  0.5692 -0.2875
 8526TIP3   OH246992   2.202   3.101   4.695  0.3335 -0.2915 -0.3916
 8526TIP3    H146993   2.268   3.063   4.753  0.2577  1.2493  0.7835
 8526TIP3    H246994   2.246   3.112   4.611  0.6027 -2.1178 -0.5119
 8527TIP3   OH246995   4.095   3.331   1.107 -0.0307 -0.0590  0.3311
 8527TIP3    H146996   4.046   3.269   1.161 -0.4366 -0.0953 -0.0743
 8527TIP3    H246997   4.110   3.284   1.025 -0.6387  0.4992 -0.1027
 8528TIP3   OH246998   0.325   6.012   5.187 -0.0055 -0.0853 -0.4002
 8528TIP3    H146999   0.327   5.963   5.269  0.2465 -0.8114 -0.8294
 8528TIP3    H247000   0.404   5.984   5.141  0.0210  0.5599 -0.7551
 8529TIP3   OH247001   4.815   3.759   1.151 -0.4413 -0.0815 -0.1639
 8529TIP3    H147002   4.754   3.687   1.165 -0.7705 -0.1085 -1.5663
 8529TIP3    H247003   4.901   3.716   1.143 -0.6340 -0.3224 -0.9806
 8530TIP3   OH247004   6.054   4.751  11.748 -0.1714 -0.0497  0.9422
 8530TIP3    H147005   6.020   4.689  11.813  0.8240  0.5106  2.0458
 8530TIP3    H247006   6.080   4.697  11.674 -2.3697 -0.6047  0.4960
 8531TIP3   OH247007   5.899   3.375   0.052 -0.7965 -0.5496 -0.1200
 8531TIP3    H147008   5.906   3.436  -0.022 -0.8800 -0.8811 -0.4049
 8531TIP3    H247009   5.955   3.412   0.120 -0.7919 -0.1942 -0.3194
 8532TIP3   OH247010   2.676   0.462   2.041 -0.0184  0.1684 -0.1100
 8532TIP3    H147011   2.590   0.463   2.001  0.9410 -1.0843 -2.3714
 8532TIP3    H247012   2.705   0.371   2.034  0.8567  0.2004  2.1259
 8533TIP3   OH247013   5.967   4.053   0.847 -0.2145 -0.3762  0.0521
 8533TIP3    H147014   6.007   4.139   0.833  1.5575 -1.1497  0.0508
 8533TIP3    H247015   5.976   4.038   0.941 -1.5615 -0.0931  0.2390
 8534TIP3   OH247016   3.594   1.876  16.044  0.0831 -0.6072  0.5549
 8534TIP3    H147017   3.648   1.813  15.997  0.6981  0.0444  0.3788
 8534TIP3    H247018   3.546   1.823  16.108 -0.0953 -1.3718 -0.2018
 8535TIP3   OH247019   4.039   6.761  14.721 -0.4789  0.1127  0.0951
 8535TIP3    H147020   4.112   6.815  14.690  1.3879 -2.3724 -0.1584
 8535TIP3    H247021   4.000   6.726  14.641 -2.6577  2.1107  0.1667
 8536TIP3   OH247022   1.641   3.275   1.973 -0.1899  0.3027  0.1403
 8536TIP3    H147023   1.698   3.251   2.047  0.7592 -0.1888 -0.7275
 8536TIP3    H247024   1.552   3.265   2.007  0.2225  0.7206  1.4164
 8537TIP3   OH247025   1.393   4.243   0.786 -0.6132  0.0118  0.1289
 8537TIP3    H147026   1.449   4.252   0.709 -0.7834 -2.0228 -0.2996
 8537TIP3    H247027   1.309   4.281   0.760 -0.5518 -0.3230 -0.5746
 8538TIP3   OH247028   3.406   5.956   1.925  0.5611 -0.4471  0.1717
 8538TIP3    H147029   3.325   5.917   1.958  0.7133 -0.3652  0.6432
 8538TIP3    H247030   3.432   6.018   1.993  0.7243 -0.0733 -0.2326
 8539TIP3   OH247031   3.937   2.476  11.183  0.1622 -0.0295  0.3412
 8539TIP3    H147032   3.967   2.557  11.142  0.0869  0.8046  1.8724
 8539TIP3    H247033   4.015   2.421  11.188 -0.1150 -0.7758 -2.2305
 8540TIP3   OH247034   2.944   5.932   0.540  0.6794 -0.0484  0.0839
 8540TIP3    H147035   2.996   5.936   0.621  0.3772 -0.3120  0.2922
 8540TIP3    H247036   3.006   5.956   0.471  0.2790  2.9146  0.6546
 8541TIP3   OH247037   6.010   6.559   0.233 -0.0194 -0.6737 -0.2013
 8541TIP3    H147038   6.055   6.609   0.165 -1.5097  1.4274  0.2894
 8541TIP3    H247039   5.965   6.624   0.286  1.6479 -2.1233  3.3158
 8542TIP3   OH247040   6.172   0.395  15.705  0.3616  0.6298 -0.2564
 8542TIP3    H147041   6.229   0.328  15.667  0.8141  1.8658 -1.8767
 8542TIP3    H247042   6.091   0.350  15.724  0.5869 -0.3570 -1.4933
 8543TIP3   OH247043   3.573   6.212  13.144  0.3801  0.4824 -0.0352
 8543TIP3    H147044   3.485   6.212  13.181  0.5672 -1.3319  0.5098
 8543TIP3    H247045   3.603   6.122  13.153  1.9752  0.8723 -0.9991
 8544TIP3   OH247046   3.267   3.945   0.422 -0.0748  0.1802  0.0965
 8544TIP3    H147047   3.278   3.874   0.359  0.1208 -1.2319  1.6706
 8544TIP3    H247048   3.191   3.920   0.475  2.6644 -1.3822  3.7223
 8545TIP3   OH247049   0.646   2.729  13.050  0.7197 -0.2399 -0.7401
 8545TIP3    H147050   0.566   2.721  12.999  0.5869  0.7551 -0.7152
 8545TIP3    H247051   0.629   2.803  13.109  1.7598  0.1652 -0.9387
 8546TIP3   OH247052   3.196   6.066  15.784 -0.5285 -0.6349  0.2593
 8546TIP3    H147053   3.242   6.017  15.716 -2.6419 -1.5760 -0.5995
 8546TIP3    H247054   3.192   6.005  15.858  0.5567 -0.1254  0.7585
 8547TIP3   OH247055   2.735   2.310   6.498 -0.0090  0.1461 -0.0842
 8547TIP3    H147056   2.741   2.260   6.417 -1.2000  0.9369 -0.7033
 8547TIP3    H247057   2.673   2.381   6.478 -1.2630 -0.3081  1.8455
 8548TIP3   OH247058   4.910   5.773  10.919 -0.0024 -0.0543  0.4045
 8548TIP3    H147059   4.962   5.786  10.840 -0.5053  0.1697  0.1072
 8548TIP3    H247060   4.862   5.855  10.930  0.0902 -0.0711  0.9635
 8549TIP3   OH247061   4.505   5.641  17.326 -0.2892 -0.7985 -0.1090
 8549TIP3    H147062   4.424   5.693  17.332 -0.6908 -1.1474 -1.8467
 8549TIP3    H247063   4.526   5.641  17.233  0.6487 -2.3510  0.0689
 8550TIP3   OH247064   6.432   5.947  14.348  0.3058  0.5965  0.4734
 8550TIP3    H147065   6.491   5.872  14.335  2.3615  2.2787 -0.5017
 8550TIP3    H247066   6.431   5.960  14.443 -1.0075 -1.2907  0.7831
 8551TIP3   OH247067   3.700   3.166   2.689 -0.3430 -0.7277 -0.1231
 8551TIP3    H147068   3.774   3.141   2.634 -0.5576  1.3481 -1.4800
 8551TIP3    H247069   3.729   3.150   2.779  2.8443  2.4415 -0.3995
 8552TIP3   OH247070   2.654   4.251   1.738  0.3739 -0.3828  0.7482
 8552TIP3    H147071   2.729   4.229   1.793  0.0766  0.0288  1.3286
 8552TIP3    H247072   2.585   4.276   1.800  0.4124  1.3192  0.1654
 8553TIP3   OH247073   1.884   1.234  15.492  0.0539 -0.2384 -0.2261
 8553TIP3    H147074   1.790   1.218  15.483  0.2854 -0.9425 -1.4607
 8553TIP3    H247075   1.892   1.329  15.486 -0.6661 -0.0727  0.9397
 8554TIP3   OH247076   5.569   6.320  14.084  0.1627 -0.4757  0.1601
 8554TIP3    H147077   5.551   6.364  14.002 -0.0898 -0.5456  0.1764
 8554TIP3    H247078   5.635   6.375  14.127 -0.7705  0.3555  0.5678
 8555TIP3   OH247079   6.229   4.399  11.828 -0.4583 -0.6609 -0.2204
 8555TIP3    H147080   6.302   4.376  11.885 -0.5808 -0.5346 -0.0086
 8555TIP3    H247081   6.257   4.372  11.741  1.6643  3.1881 -0.9568
 8556TIP3   OH247082   4.029   0.812   0.159  0.1350 -0.2628  0.1033
 8556TIP3    H147083   4.112   0.843   0.198  0.4451  0.6528 -1.2129
 8556TIP3    H247084   3.962   0.844   0.219  0.7447 -1.8241  1.7008
 8557TIP3   OH247085   2.097   4.148  14.046  0.0468  0.1231 -0.3412
 8557TIP3    H147086   2.114   4.087  14.118 -2.0520  0.5921  0.6250
 8557TIP3    H247087   2.131   4.105  13.968 -0.1374 -1.6499  0.5235
 8558TIP3   OH247088   3.398   4.739  13.405 -0.3569 -0.1885  0.1594
 8558TIP3    H147089   3.428   4.829  13.390  1.2630 -0.6864  0.1302
 8558TIP3    H247090   3.477   4.693  13.435 -0.8158 -1.9145 -1.1565
 8559TIP3   OH247091   0.495   1.113   2.099 -0.2278 -0.6755 -0.4394
 8559TIP3    H147092   0.575   1.164   2.108  0.0714 -1.3666  1.2038
 8559TIP3    H247093   0.508   1.037   2.157 -2.7775  0.1253  1.4074
 8560TIP3   OH247094   6.075   3.314   4.837 -0.6187 -0.2623  0.0887
 8560TIP3    H147095   6.005   3.252   4.858 -0.6092 -0.0808  0.6715
 8560TIP3    H247096   6.115   3.334   4.921  0.3435 -0.6057 -0.2691
 8561TIP3   OH247097   4.538   4.172  11.547 -0.5132  0.6264 -0.4620
 8561TIP3    H147098   4.595   4.249  11.550 -1.4823  1.5322 -2.7993
 8561TIP3    H247099   4.470   4.190  11.612  0.0319  1.0693  0.0013
 8562TIP3   OH247100   5.103   2.577   4.598 -0.0778 -0.2350  0.2325
 8562TIP3    H147101   5.141   2.539   4.519  1.6895 -1.8008  1.7153
 8562TIP3    H247102   5.018   2.535   4.607  0.2697 -1.0348 -0.1564
 8563TIP3   OH247103   5.878   0.026  11.638 -0.0984 -0.2471 -0.3097
 8563TIP3    H147104   5.820   0.084  11.686 -0.4638 -1.1485  0.3481
 8563TIP3    H247105   5.880   0.062  11.549 -1.2291  0.1023 -0.2005
 8564TIP3   OH247106   1.435   5.301   0.660  0.0759 -0.0020  0.0220
 8564TIP3    H147107   1.411   5.308   0.567  1.5252 -1.7646 -0.5619
 8564TIP3    H247108   1.524   5.265   0.658  0.8022  1.5057  2.1053
 8565TIP3   OH247109   0.984   2.676   0.510 -0.1983  0.0186 -0.5139
 8565TIP3    H147110   0.942   2.590   0.519  2.7358 -1.3924  1.5997
 8565TIP3    H247111   1.033   2.669   0.427  1.0558 -0.9608  0.2560
 8566TIP3   OH247112   6.726   5.921  11.653 -0.2912 -0.5332 -0.0650
 8566TIP3    H147113   6.661   5.968  11.705  0.9756 -1.5645  2.6543
 8566TIP3    H247114   6.745   5.843  11.704  2.2992 -0.8001 -1.2963
 8567TIP3   OH247115   4.476   3.728  11.374 -0.4758  0.0440 -0.1963
 8567TIP3    H147116   4.392   3.708  11.334  0.0598 -0.1729 -1.2605
 8567TIP3    H247117   4.526   3.647  11.368 -1.0563 -0.6519  2.8400
 8568TIP3   OH247118   2.076   4.072   5.921 -0.1503 -0.0811  0.2508
 8568TIP3    H147119   2.019   3.996   5.935  1.2035 -0.9825  1.1226
 8568TIP3    H247120   2.127   4.079   6.002  1.7340  0.0034 -0.8806
 8569TIP3   OH247121   2.922   0.331  16.328 -0.2226 -0.2536 -0.4038
 8569TIP3    H147122   2.914   0.383  16.408 -1.1350 -1.7685  0.5430
 8569TIP3    H247123   2.845   0.275  16.329  0.0964 -0.7556 -2.0274
 8570TIP3   OH247124   3.900   0.794  11.563 -0.1527  0.7174  0.1260
 8570TIP3    H147125   3.909   0.819  11.656  0.0456  0.4331  0.1827
 8570TIP3    H247126   3.935   0.706  11.558  0.7126  1.0776 -0.4015
 8571TIP3   OH247127   5.134   4.981   3.115 -0.4876 -0.1956 -0.5924
 8571TIP3    H147128   5.058   5.027   3.078 -1.7232 -1.0874  0.7261
 8571TIP3    H247129   5.151   5.026   3.197  0.2552 -0.1925 -0.7432
 8572TIP3   OH247130   0.102   5.543   3.228  0.2961  0.2580  0.0256
 8572TIP3    H147131   0.171   5.608   3.217 -0.4785  1.1412  0.2762
 8572TIP3    H247132   0.149   5.460   3.238  1.3689  0.9590  1.0790
 8573TIP3   OH247133   6.541   3.398  13.375 -0.2638  0.4794  0.7338
 8573TIP3    H147134   6.494   3.470  13.417  0.5350  1.4057  0.0784
 8573TIP3    H247135   6.626   3.395  13.420 -0.8264 -1.0499  1.7746
 8574TIP3   OH247136   4.968   4.766  14.989 -0.4720  0.4943  0.2333
 8574TIP3    H147137   4.894   4.763  15.049 -0.5208  0.8802  0.1932
 8574TIP3    H247138   5.011   4.850  15.007 -1.8557  1.7525 -1.8918
 8575TIP3   OH247139   3.250   3.055   6.341 -0.6331  0.2569 -0.1164
 8575TIP3    H147140   3.182   3.118   6.363 -1.6281 -0.1168 -1.9065
 8575TIP3    H247141   3.281   3.082   6.255 -0.3104 -1.0577 -0.4342
 8576TIP3   OH247142   4.311   4.994  11.605 -0.2956 -0.2688 -0.1790
 8576TIP3    H147143   4.294   4.904  11.633  0.2818 -0.3693 -0.1465
 8576TIP3    H247144   4.350   5.037  11.681  0.2011 -0.2213 -0.4604
 8577TIP3   OH247145   3.967   1.471  10.410 -0.7026 -0.2990 -0.2041
 8577TIP3    H147146   3.997   1.393  10.363  0.7486  0.1613 -0.0807
 8577TIP3    H247147   4.022   1.541  10.378 -0.9556  0.3910  0.8239
 8578TIP3   OH247148   2.234   6.232   5.540  0.2104 -0.4388  0.1436
 8578TIP3    H147149   2.231   6.328   5.541  0.8121 -0.3510 -1.8520
 8578TIP3    H247150   2.226   6.207   5.632  0.4275  1.5396  0.7527
 8579TIP3   OH247151   3.765   4.074  17.239  0.4667 -0.3908  0.8590
 8579TIP3    H147152   3.689   4.105  17.190  0.7705  1.4516  1.4731
 8579TIP3    H247153   3.831   4.053  17.173  0.3539  0.6334  0.4152
 8580TIP3   OH247154   1.265   0.534  12.471 -0.4594  0.3664  0.1054
 8580TIP3    H147155   1.227   0.522  12.558 -0.6651 -2.2489 -0.2594
 8580TIP3    H247156   1.351   0.574  12.488 -0.0255 -1.0804  1.6532
 8581TIP3   OH247157   0.174   3.554  11.853 -0.4557 -0.0827 -0.2781
 8581TIP3    H147158   0.163   3.490  11.782  0.1227  0.3570 -0.7721
 8581TIP3    H247159   0.142   3.636  11.817  1.6511  0.5839 -0.7512
 8582TIP3   OH247160   3.226   2.123  12.289 -0.1634 -0.0570  0.7559
 8582TIP3    H147161   3.143   2.164  12.264  0.1138 -0.9166 -1.8429
 8582TIP3    H247162   3.216   2.104  12.382 -3.3422 -1.0573  0.3274
 8583TIP3   OH247163   0.997   1.585   4.853 -0.5716 -0.0466 -0.0797
 8583TIP3    H147164   1.048   1.597   4.772 -0.7626  0.3034 -0.1484
 8583TIP3    H247165   1.041   1.512   4.897  0.9309  1.1886  0.5835
 8584TIP3   OH247166   4.986   2.900   5.954  0.2188 -0.1777 -0.5616
 8584TIP3    H147167   5.020   2.815   5.927 -1.2261 -1.3274  1.0140
 8584TIP3    H247168   5.032   2.920   6.035 -0.1965  0.0138 -0.3678
 8585TIP3   OH247169   1.964   4.613   4.047 -0.4189  0.0169 -0.5238
 8585TIP3    H147170   2.050   4.592   4.011  0.1494  0.7219  0.3552
 8585TIP3    H247171   1.981   4.626   4.141 -1.6519 -0.7303 -0.1748
 8586TIP3   OH247172   5.901   4.630   0.957 -0.4030  0.6367  0.0394
 8586TIP3    H147173   5.925   4.704   0.902 -0.9502  1.0385  0.3341
 8586TIP3    H247174   5.985   4.601   0.995  0.2433 -0.6773 -2.2128
 8587TIP3   OH247175   1.140   6.648   2.625 -0.2622 -0.0073 -0.4666
 8587TIP3    H147176   1.092   6.589   2.683 -0.7726  0.9589  0.1197
 8587TIP3    H247177   1.124   6.735   2.661  0.0500  0.5428 -1.6163
 8588TIP3   OH247178   5.370   6.289  15.073  0.5952  0.0727 -0.3038
 8588TIP3    H147179   5.319   6.297  15.154  0.5132 -0.4659 -0.2971
 8588TIP3    H247180   5.435   6.359  15.079  1.4060 -0.7323  0.8248
 8589TIP3   OH247181   4.385   4.971   1.812 -0.1914 -0.0124  0.0017
 8589TIP3    H147182   4.341   5.045   1.770 -0.8159 -0.5048 -0.2289
 8589TIP3    H247183   4.356   4.895   1.762  2.3620 -0.2016 -1.3243
 8590TIP3   OH247184   6.208   2.981   0.627  0.0805  0.4198  0.0541
 8590TIP3    H147185   6.268   2.987   0.701  0.3082  1.2757 -0.1956
 8590TIP3    H247186   6.191   3.071   0.601  1.1388  0.1265 -1.8459
 8591TIP3   OH247187   3.562   3.608   3.748 -0.3977  0.4246 -0.0142
 8591TIP3    H147188   3.615   3.564   3.682  1.9059 -0.5552  2.2935
 8591TIP3    H247189   3.573   3.701   3.730 -1.0731  0.1887 -1.8509
 8592TIP3   OH247190   2.000   0.752   4.252 -0.6868 -0.4621 -0.5443
 8592TIP3    H147191   2.051   0.672   4.262  1.8391  0.9557 -0.9406
 8592TIP3    H247192   2.022   0.805   4.329 -2.7491 -0.3201  0.0064
 8593TIP3   OH247193   3.060   0.793  15.923  0.0220  0.5994 -0.2012
 8593TIP3    H147194   2.967   0.772  15.910 -0.1452  1.7371 -0.9805
 8593TIP3    H247195   3.066   0.815  16.016 -0.5001  0.6120 -0.1642
 8594TIP3   OH247196   3.609   2.492  15.907 -0.4749  0.1390  0.4296
 8594TIP3    H147197   3.566   2.515  15.825 -0.1537  0.0765  0.2406
 8594TIP3    H247198   3.544   2.442  15.956 -0.6827  0.2156  0.2301
 8595TIP3   OH247199   0.479   4.431   2.974 -0.0950 -0.1945  0.1569
 8595TIP3    H147200   0.533   4.369   3.023  0.3220 -1.3852 -1.6573
 8595TIP3    H247201   0.526   4.514   2.979  0.6336 -0.6240  0.6422
 8596TIP3   OH247202   0.793   2.157   2.488  0.1235 -0.8287  0.4321
 8596TIP3    H147203   0.744   2.238   2.470  0.3861 -0.8345 -0.3556
 8596TIP3    H247204   0.871   2.164   2.432  0.3593 -1.4288  0.6828
 8597TIP3   OH247205   3.632   0.941   6.250 -0.0062 -0.5626  0.1170
 8597TIP3    H147206   3.708   0.998   6.233  0.0148 -0.6237  0.0046
 8597TIP3    H247207   3.557   0.999   6.242 -0.0275 -0.6924 -0.6842
 8598TIP3   OH247208   1.810   4.499  16.924  0.4790  0.2098 -0.3665
 8598TIP3    H147209   1.851   4.459  17.000 -1.9327  1.8448  1.9625
 8598TIP3    H247210   1.759   4.429  16.884 -0.7447  0.0186  1.4392
 8599TIP3   OH247211   2.368   0.205   2.740 -0.1005  0.0539 -0.3578
 8599TIP3    H147212   2.296   0.234   2.685  0.7251 -0.0114 -1.5132
 8599TIP3    H247213   2.441   0.193   2.680  0.1902 -2.4147  0.3505
 8600TIP3   OH247214   0.028   6.744  11.314  0.7633  0.3059  0.2057
 8600TIP3    H147215  -0.053   6.784  11.346  0.7046 -0.6295  1.3085
 8600TIP3    H247216   0.028   6.761  11.220 -1.5587 -1.1054 -0.1160
 8601TIP3   OH247217   4.358   4.179   6.310  0.6271 -0.3132  0.2960
 8601TIP3    H147218   4.390   4.117   6.376 -1.3155  0.2660  1.8902
 8601TIP3    H247219   4.387   4.265   6.341 -0.6318  0.0027  0.6821
 8602TIP3   OH247220   4.810   0.796  11.405  0.2105 -0.0653  0.1408
 8602TIP3    H147221   4.891   0.760  11.370  0.3268  0.5954 -0.2826
 8602TIP3    H247222   4.825   0.801  11.499  0.5097 -0.3072  0.1084
 8603TIP3   OH247223   3.479   5.926  13.228 -0.3648 -0.4227  0.1240
 8603TIP3    H147224   3.555   5.877  13.257  0.6149  0.7688 -0.3226
 8603TIP3    H247225   3.405   5.867  13.241  0.5236 -1.3027  1.3467
 8604TIP3   OH247226   5.454   0.364   5.322 -0.5044 -0.3885 -0.0229
 8604TIP3    H147227   5.371   0.410   5.306 -0.0007  0.6957  0.4117
 8604TIP3    H247228   5.451   0.289   5.263 -1.9549 -0.5675  0.2237
 8605TIP3   OH247229   5.552   0.983   3.724 -0.3966 -0.0934  0.1631
 8605TIP3    H147230   5.621   0.941   3.672  1.5966  2.6666  0.3354
 8605TIP3    H247231   5.588   0.987   3.812 -0.8936  1.1029  0.3316
 8606TIP3   OH247232   4.905   4.503  14.312 -0.0451 -0.4915  0.2671
 8606TIP3    H147233   4.904   4.411  14.338 -1.2925 -0.3144  0.9268
 8606TIP3    H247234   4.827   4.513  14.256  0.6487 -0.0545 -0.6536
 8607TIP3   OH247235   5.938   3.584  14.214  0.5850  0.0651 -0.2966
 8607TIP3    H147236   5.985   3.533  14.148  0.6707 -1.3890  0.8449
 8607TIP3    H247237   5.858   3.536  14.231  0.1129  0.9215 -0.0173
 8608TIP3   OH247238   6.409   4.234  12.505  0.5792 -0.0125  0.1164
 8608TIP3    H147239   6.451   4.288  12.572  0.5456  0.1109  0.0384
 8608TIP3    H247240   6.415   4.287  12.426 -0.3282  0.2998  0.2506
 8609TIP3   OH247241   6.749   0.107  14.650  0.6669 -0.3195  0.5438
 8609TIP3    H147242   6.738   0.189  14.601 -0.3428  1.0043  2.8460
 8609TIP3    H247243   6.766   0.041  14.582 -3.2330  0.8740 -1.9472
 8610TIP3   OH247244   0.723   1.134  11.328  0.0151  0.2843 -0.2008
 8610TIP3    H147245   0.752   1.050  11.291 -0.1369 -0.1610  0.6680
 8610TIP3    H247246   0.724   1.194  11.254  0.0701 -0.5025 -0.8543
 8611TIP3   OH247247   3.743   2.406  10.564 -0.3470  0.0144 -0.4645
 8611TIP3    H147248   3.666   2.406  10.506 -0.3818  1.4249 -0.4668
 8611TIP3    H247249   3.754   2.498  10.587  0.2461 -0.4129  1.0181
 8612TIP3   OH247250   4.157   4.676   3.533 -0.1287  0.1792  0.3877
 8612TIP3    H147251   4.183   4.640   3.448  0.3536 -0.2029  0.6899
 8612TIP3    H247252   4.216   4.751   3.545  3.7448 -2.8775  2.8082
 8613TIP3   OH247253   0.788   0.504   0.166 -0.4712 -0.0597 -0.4515
 8613TIP3    H147254   0.766   0.412   0.148  0.5920 -0.0041 -2.2963
 8613TIP3    H247255   0.825   0.503   0.254 -0.2000 -1.4665 -0.5578
 8614TIP3   OH247256   1.166   0.552   3.402  0.8000 -0.0923 -0.5136
 8614TIP3    H147257   1.144   0.644   3.415 -0.6955 -0.4270 -0.5282
 8614TIP3    H247258   1.262   0.548   3.411  0.8157  1.3482  0.0872
 8615TIP3   OH247259   2.267   0.731  12.121 -0.2549  0.0664  0.3225
 8615TIP3    H147260   2.323   0.668  12.074 -0.8997 -0.0761 -0.2654
 8615TIP3    H247261   2.309   0.815  12.107  1.2161 -0.3182  1.9926
 8616TIP3   OH247262   5.355   5.731   5.298  0.2393  0.2406 -0.4557
 8616TIP3    H147263   5.383   5.714   5.208 -0.0979  0.1767 -0.5531
 8616TIP3    H247264   5.272   5.682   5.306 -0.0397  0.7328 -0.3069
 8617TIP3   OH247265   0.812   1.645   3.855 -0.0320  0.1675  0.0430
 8617TIP3    H147266   0.801   1.551   3.841 -1.9853  0.4340 -0.5705
 8617TIP3    H247267   0.860   1.676   3.777 -0.3281 -0.1652 -0.2727
 8618TIP3   OH247268   6.037   2.873  13.879  0.5586  0.6172  0.0429
 8618TIP3    H147269   5.983   2.952  13.870 -0.2412 -0.0411 -1.2018
 8618TIP3    H247270   5.975   2.805  13.906  1.2064  0.3628  0.9066
 8619TIP3   OH247271   4.324   0.638   5.675  0.5894 -0.2747 -0.0095
 8619TIP3    H147272   4.361   0.586   5.604  0.9994  0.9271 -0.7053
 8619TIP3    H247273   4.334   0.583   5.753  0.1474 -1.6012 -0.8651
 8620TIP3   OH247274   4.788   1.638  17.143 -0.7978 -0.4544  0.1804
 8620TIP3    H147275   4.739   1.568  17.186  0.7670 -1.4693  0.3875
 8620TIP3    H247276   4.873   1.599  17.122 -0.1552  1.1592 -0.3952
 8621TIP3   OH247277   0.457   4.102  16.678  0.1605  0.0044 -0.1544
 8621TIP3    H147278   0.497   4.029  16.725 -0.0551  0.3756  0.6355
 8621TIP3    H247279   0.529   4.161  16.658  0.3753 -0.5353 -1.0296
 8622TIP3   OH247280   0.868   2.844  15.125 -0.2515 -0.1286  0.2474
 8622TIP3    H147281   0.811   2.920  15.120  0.9095  0.8725  1.4409
 8622TIP3    H247282   0.956   2.880  15.111  0.5414 -0.8687  2.8272
 8623TIP3   OH247283   1.888   6.420  15.720  0.5809  0.8399 -0.5264
 8623TIP3    H147284   1.908   6.326  15.718 -1.0251  0.4840 -1.1767
 8623TIP3    H247285   1.898   6.445  15.812 -0.5272 -0.3313 -0.0665
 8624TIP3   OH247286   2.981   5.830  16.042  0.9831 -0.6068 -0.5203
 8624TIP3    H147287   2.937   5.817  16.126 -0.2384  1.1858 -0.8213
 8624TIP3    H247288   3.054   5.888  16.062  1.8968 -1.7367 -0.4203
 8625TIP3   OH247289   5.195   2.019   1.444  0.1384 -0.0362  0.1094
 8625TIP3    H147290   5.158   2.107   1.445 -0.7836 -0.4144  0.1718
 8625TIP3    H247291   5.287   2.032   1.468 -0.0230  0.8874  0.2818
 8626TIP3   OH247292   5.457   2.118   0.179  0.1052  0.4776 -0.1376
 8626TIP3    H147293   5.431   2.186   0.116 -1.1392  0.1537  0.0089
 8626TIP3    H247294   5.529   2.072   0.136 -2.1734 -1.2125 -2.3869
 8627TIP3   OH247295   4.757   4.848  12.561 -0.2881  0.6582 -0.2679
 8627TIP3    H147296   4.834   4.883  12.605 -1.0979  2.8667 -0.4824
 8627TIP3    H247297   4.772   4.753  12.557  3.2621  1.1203 -1.8871
 8628TIP3   OH247298   6.238   0.389  12.722 -0.2147  0.3155 -0.3986
 8628TIP3    H147299   6.281   0.431  12.648 -0.3099 -0.1348 -0.7101
 8628TIP3    H247300   6.224   0.460  12.785  1.4810  0.3800 -0.0505
 8629TIP3   OH247301   3.215   0.698  16.702 -0.2117  0.3438 -0.0317
 8629TIP3    H147302   3.191   0.622  16.649  0.8591  1.0555 -1.6152
 8629TIP3    H247303   3.273   0.662  16.769 -0.8400 -0.4283  0.1214
 8630TIP3   OH247304   4.854   2.687  12.823  0.2376 -0.2666 -0.2004
 8630TIP3    H147305   4.841   2.772  12.865  1.5162  0.2711 -0.8242
 8630TIP3    H247306   4.803   2.693  12.742 -0.2759 -0.3745  0.1169
 8631TIP3   OH247307   4.815   5.111   5.450  0.0907 -0.3591  0.3182
 8631TIP3    H147308   4.757   5.041   5.420  0.2512 -0.7866  0.9740
 8631TIP3    H247309   4.780   5.136   5.536  0.5976 -0.2978  0.5113
 8632TIP3   OH247310   4.846   1.526  14.728  0.1443  0.2596  0.1100
 8632TIP3    H147311   4.842   1.586  14.802  1.6527 -1.5149  1.7366
 8632TIP3    H247312   4.933   1.487  14.734 -0.5834 -1.7147 -1.1769
 8633TIP3   OH247313   6.440   4.062  12.827 -0.6253 -0.1908  0.1745
 8633TIP3    H147314   6.356   4.108  12.826  1.3833  3.9039  0.4331
 8633TIP3    H247315   6.458   4.046  12.919 -1.2311 -1.5120  0.0947
 8634TIP3   OH247316   5.970   0.272   4.604  0.0518 -0.1873 -0.2357
 8634TIP3    H147317   5.961   0.265   4.509 -0.9313  0.3484 -0.1903
 8634TIP3    H247318   5.931   0.356   4.626  0.7664 -0.0554  0.5894
 8635TIP3   OH247319   2.357   4.494   4.694  0.0837 -0.0206 -0.6386
 8635TIP3    H147320   2.395   4.567   4.742  0.5678  0.8963 -2.3156
 8635TIP3    H247321   2.263   4.515   4.688  0.1440  0.2333 -0.7053
 8636TIP3   OH247322   5.010   3.060  16.545 -0.8274 -0.1665  0.0815
 8636TIP3    H147323   5.015   3.034  16.453  0.3262  0.3386 -0.0159
 8636TIP3    H247324   5.057   3.143  16.549 -0.9039 -0.1603  1.1219
 8637TIP3   OH247325   5.742   0.225   3.565  0.9168  0.1034 -0.3951
 8637TIP3    H147326   5.683   0.193   3.497  0.3642  0.1013  0.0741
 8637TIP3    H247327   5.700   0.199   3.647  0.3903  2.1254  0.0258
 8638TIP3   OH247328   3.705   0.230  12.422 -0.5642 -0.3576  1.4037
 8638TIP3    H147329   3.753   0.166  12.475  0.0383  0.8164  2.3510
 8638TIP3    H247330   3.713   0.312  12.471 -0.1378  0.7599 -0.4115
 8639TIP3   OH247331   3.945   3.312   2.465 -0.6601 -0.1615  0.0182
 8639TIP3    H147332   3.852   3.302   2.447 -1.2139  1.3727  1.6658
 8639TIP3    H247333   3.989   3.269   2.392 -2.6511 -0.0605 -1.3115
 8640TIP3   OH247334   3.378   5.173   4.426 -0.1345 -0.4311 -0.4140
 8640TIP3    H147335   3.460   5.188   4.380 -0.5310  0.4953 -0.8518
 8640TIP3    H247336   3.323   5.249   4.403 -2.5142 -2.7371 -3.1495
 8641TIP3   OH247337   0.694   2.229  15.542  0.0298 -0.5808  0.0299
 8641TIP3    H147338   0.629   2.267  15.483  1.5317  2.6507  0.2279
 8641TIP3    H247339   0.768   2.205  15.485  0.0180 -1.0316  0.1968
 8642TIP3   OH247340   0.612   4.215  11.766 -0.2069 -0.3277 -0.2694
 8642TIP3    H147341   0.636   4.147  11.703  1.2335  1.1718 -1.4280
 8642TIP3    H247342   0.632   4.297  11.721 -1.5168  0.8690  1.2340
 8643TIP3   OH247343   5.401   5.948  15.746  0.0780 -0.1419  0.3289
 8643TIP3    H147344   5.322   5.915  15.705  0.2027  0.3480 -0.3191
 8643TIP3    H247345   5.369   6.006  15.816 -0.1435 -1.9239  1.7779
 8644TIP3   OH247346   5.871   2.432  13.447 -0.2036 -0.5437  0.9494
 8644TIP3    H147347   5.944   2.423  13.508  0.0798  0.8340  0.8362
 8644TIP3    H247348   5.799   2.465  13.500 -0.3054 -0.4694  0.7678
 8645TIP3   OH247349   2.960   5.893  14.894 -0.0713 -0.1028 -0.1288
 8645TIP3    H147350   3.035   5.869  14.840  1.6168  1.5008  1.3988
 8645TIP3    H247351   2.886   5.847  14.853  1.6155 -1.3525 -1.9657
 8646TIP3   OH247352   3.364   6.425   2.188  0.2159  0.0471 -0.3955
 8646TIP3    H147353   3.414   6.383   2.258 -0.8305 -0.7923 -0.1145
 8646TIP3    H247354   3.390   6.517   2.191  0.5099 -0.0617  0.8258
 8647TIP3   OH247355   2.127   1.977   3.581  0.6643 -0.1263  0.0912
 8647TIP3    H147356   2.040   1.958   3.615  0.3836  2.0957  0.7517
 8647TIP3    H247357   2.132   1.928   3.499 -0.7447 -1.1929  0.6040
 8648TIP3   OH247358   3.342   4.967  15.475 -0.3956 -0.1435 -0.3044
 8648TIP3    H147359   3.418   4.984  15.419  0.3494 -1.9393  0.1103
 8648TIP3    H247360   3.369   4.895  15.531 -2.2742 -0.5457  0.1392
 8649TIP3   OH247361   1.185   0.634   3.785  0.3929 -0.2003 -0.3889
 8649TIP3    H147362   1.202   0.562   3.724 -2.2898 -0.9152 -0.4127
 8649TIP3    H247363   1.205   0.713   3.735  1.0780 -0.8546 -1.1788
 8650TIP3   OH247364   6.560   2.605   5.943 -0.0701  0.4778  0.4419
 8650TIP3    H147365   6.607   2.667   5.999 -1.0239 -0.3420  2.2543
 8650TIP3    H247366   6.483   2.653   5.913  0.6358  1.0425 -0.5259
 8651TIP3   OH247367   6.526   2.677  11.997 -0.3010  0.3911  0.6167
 8651TIP3    H147368   6.467   2.674  11.922  1.0152 -0.6039 -0.4220
 8651TIP3    H247369   6.573   2.759  11.989  2.1652 -1.0772 -1.5858
 8652TIP3   OH247370   4.097   0.591  16.812 -0.3522 -0.2752  0.0251
 8652TIP3    H147371   4.033   0.538  16.861  0.8252 -0.0730  1.8699
 8652TIP3    H247372   4.068   0.585  16.721 -3.1056 -0.0385  0.8006
 8653TIP3   OH247373   1.423   1.515  11.978 -1.2695 -0.0544 -0.4057
 8653TIP3    H147374   1.419   1.496  11.884 -0.0659  3.2007 -1.2517
 8653TIP3    H247375   1.344   1.566  11.995 -0.9797  0.2132  0.1348
 8654TIP3   OH247376   2.867   1.355   4.884 -0.1338  0.3856 -0.0546
 8654TIP3    H147377   2.886   1.309   4.803  0.3092  0.7375 -0.1568
 8654TIP3    H247378   2.873   1.288   4.952  1.6968  0.4746 -0.0566
 8655TIP3   OH247379   3.814   1.815   4.167  0.5794 -0.2951  0.1869
 8655TIP3    H147380   3.860   1.886   4.212 -0.4085 -0.4974  1.6045
 8655TIP3    H247381   3.752   1.782   4.232 -1.4086 -0.1893 -1.5518
 8656TIP3   OH247382   5.717   1.904  16.533  0.0423  0.1876  0.4795
 8656TIP3    H147383   5.753   1.960  16.464 -0.5643  0.8982  0.7188
 8656TIP3    H247384   5.644   1.955  16.569 -0.8563 -0.9700  0.3711
 8657TIP3   OH247385   5.690   3.281  16.866 -0.4271 -0.5846 -0.4975
 8657TIP3    H147386   5.722   3.360  16.911 -0.5438  0.8345 -2.7325
 8657TIP3    H247387   5.595   3.288  16.870 -0.4694  0.4282 -2.2650
 8658TIP3   OH247388   0.006   0.486   4.786 -0.2163 -0.0099  0.1191
 8658TIP3    H147389   0.092   0.467   4.748  0.0475 -2.2928  1.7037
 8658TIP3    H247390   0.015   0.574   4.823  1.3427 -0.0952 -0.0045
 8659TIP3   OH247391   0.556   0.738  13.401  0.2905  0.5779 -1.0093
 8659TIP3    H147392   0.513   0.653  13.410  0.5451  0.6050  0.6426
 8659TIP3    H247393   0.618   0.726  13.329  0.5338 -0.7288 -0.6091
 8660TIP3   OH247394   0.814   4.084   2.913  0.0040  0.2494 -0.8616
 8660TIP3    H147395   0.742   4.092   2.851  0.0595  0.2457 -0.9270
 8660TIP3    H247396   0.810   4.164   2.965 -0.3105  0.0539 -0.5827
 8661TIP3   OH247397   6.157   3.311  11.822  0.6174 -0.1617 -0.3827
 8661TIP3    H147398   6.161   3.257  11.743  2.5806 -0.6499  0.0137
 8661TIP3    H247399   6.242   3.354  11.826 -0.8991  3.2646 -0.8296
 8662TIP3   OH247400   3.414   3.212   1.452 -0.2378  0.5522  0.0049
 8662TIP3    H147401   3.358   3.154   1.402  0.3852 -0.3695  0.3404
 8662TIP3    H247402   3.465   3.259   1.386 -2.1364  2.2075 -0.3445
 8663TIP3   OH247403   1.428   4.442  12.649  0.0271 -0.4872 -0.3654
 8663TIP3    H147404   1.505   4.413  12.600 -0.6977 -0.9504 -1.2575
 8663TIP3    H247405   1.380   4.362  12.669 -0.6419 -0.1297 -0.5226
 8664TIP3   OH247406   1.159   4.715  10.729  0.0783  0.0032  0.4908
 8664TIP3    H147407   1.099   4.789  10.718  0.8408  0.5519 -0.1085
 8664TIP3    H247408   1.102   4.640  10.747 -0.9063  0.2801 -1.2252
 8665TIP3   OH247409   0.460   2.192   2.149 -0.1932  0.0031 -0.1002
 8665TIP3    H147410   0.500   2.173   2.064 -1.5527  1.4019 -1.0972
 8665TIP3    H247411   0.492   2.122   2.206  0.7821 -0.9613 -1.7413
 8666TIP3   OH247412   3.470   6.622   2.359 -0.1767 -0.0431 -0.1269
 8666TIP3    H147413   3.456   6.670   2.441  2.4268 -0.0145  0.3838
 8666TIP3    H247414   3.512   6.540   2.385  1.7368  0.4434 -1.4379
 8667TIP3   OH247415   2.689   2.342   0.128  0.3483 -0.0794 -0.2116
 8667TIP3    H147416   2.738   2.262   0.149  0.3633 -0.3966 -1.4184
 8667TIP3    H247417   2.742   2.387   0.063 -0.5644 -0.0200 -0.9358
 8668TIP3   OH247418   3.630   3.752  14.033  0.3223  0.0758 -0.0414
 8668TIP3    H147419   3.595   3.837  14.004 -0.3508 -0.3741 -0.5758
 8668TIP3    H247420   3.628   3.698  13.954 -0.5823 -0.8661  0.5971
 8669TIP3   OH247421   0.993   3.747   4.774 -0.0583 -0.3977 -0.0877
 8669TIP3    H147422   0.933   3.800   4.826  0.6352  1.7353 -1.3193
 8669TIP3    H247423   1.060   3.718   4.836  0.6103  1.8589  0.3539
 8670TIP3   OH247424   0.102   3.506  15.295  0.3869  0.3548  0.0181
 8670TIP3    H147425   0.125   3.435  15.355  2.1429  1.1404  0.3400
 8670TIP3    H247426   0.184   3.526  15.250 -0.6707  0.4335 -1.9811
 8671TIP3   OH247427   0.813   2.040  13.295 -0.0937 -0.4658  0.0038
 8671TIP3    H147428   0.755   2.010  13.366 -0.8062 -1.1022 -0.8157
 8671TIP3    H247429   0.839   1.959  13.251  1.2071 -0.1542  0.1834
 8672TIP3   OH247430   2.941   1.726  13.934 -0.0592 -0.2617  0.4530
 8672TIP3    H147431   2.890   1.656  13.893 -0.2093  1.2503 -2.1097
 8672TIP3    H247432   3.004   1.679  13.989  0.6716 -2.5199 -2.0838
 8673TIP3   OH247433   0.880   5.329   0.489  0.1650 -0.1102 -0.4922
 8673TIP3    H147434   0.927   5.314   0.407 -0.4056 -2.2735 -0.4764
 8673TIP3    H247435   0.949   5.349   0.553  0.7918 -0.2654 -1.1067
 8674TIP3   OH247436   5.090   5.041   1.015  0.5236 -0.3675 -0.2004
 8674TIP3    H147437   5.045   4.985   0.952 -2.2786  0.3479  0.9896
 8674TIP3    H247438   5.094   4.988   1.095 -0.9767  0.5676  0.5523
 8675TIP3   OH247439   3.175   0.447  11.445 -0.3024  0.6139  0.3465
 8675TIP3    H147440   3.251   0.448  11.504 -0.8471  1.3851  1.0719
 8675TIP3    H247441   3.156   0.539  11.429 -2.6559  0.5695  2.3182
 8676TIP3   OH247442   6.673   3.346   4.472  0.4235  0.5500 -0.2778
 8676TIP3    H147443   6.607   3.326   4.406  0.4426 -3.5024  0.6599
 8676TIP3    H247444   6.756   3.346   4.424  0.1289  1.8392 -0.8360
 8677TIP3   OH247445   5.343   3.172   4.415 -0.0056 -0.5375  0.6867
 8677TIP3    H147446   5.335   3.083   4.449  1.7830 -0.4275  1.4878
 8677TIP3    H247447   5.253   3.206   4.414 -0.4134 -1.3990  3.0196
 8678TIP3   OH247448   2.775   1.148   5.117  0.4364 -0.5278  0.3254
 8678TIP3    H147449   2.811   1.198   5.190  0.1926 -1.1081  0.8546
 8678TIP3    H247450   2.686   1.125   5.145  0.2913 -0.6329 -0.2146
 8679TIP3   OH247451   1.965   3.699   2.072 -0.3280  0.9826  0.2964
 8679TIP3    H147452   1.978   3.690   1.977 -0.9381  2.0895  0.0996
 8679TIP3    H247453   2.051   3.677   2.109 -0.3997 -0.6599 -0.4179
 8680TIP3   OH247454   5.368   3.103  11.432 -0.1093 -0.2276  0.4118
 8680TIP3    H147455   5.424   3.145  11.366 -0.6175 -0.8102 -0.3952
 8680TIP3    H247456   5.332   3.027  11.388 -1.1254 -0.1573  1.0995
 8681TIP3   OH247457   1.281   0.521  16.819  0.0174  0.5810  0.5561
 8681TIP3    H147458   1.187   0.515  16.801  0.3689 -0.4397 -1.1682
 8681TIP3    H247459   1.287   0.519  16.914 -1.5938 -2.3918  0.7336
 8682TIP3   OH247460   2.956   0.758  16.320  0.3648 -0.5682 -0.2847
 8682TIP3    H147461   2.930   0.700  16.391  0.4167  0.2209  0.3929
 8682TIP3    H247462   2.877   0.770  16.268  0.2369 -0.8467 -0.1539
 8683TIP3   OH247463   2.929   6.706  11.004  0.0263 -0.3594 -0.2471
 8683TIP3    H147464   2.921   6.802  11.002 -0.1517 -0.3633  0.1420
 8683TIP3    H247465   2.840   6.674  10.994 -0.1987 -0.4445  1.6590
 8684TIP3   OH247466   0.086   1.409   2.855  0.0397  0.0892  0.0321
 8684TIP3    H147467  -0.008   1.428   2.853 -0.6942 -2.9728  0.5337
 8684TIP3    H247468   0.096   1.330   2.802  2.5586  0.9732 -0.9770
 8685TIP3   OH247469   0.868   0.763  16.590  0.4623 -0.0771  0.0496
 8685TIP3    H147470   0.778   0.736  16.573  0.2288  0.3142  0.6796
 8685TIP3    H247471   0.861   0.844  16.640  1.1616 -0.4416  0.7549
 8686TIP3   OH247472   5.542   2.122   2.460  0.1932  0.3244  0.5614
 8686TIP3    H147473   5.560   2.030   2.476  2.2010  0.9208  2.0943
 8686TIP3    H247474   5.476   2.146   2.525 -0.5917 -0.0894 -0.0691
 8687TIP3   OH247475   6.332   1.484  16.505  0.4721 -0.4089  0.3323
 8687TIP3    H147476   6.403   1.420  16.514  1.1436  0.1799 -0.5524
 8687TIP3    H247477   6.355   1.532  16.425 -0.5533  0.2661  0.4431
 8688TIP3   OH247478   0.897   3.108  15.414 -0.0016  0.6792 -0.0882
 8688TIP3    H147479   0.887   3.118  15.508  2.0545  1.4944  0.1032
 8688TIP3    H247480   0.826   3.050  15.388 -0.6586  0.5022  1.9360
 8689TIP3   OH247481   6.194   0.101   5.180 -0.1969  0.7384  0.3372
 8689TIP3    H147482   6.117   0.063   5.139 -0.6019  1.9360 -0.0510
 8689TIP3    H247483   6.234   0.154   5.111  0.2119  1.2089  0.9303
 8690TIP3   OH247484   6.644   3.923  10.760 -0.0009  0.1487 -0.3418
 8690TIP3    H147485   6.691   3.854  10.713 -0.1082 -1.1515  1.3683
 8690TIP3    H247486   6.602   3.975  10.691  2.1269  0.0479 -1.8080
 8691TIP3   OH247487   0.509   2.800   2.348  0.1444  0.0703  0.0774
 8691TIP3    H147488   0.526   2.891   2.374 -0.0884  0.5178 -1.2727
 8691TIP3    H247489   0.496   2.804   2.253 -2.8291 -0.9176  0.3385
 8692TIP3   OH247490   3.788   5.438  15.020  0.0163  0.0629  0.9338
 8692TIP3    H147491   3.776   5.498  15.094  1.9729 -0.2315  1.5326
 8692TIP3    H247492   3.882   5.427  15.013 -0.1278  0.0709 -1.6358
 8693TIP3   OH247493   5.742   6.686   3.448 -0.2435  0.1320 -0.0151
 8693TIP3    H147494   5.807   6.623   3.419 -1.1562 -0.5412 -0.6541
 8693TIP3    H247495   5.779   6.771   3.425  1.4736 -0.0681  1.8117
 8694TIP3   OH247496   0.256   2.555   3.891  0.2016  0.3476  0.4767
 8694TIP3    H147497   0.268   2.642   3.931  0.1808  1.2914 -1.4607
 8694TIP3    H247498   0.195   2.570   3.819  1.0356 -1.0542 -0.5721
 8695TIP3   OH247499   1.829   1.303  11.409  0.5016  0.3356 -0.1106
 8695TIP3    H147500   1.919   1.333  11.395  0.6205 -0.3319 -0.7935
 8695TIP3    H247501   1.833   1.256  11.492  0.3608  1.9425  0.8690
 8696TIP3   OH247502   5.379   1.870  17.346  0.1859  0.4254  0.6243
 8696TIP3    H147503   5.342   1.958  17.358  1.9081  1.1680  0.7608
 8696TIP3    H247504   5.307   1.811  17.368 -1.1939  1.7849 -0.0411
 8697TIP3   OH247505   1.941   3.194  12.108  0.2180 -0.4885  0.2047
 8697TIP3    H147506   1.998   3.247  12.163  0.0119 -0.1164  0.0646
 8697TIP3    H247507   1.912   3.123  12.165  0.7250 -0.6170  0.3083
 8698TIP3   OH247508   5.990   1.329  14.457  0.0353  0.0311  0.5868
 8698TIP3    H147509   5.971   1.385  14.382  0.1905 -1.0281 -0.2565
 8698TIP3    H247510   5.907   1.325  14.506 -0.0004  0.9055  0.6062
 8699TIP3   OH247511   6.197   0.704  17.228  0.3094 -0.7901 -1.0285
 8699TIP3    H147512   6.221   0.788  17.189 -0.4951 -1.3458 -2.8012
 8699TIP3    H247513   6.276   0.676  17.276  1.4262 -0.1757 -2.4592
 8700TIP3   OH247514   3.275   3.708  15.643  0.1114 -0.2518  0.1214
 8700TIP3    H147515   3.261   3.614  15.634 -0.0328 -0.4389  1.8430
 8700TIP3    H247516   3.218   3.747  15.577  1.1253 -1.3751 -1.5011
 8701TIP3   OH247517   5.221   3.218   2.500  0.4078 -0.1051  0.3359
 8701TIP3    H147518   5.133   3.212   2.464 -0.4153  0.0853  2.1820
 8701TIP3    H247519   5.264   3.137   2.474 -0.4454 -0.3679 -0.2807
 8702TIP3   OH247520   2.227   5.536  15.175 -0.1987 -0.3276  0.2899
 8702TIP3    H147521   2.238   5.618  15.127  0.2982 -1.3479 -1.4157
 8702TIP3    H247522   2.199   5.472  15.109  0.4948 -1.7866  1.3344
 8703TIP3   OH247523   1.132   4.614   4.907 -0.1915 -0.2350  0.4348
 8703TIP3    H147524   1.190   4.664   4.849 -0.7066  0.8176  0.8031
 8703TIP3    H247525   1.139   4.658   4.991 -0.4800 -0.9433  0.8406
 8704TIP3   OH247526   5.237   2.807   2.556 -0.0259 -0.1269  0.5373
 8704TIP3    H147527   5.279   2.861   2.490  0.5705  0.3803  1.3266
 8704TIP3    H247528   5.199   2.869   2.618  0.7698 -0.6001  1.5165
 8705TIP3   OH247529   5.520   2.117  15.591  0.3767 -0.1438 -0.1800
 8705TIP3    H147530   5.525   2.204  15.551 -0.5024 -0.3809 -0.8077
 8705TIP3    H247531   5.430   2.110  15.622  0.7769 -0.3474  0.9980
 8706TIP3   OH247532   1.382   1.071  16.950  0.2686 -0.1557  0.0979
 8706TIP3    H147533   1.349   1.048  17.036 -0.3665 -0.6507 -0.2668
 8706TIP3    H247534   1.475   1.089  16.963  0.1269  0.0084  0.9194
 8707TIP3   OH247535   1.687   1.222  14.796 -0.4114 -0.2256  0.3488
 8707TIP3    H147536   1.684   1.173  14.714  0.4961 -1.0143  0.7648
 8707TIP3    H247537   1.624   1.178  14.853  0.0593 -0.6390  0.5636
 8708TIP3   OH247538   1.590   3.321  16.793  0.2712 -0.1777  0.1039
 8708TIP3    H147539   1.533   3.246  16.776 -0.5808  0.1546  1.3618
 8708TIP3    H247540   1.654   3.288  16.857  0.4894 -0.0947 -0.0694
 8709TIP3   OH247541   5.749   0.471  13.736  0.1687  0.2528 -0.1774
 8709TIP3    H147542   5.680   0.405  13.726  1.1747 -1.0074  0.9612
 8709TIP3    H247543   5.748   0.494  13.829 -0.6098  2.4175 -0.6354
 8710TIP3   OH247544   5.686   5.201  13.790 -0.1038  0.2903  0.1164
 8710TIP3    H147545   5.668   5.294  13.776  0.2982 -0.0018 -3.1500
 8710TIP3    H247546   5.776   5.199  13.822  0.0229  1.0443 -0.1640
 8711TIP3   OH247547   2.046   3.199   2.354  0.0264 -0.3290 -0.0081
 8711TIP3    H147548   2.010   3.195   2.443 -0.4670  3.0908  0.0835
 8711TIP3    H247549   2.119   3.261   2.360  2.5075 -2.9325 -1.3280
 8712TIP3   OH247550   4.548   3.803   0.246 -0.2222 -0.1818 -0.1294
 8712TIP3    H147551   4.594   3.731   0.288 -0.0889 -0.3161 -0.4952
 8712TIP3    H247552   4.607   3.878   0.256  0.1039 -0.3649 -0.6387
 8713TIP3   OH247553   5.170   2.514  17.059 -0.4257 -0.1752 -0.3217
 8713TIP3    H147554   5.096   2.561  17.020  0.1594  0.4539 -0.7024
 8713TIP3    H247555   5.140   2.494  17.148 -1.5459 -1.1071 -0.8858
 8714TIP3   OH247556   0.588   4.360   0.370  0.8591 -0.5365 -0.1032
 8714TIP3    H147557   0.528   4.307   0.422 -0.0739 -0.6396 -1.2546
 8714TIP3    H247558   0.534   4.433   0.338  1.8141  0.4315  0.4178
 8715TIP3   OH247559   5.308   4.743  14.732  0.1819 -0.2277 -0.4062
 8715TIP3    H147560   5.333   4.755  14.824  3.9707  1.5423 -1.4545
 8715TIP3    H247561   5.340   4.655  14.710  0.9990  0.0588 -0.4295
 8716TIP3   OH247562   1.163   3.429  12.234  0.5233  0.2888 -0.3945
 8716TIP3    H147563   1.163   3.489  12.159 -1.7000  0.2715 -0.4972
 8716TIP3    H247564   1.073   3.434  12.267  0.2441 -2.9912 -0.3988
 8717TIP3   OH247565   0.224   2.101   3.081  0.0308 -0.5456  0.5588
 8717TIP3    H147566   0.308   2.136   3.111 -0.7489  0.5983  1.5024
 8717TIP3    H247567   0.193   2.049   3.155 -1.7522  2.0172  1.7473
 8718TIP3   OH247568   2.625   0.461  10.584 -0.0935 -0.4168  0.5420
 8718TIP3    H147569   2.615   0.548  10.546 -0.6826 -1.0105 -0.7151
 8718TIP3    H247570   2.719   0.445  10.585 -0.0681 -0.4689 -0.8954
 8719TIP3   OH247571   6.141   5.261  17.099  0.0581 -0.5799 -0.7698
 8719TIP3    H147572   6.144   5.233  17.190  0.3592  1.7844  0.0230
 8719TIP3    H247573   6.117   5.182  17.050  0.6381 -2.0893  1.2424
 8720TIP3   OH247574   6.467   5.721   1.076 -0.0782  0.0140  0.1462
 8720TIP3    H147575   6.508   5.781   1.138  3.3343 -1.0219 -0.9397
 8720TIP3    H247576   6.434   5.778   1.006  1.0882  0.7974  0.2174
 8721TIP3   OH247577   3.868   1.088  15.855  0.0103  0.4072  0.3717
 8721TIP3    H147578   3.826   1.128  15.779  1.8010 -1.7546 -1.9633
 8721TIP3    H247579   3.797   1.045  15.902 -1.1941  2.0323  0.0926
 8722TIP3   OH247580   5.879   3.295  14.076 -0.0508 -0.2034  0.3099
 8722TIP3    H147581   5.787   3.307  14.051 -0.6620 -1.4812  1.7678
 8722TIP3    H247582   5.928   3.317  13.997 -1.6281 -0.0269 -0.6782
 8723TIP3   OH247583   3.138   2.863  15.767  0.0317  0.1258  0.1292
 8723TIP3    H147584   3.057   2.813  15.775  0.0138  0.3107  1.1986
 8723TIP3    H247585   3.124   2.941  15.820  0.6080  0.5626 -0.3447
 8724TIP3   OH247586   3.746   6.327  11.406  0.1069 -0.1167  0.3258
 8724TIP3    H147587   3.657   6.292  11.402  0.3936 -0.8868  0.4599
 8724TIP3    H247588   3.802   6.250  11.397  0.7816  0.5233 -1.6017
 8725TIP3   OH247589   4.556   1.190   1.815  0.3665  0.3510  0.0809
 8725TIP3    H147590   4.534   1.252   1.746  1.7782 -0.0623 -0.7663
 8725TIP3    H247591   4.650   1.201   1.829  0.5385 -1.1916  0.2930
 8726TIP3   OH247592   1.519   3.930   0.177  0.0276 -0.1179  0.6399
 8726TIP3    H147593   1.423   3.940   0.172  0.0548 -0.2733 -0.7166
 8726TIP3    H247594   1.553   4.016   0.151  0.2402 -0.4501 -0.2296
 8727TIP3   OH247595   6.184   5.517  13.840  0.3326  0.9067 -1.0571
 8727TIP3    H147596   6.091   5.539  13.833 -0.0362  0.3357  1.3359
 8727TIP3    H247597   6.192   5.434  13.794 -0.8851 -0.2737  0.7469
 8728TIP3   OH247598   3.231   2.755   3.529 -0.2012 -0.2326 -0.0531
 8728TIP3    H147599   3.191   2.836   3.495 -1.1403 -1.4823 -2.1099
 8728TIP3    H247600   3.304   2.737   3.469 -0.7141 -1.5120 -0.3179
 8729TIP3   OH247601   1.360   3.175   1.663 -0.3941  0.1280 -0.3969
 8729TIP3    H147602   1.373   3.081   1.652 -1.6672  0.1446 -2.8043
 8729TIP3    H247603   1.444   3.207   1.697 -0.3451 -1.9862  1.7239
 8730TIP3   OH247604   4.818   0.781   1.992  0.4014 -0.4235  0.4292
 8730TIP3    H147605   4.872   0.703   1.987 -0.5504 -1.1191  0.6352
 8730TIP3    H247606   4.834   0.816   2.079  0.7577 -0.4415  0.3718
 8731TIP3   OH247607   3.808   0.719   1.870  0.9326 -0.1256  0.3276
 8731TIP3    H147608   3.860   0.716   1.790  1.2300  0.7194  0.4725
 8731TIP3    H247609   3.868   0.750   1.937  0.2594  0.8609  0.4995
 8732TIP3   OH247610   1.977   4.006   2.066 -0.5162 -0.5857  0.4581
 8732TIP3    H147611   2.047   3.987   2.003  0.4523 -1.1563  1.6658
 8732TIP3    H247612   1.920   3.929   2.063 -0.9391 -0.2617 -0.2840
 8733TIP3   OH247613   2.975   6.141  15.032  0.3927 -0.2752  0.4349
 8733TIP3    H147614   3.064   6.164  15.061  0.3629  0.5252 -0.0763
 8733TIP3    H247615   2.986   6.056  14.988  0.9087 -0.1753  0.3557
 8734TIP3   OH247616   0.517   3.173   5.186 -0.6366  0.3859  0.2368
 8734TIP3    H147617   0.589   3.220   5.143 -0.9458  1.7254  1.1233
 8734TIP3    H247618   0.473   3.239   5.238 -0.9295 -0.9494  1.7765
 8735TIP3   OH247619   4.522   5.351  12.154 -0.0413  0.5757 -0.4253
 8735TIP3    H147620   4.529   5.256  12.147  1.2817  0.5460  0.8793
 8735TIP3    H247621   4.448   5.365  12.213  0.9154  0.2655  0.8934
 8736TIP3   OH247622   2.952   5.915  11.900  0.1059  0.2638  0.0606
 8736TIP3    H147623   2.993   5.973  11.835 -0.0274 -1.1859 -1.3694
 8736TIP3    H247624   2.859   5.937  11.894 -0.1838 -1.2384 -1.7565
 8737TIP3   OH247625   3.661   0.634   0.730 -0.2220 -0.0728  0.1629
 8737TIP3    H147626   3.620   0.651   0.815 -0.8266 -0.3078 -0.0761
 8737TIP3    H247627   3.628   0.547   0.705 -1.6270  0.8265 -1.2319
 8738TIP3   OH247628   0.908   3.821  14.579  0.2494 -0.0537  0.8233
 8738TIP3    H147629   0.893   3.834  14.672 -0.9524 -1.1858  0.8235
 8738TIP3    H247630   0.998   3.789  14.573  0.4584  0.3865  1.5526
 8739TIP3   OH247631   5.053   3.244  15.222 -0.6515  0.2510  0.3908
 8739TIP3    H147632   5.124   3.300  15.253 -0.3540  0.4933 -0.6867
 8739TIP3    H247633   5.090   3.155  15.223 -0.2818  0.3924 -0.2864
 8740TIP3   OH247634   2.875   6.467   2.138  0.8302 -0.7419 -0.2818
 8740TIP3    H147635   2.782   6.485   2.122  0.9021  0.0422  0.1557
 8740TIP3    H247636   2.920   6.546   2.110  1.3573 -1.0400 -0.2902
 8741TIP3   OH247637   3.578   2.748   6.300 -0.4059  0.0124  0.1374
 8741TIP3    H147638   3.611   2.831   6.335  0.3989 -0.7664  1.2795
 8741TIP3    H247639   3.641   2.724   6.232 -0.0099 -0.2117  0.5781
 8742TIP3   OH247640   2.112   6.027  11.449 -0.2797  0.6958 -0.0384
 8742TIP3    H147641   2.031   6.077  11.448  0.3682  1.7894  0.1252
 8742TIP3    H247642   2.133   6.015  11.542  2.7067  5.5515  0.2497
 8743TIP3   OH247643   4.115   4.367  12.632  0.1263  0.0183 -0.8255
 8743TIP3    H147644   4.072   4.452  12.624  1.7051  0.7587 -2.1972
 8743TIP3    H247645   4.099   4.324  12.547  3.0645  0.8803 -1.9504
 8744TIP3   OH247646   5.414   4.777   4.866 -0.1861 -0.0835 -0.4465
 8744TIP3    H147647   5.356   4.844   4.903 -0.0924 -0.1429 -0.1870
 8744TIP3    H247648   5.386   4.769   4.775 -1.4906 -1.0729  0.0049
 8745TIP3   OH247649   5.957   4.339  10.519 -0.4730 -0.0950 -0.0274
 8745TIP3    H147650   5.942   4.401  10.448 -1.0434 -0.8655 -0.5923
 8745TIP3    H247651   6.052   4.339  10.531 -0.4406  0.6691 -0.2053
 8746TIP3   OH247652   1.984   6.087  16.121 -0.0138  0.1823  0.1855
 8746TIP3    H147653   1.973   6.051  16.209 -0.3174  0.5812  0.3141
 8746TIP3    H247654   2.077   6.109  16.116 -0.4412  2.5972  1.3726
 8747TIP3   OH247655   5.679   1.239  16.766  0.1951  0.0994 -0.5161
 8747TIP3    H147656   5.697   1.192  16.685 -0.5942  1.8727 -1.7781
 8747TIP3    H247657   5.701   1.330  16.747 -0.0258  0.5595  1.2556
 8748TIP3   OH247658   0.301   5.582   2.979  0.1955 -0.6476  0.5039
 8748TIP3    H147659   0.282   5.665   3.022  0.4223  0.1684 -0.8834
 8748TIP3    H247660   0.375   5.602   2.921  1.7203 -2.3687  1.7206
 8749TIP3   OH247661   0.215   2.809  17.079  0.1960  0.3332  0.1236
 8749TIP3    H147662   0.309   2.810  17.098  0.0801  1.9268  0.7763
 8749TIP3    H247663   0.209   2.823  16.984  0.6078  1.4539  0.2492
 8750TIP3   OH247664   0.317   2.631  10.390  0.3803 -0.0322  0.4279
 8750TIP3    H147665   0.389   2.671  10.438  0.4977  0.8815 -0.4909
 8750TIP3    H247666   0.331   2.536  10.401  1.0483  0.1497  1.2195
 8751TIP3   OH247667   6.717   1.496  15.525 -0.7689  0.2404  0.3332
 8751TIP3    H147668   6.683   1.553  15.456 -0.4922 -0.6008 -0.5215
 8751TIP3    H247669   6.810   1.489  15.506 -0.7489 -0.2649  0.6112
 8752TIP3   OH247670   2.048   4.057   5.549  0.1297 -0.1983  0.0799
 8752TIP3    H147671   2.143   4.059   5.536  0.1544  0.6527  0.3126
 8752TIP3    H247672   2.036   4.077   5.642 -0.1879 -2.8313  0.6758
 8753TIP3   OH247673   4.684   0.744   3.061 -0.2743  0.0059 -0.2106
 8753TIP3    H147674   4.677   0.803   3.137 -1.6936 -1.7498  1.1243
 8753TIP3    H247675   4.610   0.768   3.005 -1.5758 -1.1391  0.9025
 8754TIP3   OH247676   6.213   1.987   6.056  0.2617  0.1032  0.4678
 8754TIP3    H147677   6.132   1.939   6.074  0.7301 -0.7960  0.2352
 8754TIP3    H247678   6.241   2.020   6.142  0.7592 -1.3835  0.8976
 8755TIP3   OH247679   5.915   2.997  13.580  0.3780 -0.6652  0.8979
 8755TIP3    H147680   5.827   3.016  13.547  0.5856  0.3484  0.9001
 8755TIP3    H247681   5.917   3.035  13.668  0.9688 -0.2586  0.7185
 8756TIP3   OH247682   4.672   4.982  17.134  0.7275 -0.1361 -0.0798
 8756TIP3    H147683   4.667   4.886  17.131 -1.1907 -0.1467  1.4656
 8756TIP3    H247684   4.714   5.001  17.219  0.5146  0.3987 -0.0901
 8757TIP3   OH247685   1.454   5.956   1.147 -0.1975 -0.0409  0.4025
 8757TIP3    H147686   1.416   5.872   1.121 -1.0333  0.2398  0.6716
 8757TIP3    H247687   1.391   5.993   1.208  0.3799  0.5856  0.6366
 8758TIP3   OH247688   6.310   4.692  13.754 -0.2453  0.0049  0.0825
 8758TIP3    H147689   6.360   4.773  13.739 -0.6034 -0.0007 -1.2592
 8758TIP3    H247690   6.371   4.635  13.800  0.1240  0.9204  0.7700
 8759TIP3   OH247691   2.165   4.338   5.040 -0.4436  0.2013 -0.4161
 8759TIP3    H147692   2.099   4.365   4.976 -1.2726  0.5520  0.5568
 8759TIP3    H247693   2.247   4.337   4.991 -1.0964  0.2079 -1.5395
 8760TIP3   OH247694   2.221   4.700   1.618 -0.2852  0.9245 -0.2193
 8760TIP3    H147695   2.293   4.756   1.591 -1.4146  2.5004 -0.0606
 8760TIP3    H247696   2.230   4.695   1.713 -0.5213  1.2946 -0.1795
 8761TIP3   OH247697   4.116   6.502   5.855 -0.2266  0.2172 -0.1465
 8761TIP3    H147698   4.090   6.420   5.896  1.5441  0.2756  1.2698
 8761TIP3    H247699   4.107   6.567   5.925 -0.9948  1.1154 -1.0587
 8762TIP3   OH247700   0.610   5.323  16.645 -0.0651 -0.1494  0.3508
 8762TIP3    H147701   0.632   5.334  16.738  0.3059 -1.4501  0.4314
 8762TIP3    H247702   0.688   5.352  16.598 -0.0600  0.0155  0.4587
 8763TIP3   OH247703   5.446   4.775  12.280 -0.0962  0.2635  0.1316
 8763TIP3    H147704   5.432   4.685  12.248  0.4656  0.7239 -1.5276
 8763TIP3    H247705   5.388   4.782  12.356 -0.7708 -1.2427 -0.1866
 8764TIP3   OH247706   0.312   2.279   2.726  0.2138  0.1347 -0.3717
 8764TIP3    H147707   0.364   2.299   2.804 -0.0586 -1.4974  0.2805
 8764TIP3    H247708   0.265   2.360   2.707  1.6800  1.1261  0.0444
 8765TIP3   OH247709   5.158   6.573   1.418 -0.0075 -0.1248 -0.1556
 8765TIP3    H147710   5.101   6.643   1.450  1.0775 -0.1262  1.9503
 8765TIP3    H247711   5.244   6.614   1.409  0.1619 -0.6616 -1.1072
 8766TIP3   OH247712   6.044   0.814  12.926 -0.0205 -0.0571 -0.3319
 8766TIP3    H147713   6.118   0.872  12.905  0.6702 -0.3967  1.0320
 8766TIP3    H247714   5.969   0.873  12.934  0.1699  0.3401 -1.3754
 8767TIP3   OH247715   4.815   0.795  12.762  0.5160 -0.2321 -0.2387
 8767TIP3    H147716   4.881   0.864  12.774  0.7237 -0.4488 -0.1449
 8767TIP3    H247717   4.849   0.720  12.810 -0.5260  0.1231  1.1401
 8768TIP3   OH247718   5.670   6.057   1.233 -0.3661 -0.1471 -0.2985
 8768TIP3    H147719   5.698   6.103   1.312  1.9398 -2.2644  0.2640
 8768TIP3    H247720   5.737   5.990   1.220 -1.2608 -0.5715 -3.4656
 8769TIP3   OH247721   5.326   3.445  14.913 -0.6099  0.1139  0.8258
 8769TIP3    H147722   5.386   3.517  14.935 -1.8298  1.2817  0.5174
 8769TIP3    H247723   5.373   3.393  14.849 -0.2765  1.5655 -0.1579
 8770TIP3   OH247724   0.171   2.857   2.464  0.4600 -0.3930 -0.6605
 8770TIP3    H147725   0.212   2.941   2.443 -0.7746  0.3168 -0.3067
 8770TIP3    H247726   0.083   2.864   2.427  0.2724 -1.4506 -0.4335
 8771TIP3   OH247727   5.094   2.303  15.693  0.0469  0.4547  0.3875
 8771TIP3    H147728   5.040   2.325  15.618  2.7472  1.7328 -1.3684
 8771TIP3    H247729   5.053   2.347  15.767 -3.5542 -2.0775  0.1225
 8772TIP3   OH247730   6.654   2.149  15.676  0.2502  0.4112  0.2823
 8772TIP3    H147731   6.588   2.119  15.613 -0.1099  2.1276 -0.2050
 8772TIP3    H247732   6.663   2.076  15.738 -2.6637  0.4092  0.8300
 8773TIP3   OH247733   3.018   1.848  12.252 -0.5060 -0.4664 -0.5791
 8773TIP3    H147734   3.033   1.899  12.173 -1.3729 -0.3431 -0.6640
 8773TIP3    H247735   2.946   1.892  12.297  0.1756 -0.3511  0.4399
 8774TIP3   OH247736   0.559   5.463  17.236  0.0470 -0.0243  0.4856
 8774TIP3    H147737   0.581   5.370  17.236 -1.2159 -0.3567  1.7666
 8774TIP3    H247738   0.469   5.466  17.268 -0.3692  1.5547 -0.6860
 8775TIP3   OH247739   3.308   2.375  15.525 -0.1277 -0.4575  0.1149
 8775TIP3    H147740   3.230   2.320  15.533 -0.5248 -0.0622 -0.9399
 8775TIP3    H247741   3.287   2.437  15.455  1.0083 -0.1309  0.0494
 8776TIP3   OH247742   1.952   0.312  11.866 -0.1453  0.0560 -0.0904
 8776TIP3    H147743   1.975   0.252  11.938 -0.3130  0.9492  0.7180
 8776TIP3    H247744   2.005   0.390  11.882 -2.0095  1.2655  0.5165
 8777TIP3   OH247745   2.687   1.629   5.911 -0.0250 -0.7961  0.1226
 8777TIP3    H147746   2.612   1.583   5.873  0.8330 -1.8193 -0.3933
 8777TIP3    H247747   2.755   1.623   5.844  0.3998  0.4666  0.4171
 8778TIP3   OH247748   0.646   0.140   3.432  0.4007  0.0826 -0.5821
 8778TIP3    H147749   0.655   0.053   3.393  0.4289  0.6534 -1.9099
 8778TIP3    H247750   0.598   0.125   3.514 -0.1149 -1.1131 -1.0801
 8779TIP3   OH247751   1.750   3.607   5.249 -0.5295  0.1285 -0.2772
 8779TIP3    H147752   1.782   3.620   5.339  0.0321 -1.0205 -0.2845
 8779TIP3    H247753   1.804   3.665   5.196  0.2244 -0.3280 -0.0416
 8780TIP3   OH247754   5.902   5.171  13.578 -0.5477 -0.2531  0.2642
 8780TIP3    H147755   5.921   5.187  13.671  0.9284  0.3036 -0.1105
 8780TIP3    H247756   5.988   5.172  13.536 -1.3515  1.8432 -1.4715
 8781TIP3   OH247757   5.667   6.514   4.565  0.2520 -0.7182 -0.0096
 8781TIP3    H147758   5.599   6.470   4.617  0.4796 -1.1429 -0.0625
 8781TIP3    H247759   5.732   6.541   4.630  0.0461 -0.3330  0.0381
 8782TIP3   OH247760   1.870   3.669   0.028  0.2466  0.3120 -0.1710
 8782TIP3    H147761   1.837   3.588   0.066  0.8958 -0.1274 -0.5211
 8782TIP3    H247762   1.881   3.650  -0.065  0.2501  0.8520 -0.2867
 8783TIP3   OH247763   0.310   1.572  11.135 -0.0932  0.3362 -0.1685
 8783TIP3    H147764   0.297   1.568  11.041  0.1986 -2.6983 -0.1794
 8783TIP3    H247765   0.405   1.576  11.146 -0.0881 -0.1224 -0.0195
 8784TIP3   OH247766   4.304   1.042  11.930 -0.5356 -0.0114 -0.3022
 8784TIP3    H147767   4.383   1.002  11.964 -0.2940 -0.0962 -0.9458
 8784TIP3    H247768   4.312   1.135  11.953  0.7364  0.3734 -2.0988
 8785TIP3   OH247769   0.179   2.371  15.181 -0.3472 -0.2667 -0.1093
 8785TIP3    H147770   0.254   2.313  15.196 -0.2077  0.3191  1.7706
 8785TIP3    H247771   0.162   2.410  15.267 -0.2438  2.6850 -1.3119
 8786TIP3   OH247772   5.909   4.745  14.263 -0.1154 -0.2110 -0.3678
 8786TIP3    H147773   5.820   4.726  14.293  0.8770 -2.9322  1.2699
 8786TIP3    H247774   5.945   4.805  14.328 -0.9930  1.7112 -1.5791
 8787TIP3   OH247775   4.890   3.925  15.349  0.3354 -0.1636  0.1323
 8787TIP3    H147776   4.929   4.012  15.340  0.2055 -0.0047  1.0082
 8787TIP3    H247777   4.796   3.941  15.349  0.2912 -0.3920 -0.4649
 8788TIP3   OH247778   5.869   1.746   2.958  0.1800 -0.0380  0.1884
 8788TIP3    H147779   5.776   1.753   2.983 -0.3977 -1.1783 -1.4609
 8788TIP3    H247780   5.894   1.834   2.933 -0.1463  0.4888  1.6136
 8789TIP3   OH247781   3.308   3.492  12.844  0.1215 -0.3084 -0.0641
 8789TIP3    H147782   3.381   3.429  12.847  2.0054  1.7302 -0.4717
 8789TIP3    H247783   3.244   3.451  12.786  1.6945 -1.4821 -1.0647
 8790TIP3   OH247784   0.839   1.354  17.402  0.4050 -0.1757  0.4595
 8790TIP3    H147785   0.916   1.311  17.438 -0.4457 -1.2171  1.0914
 8790TIP3    H247786   0.833   1.436  17.452  0.2870 -0.7623  1.4359
 8791TIP3   OH247787   2.500   1.593  12.039 -0.2412  0.5007  0.3399
 8791TIP3    H147788   2.434   1.607  12.106  0.2745  0.7081  0.8147
 8791TIP3    H247789   2.540   1.509  12.063 -1.0266 -0.1414 -0.5435
 8792TIP3   OH247790   3.388   3.483  12.431  0.2943 -0.1516  0.6643
 8792TIP3    H147791   3.443   3.413  12.397 -0.1980  0.2828 -1.1551
 8792TIP3    H247792   3.442   3.562  12.424 -0.5796  0.3354 -1.4600
 8793TIP3   OH247793   0.653   0.640  12.927  0.9423  0.3730  0.1534
 8793TIP3    H147794   0.654   0.687  12.844 -0.5124  0.6321  0.2565
 8793TIP3    H247795   0.642   0.548  12.902  0.7560  0.4246  0.0444
 8794TIP3   OH247796   4.224   1.796  15.043 -0.8569 -0.5484 -1.1179
 8794TIP3    H147797   4.136   1.776  15.010 -1.8872  1.0866  0.4385
 8794TIP3    H247798   4.222   1.769  15.135  0.6328 -1.4283 -1.3215
 8795TIP3   OH247799   5.769   2.565   6.040 -0.1602  0.0248  0.3054
 8795TIP3    H147800   5.706   2.496   6.060 -1.0319  1.0362  1.1263
 8795TIP3    H247801   5.738   2.641   6.088  2.2233  0.3144  1.5146
 8796TIP3   OH247802   6.415   1.859  11.653 -0.1254 -0.4794 -0.1298
 8796TIP3    H147803   6.359   1.906  11.715  0.2584 -0.1289 -0.0431
 8796TIP3    H247804   6.502   1.862  11.692  0.0062 -0.7827 -0.3949
 8797TIP3   OH247805   5.873   6.349  16.015 -0.1092  0.3142 -0.2160
 8797TIP3    H147806   5.835   6.435  15.994 -0.6508  0.4536  1.2626
 8797TIP3    H247807   5.801   6.288  15.999  0.0179  0.2241 -0.4459
 8798TIP3   OH247808   4.895   2.695   5.307  0.0536  0.1915  0.2324
 8798TIP3    H147809   4.876   2.607   5.341 -0.8460 -0.3494 -1.5446
 8798TIP3    H247810   4.971   2.682   5.250  0.1695  0.6393  0.2884
 8799TIP3   OH247811   0.145   3.799  11.714 -0.1362  0.0657 -0.2433
 8799TIP3    H147812   0.138   3.824  11.622 -0.4424 -0.5556 -0.3979
 8799TIP3    H247813   0.083   3.855  11.759  0.3161  0.6639 -0.3515
 8800TIP3   OH247814   5.240   0.616  16.744 -0.3159  0.7810  0.0620
 8800TIP3    H147815   5.260   0.657  16.659 -1.2649 -1.1309 -1.1369
 8800TIP3    H247816   5.170   0.555  16.725 -0.5208  0.2660  2.2600
 8801TIP3   OH247817   0.774   3.926   4.216  0.0941 -0.0804  0.0408
 8801TIP3    H147818   0.751   3.873   4.140  0.3219  1.0664 -0.8644
 8801TIP3    H247819   0.868   3.914   4.226  0.6764  2.0858 -1.8044
 8802TIP3   OH247820   1.250   6.515   3.564  0.0431 -0.6582  0.2794
 8802TIP3    H147821   1.284   6.513   3.653 -0.2837 -1.7661  0.4026
 8802TIP3    H247822   1.317   6.560   3.513  1.7506 -2.7686  0.5058
 8803TIP3   OH247823   2.699   2.458  17.177 -0.1804  0.7699  0.0478
 8803TIP3    H147824   2.793   2.445  17.175 -0.0016  2.0255 -0.4005
 8803TIP3    H247825   2.663   2.385  17.127  0.3646 -0.9732  2.0491
 8804TIP3   OH247826   1.606   1.050   1.475 -1.0135 -0.1999 -0.4091
 8804TIP3    H147827   1.640   1.104   1.547 -0.1233 -0.9967 -0.2194
 8804TIP3    H247828   1.561   1.112   1.418 -0.2983  0.6981 -0.0182
 8805TIP3   OH247829   3.699   4.430   0.554  0.1578 -0.0682  0.2425
 8805TIP3    H147830   3.624   4.432   0.494  0.6787 -2.5865 -0.5872
 8805TIP3    H247831   3.773   4.457   0.500 -0.0523  2.6334  1.1155
 8806TIP3   OH247832   5.930   2.415  15.702  0.0308 -0.1473  0.1423
 8806TIP3    H147833   5.862   2.436  15.639 -0.5902  0.4305  0.9706
 8806TIP3    H247834   5.888   2.430  15.787  1.3395  0.6967  0.6635
 8807TIP3   OH247835   4.800   3.194   1.024  0.5168  0.2712 -0.4402
 8807TIP3    H147836   4.805   3.135   1.099  0.5879 -0.2592 -0.8588
 8807TIP3    H247837   4.713   3.179   0.987  0.3854  0.7174 -0.3121
 8808TIP3   OH247838   4.320   0.680   1.611 -0.1876  0.0005  0.1288
 8808TIP3    H147839   4.408   0.641   1.611  0.0439  0.5159  0.0350
 8808TIP3    H247840   4.317   0.732   1.691 -1.2394 -1.8330  1.3359
 8809TIP3   OH247841   0.496   0.950   5.428 -0.7290 -0.6384 -0.6990
 8809TIP3    H147842   0.587   0.958   5.399 -0.5504  0.9380  0.1861
 8809TIP3    H247843   0.446   0.935   5.348  0.2167 -0.6770 -1.2938
 8810TIP3   OH247844   4.329   2.099  13.100 -0.7085 -0.0372 -0.4879
 8810TIP3    H147845   4.327   2.005  13.082 -0.0016 -0.9481  3.3495
 8810TIP3    H247846   4.246   2.117  13.144 -0.6256  1.0563 -0.7483
 8811TIP3   OH247847   4.932   3.918  11.533 -0.1101 -0.5751  0.3098
 8811TIP3    H147848   4.903   3.934  11.622 -1.8188 -1.6118 -0.0058
 8811TIP3    H247849   5.002   3.981  11.518 -2.4364  2.4178  1.0650
 8812TIP3   OH247850   2.971   1.454   4.506 -0.1485  0.7721 -0.2308
 8812TIP3    H147851   3.028   1.526   4.533 -1.2291  0.8529  2.1190
 8812TIP3    H247852   2.883   1.492   4.508 -0.4843  0.1556 -1.9686
 8813TIP3   OH247853   3.499   0.831  14.083 -0.7232 -0.1064 -0.0854
 8813TIP3    H147854   3.586   0.813  14.046 -0.8274  0.1594 -0.4679
 8813TIP3    H247855   3.477   0.752  14.132 -1.6025 -1.4639 -2.5238
 8814TIP3   OH247856   1.191   3.728   2.515 -0.2481 -0.9072 -0.5814
 8814TIP3    H147857   1.232   3.745   2.430 -0.6057 -0.1000 -0.6027
 8814TIP3    H247858   1.231   3.647   2.545  2.1522  0.3428 -0.1237
 8815TIP3   OH247859   4.511   6.573   3.075  0.3756 -0.5438  0.3023
 8815TIP3    H147860   4.500   6.490   3.029  0.9018  0.7323 -2.3140
 8815TIP3    H247861   4.591   6.610   3.039 -0.7013  1.8416  0.1716
 8816TIP3   OH247862   6.164   1.935   2.425 -0.5979 -0.4731  0.0584
 8816TIP3    H147863   6.192   1.924   2.516 -1.0374  0.7017  0.3579
 8816TIP3    H247864   6.178   1.850   2.385  0.0033 -0.8940  1.1210
 8817TIP3   OH247865   3.129   2.760   2.974 -0.5613 -0.2208  0.2775
 8817TIP3    H147866   3.065   2.689   2.966  0.9334 -1.6071  0.0246
 8817TIP3    H247867   3.189   2.730   3.043  0.5641  0.4231 -0.4041
 8818TIP3   OH247868   2.915   5.002   4.802 -0.3454 -0.1996  0.0540
 8818TIP3    H147869   2.977   4.939   4.764  1.0671  1.3036 -0.2642
 8818TIP3    H247870   2.962   5.040   4.876  0.5122  3.2305 -2.0145
 8819TIP3   OH247871   2.995   0.915   6.280  0.8216  0.2621 -0.1148
 8819TIP3    H147872   2.978   1.004   6.251 -2.0984  0.6741  2.3358
 8819TIP3    H247873   2.915   0.889   6.327  1.6753 -3.5350 -0.3969
 8820TIP3   OH247874   5.581   5.915  14.265 -0.3192  0.2898 -0.1142
 8820TIP3    H147875   5.591   5.957  14.350 -0.3428  0.9410 -0.4333
 8820TIP3    H247876   5.576   5.821  14.286  1.7783  0.2558  0.4392
 8821TIP3   OH247877   3.221   2.047   2.134 -0.1972  0.7673  0.3438
 8821TIP3    H147878   3.168   1.968   2.123 -0.4940  1.0539 -0.4128
 8821TIP3    H247879   3.173   2.114   2.084  1.8199  0.6145 -1.9820
 8822TIP3   OH247880   2.583   4.511   1.600 -0.4003 -0.7998  0.0531
 8822TIP3    H147881   2.664   4.460   1.598 -0.8894 -1.6050  0.5501
 8822TIP3    H247882   2.527   4.470   1.534 -0.6072 -0.5785  0.0905
 8823TIP3   OH247883   5.454   5.615   0.866 -0.0131  0.1299  0.5154
 8823TIP3    H147884   5.525   5.588   0.926 -0.5185  0.3014  1.2020
 8823TIP3    H247885   5.375   5.579   0.906 -0.0971 -2.1035 -1.4618
 8824TIP3   OH247886   2.663   6.170   1.240  0.6811  0.7187 -0.4613
 8824TIP3    H147887   2.740   6.196   1.291  0.5356  0.9283 -0.3425
 8824TIP3    H247888   2.589   6.200   1.293  0.4257 -1.7716  0.7169
 8825TIP3   OH247889   3.113   6.618  13.176 -0.1574  0.1809  0.5782
 8825TIP3    H147890   3.198   6.642  13.214 -0.6973  1.3332  1.0906
 8825TIP3    H247891   3.065   6.700  13.169  0.4029  0.3534 -4.0435
 8826TIP3   OH247892   6.255   0.457  11.876  0.0168  0.0003  0.2449
 8826TIP3    H147893   6.230   0.378  11.923 -2.3306  1.9859  2.6369
 8826TIP3    H247894   6.179   0.478  11.821 -0.4432  1.8103  1.4726
 8827TIP3   OH247895   4.750   0.559  17.022 -0.8349 -0.5659  0.1201
 8827TIP3    H147896   4.824   0.529  17.076 -2.3832 -1.7433  1.7089
 8827TIP3    H247897   4.734   0.487  16.961  0.0827  0.2231 -1.1061
 8828TIP3   OH247898   5.432   0.322  16.379  0.1255  0.1618 -0.1190
 8828TIP3    H147899   5.402   0.407  16.349 -0.4998  0.0784  0.2529
 8828TIP3    H247900   5.447   0.272  16.299 -1.4539 -0.0373 -0.3170
 8829TIP3   OH247901   0.078   4.434   6.265 -0.0063 -1.0727 -0.2498
 8829TIP3    H147902   0.028   4.384   6.329 -0.9325 -0.5718 -0.5450
 8829TIP3    H247903   0.017   4.502   6.236 -0.1910 -2.2194 -2.8082
 8830TIP3   OH247904   6.453   5.082  11.784  0.3169  0.2647  0.1166
 8830TIP3    H147905   6.476   5.131  11.863  2.5443  1.5815 -1.2500
 8830TIP3    H247906   6.409   5.003  11.817  0.8984  0.8879  2.6377
 8831TIP3   OH247907   3.834   5.455   1.761  0.1457  0.0324  0.0741
 8831TIP3    H147908   3.814   5.496   1.677  0.3164 -0.1016 -0.0331
 8831TIP3    H247909   3.805   5.519   1.826  0.7658  0.5023 -0.0944
 8832TIP3   OH247910   4.571   3.736  14.163 -1.0755  0.1753 -0.0781
 8832TIP3    H147911   4.651   3.684  14.164 -0.6712  0.7789  0.9139
 8832TIP3    H247912   4.525   3.710  14.243 -1.4233  0.5104 -0.1662
 8833TIP3   OH247913   3.783   4.829   3.160  0.5329  0.0702  0.5598
 8833TIP3    H147914   3.762   4.885   3.086 -0.5467 -0.0794  0.7380
 8833TIP3    H247915   3.877   4.811   3.151  0.2279 -0.7937 -1.3711
 8834TIP3   OH247916   2.313   2.389  13.560 -0.4895  0.3641  0.2869
 8834TIP3    H147917   2.245   2.331  13.526 -0.1889 -0.3870  0.9560
 8834TIP3    H247918   2.265   2.459  13.604 -0.8959  1.3471 -1.5783
 8835TIP3   OH247919   2.991   3.974   0.511 -0.4697  0.1343 -0.1445
 8835TIP3    H147920   2.908   4.008   0.476 -0.2670  0.4387 -0.3326
 8835TIP3    H247921   2.964   3.911   0.578 -0.8562  0.1371 -0.2918
 8836TIP3   OH247922   0.090   6.300   3.512 -0.1746  0.2420 -0.4487
 8836TIP3    H147923   0.004   6.335   3.535 -0.5041  0.7345 -2.2696
 8836TIP3    H247924   0.083   6.206   3.529 -0.3261  0.5583  1.4740
 8837TIP3   OH247925   0.953   4.438  16.590  0.7165 -0.9808 -0.4601
 8837TIP3    H147926   1.030   4.427  16.645  1.7258 -0.4341 -1.6966
 8837TIP3    H247927   0.885   4.472  16.649  1.2890 -1.8571  0.7286
 8838TIP3   OH247928   4.177   2.741  13.285  0.1692  0.5556 -0.3126
 8838TIP3    H147929   4.132   2.769  13.206 -1.5187 -2.0331 -0.4108
 8838TIP3    H247930   4.209   2.821  13.325 -1.3685  2.1925 -2.1783
 8839TIP3   OH247931   1.824   4.986  12.644 -0.3100  0.2977  0.5584
 8839TIP3    H147932   1.898   5.045  12.633 -0.3197 -0.0225 -1.7226
 8839TIP3    H247933   1.753   5.026  12.593 -0.3878 -1.4757 -0.8512
 8840TIP3   OH247934   1.725   2.281   2.631  0.2784 -0.4044 -0.6148
 8840TIP3    H147935   1.740   2.198   2.587 -1.1162 -0.3122 -1.3181
 8840TIP3    H247936   1.674   2.259   2.709  3.9470 -0.7560  1.9211
 8841TIP3   OH247937   5.927   4.480   2.896  0.1744  0.0468 -0.1441
 8841TIP3    H147938   6.002   4.532   2.869 -0.3499  0.8135 -0.1483
 8841TIP3    H247939   5.861   4.544   2.923  0.4187 -0.6159  2.3287
 8842TIP3   OH247940   6.237   3.296  15.695  0.3356 -0.0383  0.6032
 8842TIP3    H147941   6.253   3.379  15.650  1.0130 -0.0906  0.7328
 8842TIP3    H247942   6.168   3.316  15.758  0.8479  0.5590  0.9869
 8843TIP3   OH247943   3.806   1.731  15.946 -0.1150 -0.0830 -0.2243
 8843TIP3    H147944   3.782   1.658  16.003  0.8066 -1.3025 -1.2998
 8843TIP3    H247945   3.895   1.710  15.917  0.2418  1.5823 -0.4369
 8844TIP3   OH247946   2.076   0.832   4.556 -0.1442 -0.1436  0.0701
 8844TIP3    H147947   1.988   0.858   4.530 -0.3836 -1.0597 -0.0638
 8844TIP3    H247948   2.086   0.867   4.645 -0.2850  0.7672 -0.2600
 8845TIP3   OH247949   4.384   0.444   3.884 -0.2610  0.2476  0.3305
 8845TIP3    H147950   4.435   0.399   3.817 -0.1710 -0.4692  0.8767
 8845TIP3    H247951   4.307   0.477   3.837 -0.1627 -0.1882 -0.1413
 8846TIP3   OH247952   0.358   4.140   5.246  0.0365  0.2989  0.1637
 8846TIP3    H147953   0.439   4.173   5.285 -0.7172  2.0385  0.3672
 8846TIP3    H247954   0.313   4.095   5.318  1.3839 -1.9296 -0.2793
 8847TIP3   OH247955   1.889   5.070  14.160  0.1986  0.5701  0.1632
 8847TIP3    H147956   1.819   5.118  14.116  0.0552  0.4987  0.3110
 8847TIP3    H247957   1.890   5.105  14.249  1.2563  1.5315 -0.2138
 8848TIP3   OH247958   1.233   5.174   1.969  0.5683 -0.4257  0.3616
 8848TIP3    H147959   1.307   5.116   1.954  0.4409 -0.6198  0.4728
 8848TIP3    H247960   1.185   5.133   2.041 -0.6456 -1.2793 -0.8821
 8849TIP3   OH247961   4.227   2.420  14.978  0.5168  0.2321  0.2617
 8849TIP3    H147962   4.184   2.473  15.046  0.2633 -0.3614  0.5753
 8849TIP3    H247963   4.159   2.407  14.912  0.3765 -0.2340  0.4910
 8850TIP3   OH247964   6.582   0.793   3.070  0.7426 -0.3362 -0.2119
 8850TIP3    H147965   6.627   0.861   3.121  0.5402 -0.8699  0.7034
 8850TIP3    H247966   6.496   0.785   3.111  1.0616 -1.7233  0.2495
 8851TIP3   OH247967   3.067   6.153   2.835 -0.5323  0.1192 -0.1713
 8851TIP3    H147968   2.986   6.183   2.792 -0.4947 -2.2938 -2.1164
 8851TIP3    H247969   3.115   6.108   2.767  1.8007  0.1577  1.3406
 8852TIP3   OH247970   1.777   5.761   2.790 -0.1361 -0.1014 -0.1051
 8852TIP3    H147971   1.770   5.669   2.815 -2.0162 -0.0770 -0.3555
 8852TIP3    H247972   1.720   5.807   2.852 -1.0070  0.5781 -1.3641
 8853TIP3   OH247973   5.434   5.183   3.397 -0.5762  0.5879 -0.0798
 8853TIP3    H147974   5.380   5.230   3.334  0.5326  1.6704 -0.2829
 8853TIP3    H247975   5.404   5.214   3.482  0.8825  2.6386 -0.2333
 8854TIP3   OH247976   1.156   1.946   6.163 -0.3116 -0.0433 -0.2598
 8854TIP3    H147977   1.246   1.946   6.130 -0.6148  0.4513 -1.1148
 8854TIP3    H247978   1.115   1.872   6.118 -0.5161  0.1599 -0.4099
 8855TIP3   OH247979   5.430   0.305  14.896 -0.0265  0.1551  0.1201
 8855TIP3    H147980   5.489   0.309  14.820 -1.1876  0.6761 -0.7944
 8855TIP3    H247981   5.415   0.212  14.909  2.0489 -0.0842  1.2541
 8856TIP3   OH247982   2.576   5.553  15.726 -0.5274 -0.4616 -0.5012
 8856TIP3    H147983   2.568   5.481  15.789 -0.9775  1.1312  1.3875
 8856TIP3    H247984   2.659   5.595  15.749 -0.4313 -0.1839 -1.3472
 8857TIP3   OH247985   1.864   2.019  10.932  0.1983  0.0619  0.1627
 8857TIP3    H147986   1.949   2.062  10.926  0.1833  0.0387 -0.2188
 8857TIP3    H247987   1.802   2.090  10.951  0.1062  0.2892 -0.9093
 8858TIP3   OH247988   5.035   1.578   6.406  0.0787 -0.1739  0.1012
 8858TIP3    H147989   5.016   1.619   6.322 -0.9223  0.2904  0.5303
 8858TIP3    H247990   5.059   1.488   6.385 -3.2414 -1.0637 -0.5608
 8859TIP3   OH247991   4.012   0.567   4.023 -0.3111  0.3834  0.5202
 8859TIP3    H147992   4.089   0.606   4.065  0.5437  0.2163 -0.8355
 8859TIP3    H247993   4.047   0.518   3.949 -1.6356 -0.6667  0.5563
 8860TIP3   OH247994   5.527   3.316  13.220  0.1961  0.4684  0.0139
 8860TIP3    H147995   5.569   3.230  13.215  0.4579  0.4629  1.7327
 8860TIP3    H247996   5.590   3.376  13.181  1.2799  0.2655  1.3595
 8861TIP3   OH247997   2.879   2.038   4.451 -0.4957 -1.1504 -0.0232
 8861TIP3    H147998   2.921   2.118   4.482 -1.1717 -0.5747 -0.5613
 8861TIP3    H247999   2.788   2.046   4.479 -0.2426 -2.4659  1.2775
 8862TIP3   OH248000   1.473   3.840   0.971  0.4406  0.3823 -0.4249
 8862TIP3    H148001   1.444   3.752   0.950  0.3983  0.8148 -2.3792
 8862TIP3    H248002   1.555   3.828   1.018  0.3383 -0.6912 -0.5029
 8863TIP3   OH248003   2.093   5.592   0.991  0.3275 -0.5572  0.4181
 8863TIP3    H148004   2.078   5.497   0.982 -2.3491 -0.0611 -1.6326
 8863TIP3    H248005   2.071   5.611   1.082 -1.4693 -1.6281  0.2600
 8864TIP3   OH248006   3.668   3.821   0.303  0.1831  0.2233 -0.1980
 8864TIP3    H148007   3.584   3.776   0.301  0.2452 -0.2258  2.7003
 8864TIP3    H248008   3.731   3.756   0.270 -0.3776  0.0787 -1.0233
 8865TIP3   OH248009   5.823   1.588  15.316 -0.4513 -0.6387  0.0848
 8865TIP3    H148010   5.886   1.597  15.244 -1.8725 -0.7017 -1.2286
 8865TIP3    H248011   5.796   1.678  15.336 -1.1850 -0.7002 -0.5499
 8866TIP3   OH248012   2.188   3.698   2.249  0.0781 -0.1857  0.6932
 8866TIP3    H148013   2.191   3.792   2.228 -1.0636 -0.3047 -0.1228
 8866TIP3    H248014   2.252   3.687   2.318 -0.1474  1.3031  1.1818
 8867TIP3   OH248015   2.916   6.608  13.931  0.1011  0.4589 -0.4383
 8867TIP3    H148016   2.862   6.681  13.900 -1.9434 -0.8277 -0.1165
 8867TIP3    H248017   2.976   6.590  13.859 -0.2785  1.5657 -1.0521
 8868TIP3   OH248018   0.672   5.125  10.739 -0.6500  0.4479  0.2105
 8868TIP3    H148019   0.616   5.120  10.662 -1.3900 -0.6871  0.7887
 8868TIP3    H248020   0.658   5.042  10.785  1.3926  0.1828  0.4750
 8869TIP3   OH248021   0.996   3.130  13.966 -0.4167 -0.3782 -0.6325
 8869TIP3    H148022   0.912   3.166  13.994  0.3662 -0.2076  1.6537
 8869TIP3    H248023   1.058   3.202  13.976  1.1010 -2.0002  3.6190
 8870TIP3   OH248024   3.576   2.345  13.296  0.5116  0.4080  0.7821
 8870TIP3    H148025   3.665   2.332  13.263  0.3336  0.1162  0.4183
 8870TIP3    H248026   3.548   2.257  13.323 -0.1783  0.2561 -0.3811
 8871TIP3   OH248027   1.896   2.178   0.370 -0.1285  0.2084 -0.5456
 8871TIP3    H148028   1.871   2.090   0.397  1.8048  0.5575  2.9441
 8871TIP3    H248029   1.978   2.166   0.322  1.5585  0.1198  2.1401
 8872TIP3   OH248030   3.026   4.649  12.460 -0.7899  0.1818  0.0345
 8872TIP3    H148031   3.069   4.725  12.423 -0.5886  0.2947  0.4981
 8872TIP3    H248032   3.001   4.596  12.384 -0.7143  0.5895 -0.2754
 8873TIP3   OH248033   1.666   4.744  13.860  0.6076 -0.5578 -0.4127
 8873TIP3    H148034   1.571   4.754  13.865  0.6334 -0.9081  2.0997
 8873TIP3    H248035   1.692   4.797  13.785 -1.3760  0.9845 -0.0916
 8874TIP3   OH248036   0.957   4.847  11.970 -0.3496  0.4046 -0.3503
 8874TIP3    H148037   0.893   4.917  11.981  0.0451  0.5243  1.4937
 8874TIP3    H248038   1.027   4.868  12.032  2.5201  1.3309 -3.5735
 8875TIP3   OH248039   4.714   0.656   5.063  0.0791 -0.4150 -0.2778
 8875TIP3    H148040   4.768   0.593   5.016 -0.8892 -1.7288  0.3180
 8875TIP3    H248041   4.726   0.634   5.155 -1.3356 -0.6334 -0.1261
 8876TIP3   OH248042   2.727   3.763  14.298  0.2096  0.8148 -0.0051
 8876TIP3    H148043   2.724   3.728  14.209 -2.4587  1.2407 -0.1514
 8876TIP3    H248044   2.724   3.685  14.355  1.6844  0.5543 -0.2425
 8877TIP3   OH248045   0.646   3.075  15.668 -0.1666 -0.6640  0.1121
 8877TIP3    H148046   0.734   3.092  15.699  0.2473 -1.4579 -0.5672
 8877TIP3    H248047   0.599   3.041  15.745  0.2214 -0.5734  0.3902
 8878TIP3   OH248048   3.566   4.802   4.429 -0.0894 -0.4687  0.2158
 8878TIP3    H148049   3.536   4.732   4.486  2.2333 -1.7736 -0.0172
 8878TIP3    H248050   3.509   4.798   4.352 -2.7404  0.7870  1.9770
 8879TIP3   OH248051   1.337   3.424   4.787 -0.7336  0.1901 -0.1427
 8879TIP3    H148052   1.249   3.402   4.817  0.0021 -2.7265  0.1957
 8879TIP3    H248053   1.326   3.448   4.695 -1.9035  0.0688 -0.0477
 8880TIP3   OH248054   4.628   6.014   2.981 -0.2257 -0.0727  0.3524
 8880TIP3    H148055   4.613   5.943   3.043  0.4206 -0.8138 -0.3135
 8880TIP3    H248056   4.702   6.063   3.018  0.0449 -0.4062  0.2524
 8881TIP3   OH248057   5.111   1.407   5.155 -0.2879  0.0053  0.9373
 8881TIP3    H148058   5.176   1.469   5.124 -1.3835  1.0894  0.7380
 8881TIP3    H248059   5.162   1.333   5.189  1.0253 -1.0384 -2.8761
 8882TIP3   OH248060   2.586   4.252   3.871  0.0745  0.3059  0.2759
 8882TIP3    H148061   2.555   4.179   3.925 -1.2865  0.4415 -0.2903
 8882TIP3    H248062   2.604   4.211   3.785 -0.1569  0.5414  0.1161
 8883TIP3   OH248063   4.916   0.541  16.035 -0.9013 -0.1738  0.3415
 8883TIP3    H148064   4.875   0.600  16.098 -1.3352  0.0049 -0.1036
 8883TIP3    H248065   4.843   0.497  15.992 -0.7739  1.5086 -1.7976
 8884TIP3   OH248066   4.325   2.142   6.970  0.3723  1.1254  0.4456
 8884TIP3    H148067   4.384   2.106   7.036  0.1545 -1.3196 -0.5561
 8884TIP3    H248068   4.370   2.127   6.887 -1.7265 -1.3488 -0.4040
 8885TIP3   OH248069   5.437   0.651  13.624 -0.7130 -0.0413 -0.4259
 8885TIP3    H148070   5.507   0.604  13.579 -0.0513  0.1566  0.3669
 8885TIP3    H248071   5.461   0.743  13.615  0.3500 -0.0510  1.7352
 8886TIP3   OH248072   0.298   1.009   4.119  0.3583 -0.5621 -0.9027
 8886TIP3    H148073   0.205   1.022   4.101  0.4873  0.6935 -0.7496
 8886TIP3    H248074   0.341   1.025   4.035  0.5377  0.3049 -0.6610
 8887TIP3   OH248075   1.832   4.720   1.864 -0.9020  0.7837  0.4025
 8887TIP3    H148076   1.780   4.695   1.787  0.6914  0.4962 -0.6123
 8887TIP3    H248077   1.854   4.636   1.906 -1.0384  0.8901  0.6899
 8888TIP3   OH248078   3.400   0.166  14.107 -0.5719 -0.7408  0.9926
 8888TIP3    H148079   3.403   0.085  14.055 -3.3900 -0.0228 -0.4961
 8888TIP3    H248080   3.310   0.197  14.097  0.2082  2.1810  2.1710
 8889TIP3   OH248081   0.134   6.126  13.852  0.0554 -0.1799  0.2848
 8889TIP3    H148082   0.199   6.063  13.821 -0.3076  0.4521 -1.9903
 8889TIP3    H248083   0.184   6.190  13.902  0.6442 -1.4433  1.3776
 8890TIP3   OH248084   1.317   1.425   5.599  0.6563  0.4253  0.1541
 8890TIP3    H148085   1.412   1.419   5.592  0.6096  0.0719 -0.1772
 8890TIP3    H248086   1.294   1.362   5.667  0.6391  0.3495  0.0786
 8891TIP3   OH248087   5.611   5.520  16.247 -0.4094 -0.3426 -0.4319
 8891TIP3    H148088   5.682   5.476  16.294 -0.3215 -0.1785 -0.4126
 8891TIP3    H248089   5.633   5.512  16.155  0.6075  1.3412 -0.3746
 8892TIP3   OH248090   6.172   3.021   2.520 -0.1671  0.5390  0.0360
 8892TIP3    H148091   6.199   2.965   2.594 -2.0385 -1.0906 -0.4192
 8892TIP3    H248092   6.252   3.034   2.470  0.9883  0.9876  1.8903
 8893TIP3   OH248093   2.526   6.104  15.191  0.0808  0.2721 -0.1991
 8893TIP3    H148094   2.609   6.059  15.210 -0.3449  0.0426  1.2723
 8893TIP3    H248095   2.488   6.055  15.119  0.5837 -0.4917  0.0412
 8894TIP3   OH248096   5.337   5.522  16.025 -0.2209 -0.1450 -0.5547
 8894TIP3    H148097   5.367   5.469  15.951  1.5246  1.0069 -0.7224
 8894TIP3    H248098   5.302   5.458  16.087  0.4665 -1.3485 -1.3626
 8895TIP3   OH248099   3.153   4.094   4.219 -0.3582  0.3374 -0.1104
 8895TIP3    H148100   3.142   4.011   4.264 -2.1295  0.5076 -0.1493
 8895TIP3    H248101   3.196   4.072   4.137 -0.1994 -0.4486  0.1788
 8896TIP3   OH248102   5.191   5.222  16.513 -0.1216 -0.2765  0.0300
 8896TIP3    H148103   5.112   5.217  16.566  1.4752  0.7586  2.7134
 8896TIP3    H248104   5.245   5.288  16.556  2.5058 -1.4362 -1.2430
 8897TIP3   OH248105   4.560   3.873   0.831 -0.7711 -0.6250 -0.4260
 8897TIP3    H148106   4.585   3.850   0.741 -1.3346 -1.7705 -0.3104
 8897TIP3    H248107   4.529   3.791   0.869 -1.8790  0.1261  0.3709
 8898TIP3   OH248108   5.902   3.886   4.395  0.4274  0.5200 -0.6588
 8898TIP3    H148109   5.940   3.865   4.310 -0.3056 -2.1141 -0.4160
 8898TIP3    H248110   5.811   3.909   4.375  0.6582  1.4428 -0.7033
 8899TIP3   OH248111   3.530   3.332   6.035 -0.2276  0.4031  0.0479
 8899TIP3    H148112   3.588   3.333   6.112  0.3681 -0.0035 -0.3839
 8899TIP3    H248113   3.504   3.241   6.026  2.7098 -0.3804 -2.3877
 8900TIP3   OH248114   5.987   2.490  16.562  0.1176  0.2222 -0.1814
 8900TIP3    H148115   5.896   2.478  16.537  0.1947 -1.0808  0.0803
 8900TIP3    H248116   6.005   2.583  16.547 -0.7489  0.1377 -1.8797
 8901TIP3   OH248117   5.978   5.140  16.640 -0.1848 -0.4965  0.0155
 8901TIP3    H148118   5.904   5.135  16.701  1.7214  0.0382  2.5324
 8901TIP3    H248119   5.979   5.231  16.611 -0.6849 -0.5796 -0.2696
 8902TIP3   OH248120   1.545   5.379  12.165 -0.3511  0.1742 -0.3065
 8902TIP3    H148121   1.570   5.356  12.075  0.9813  0.6213 -0.0758
 8902TIP3    H248122   1.567   5.472  12.172  0.3651 -0.0566  0.7283
 8903TIP3   OH248123   3.014   2.256   3.275 -0.1795  0.2732  0.4012
 8903TIP3    H148124   2.971   2.170   3.274 -1.2579  0.7957  0.5227
 8903TIP3    H248125   3.067   2.257   3.195 -1.0268 -0.0732 -0.1794
 8904TIP3   OH248126   5.807   6.614   5.886  0.1013 -0.6059  0.3637
 8904TIP3    H148127   5.817   6.525   5.853 -0.7215 -0.7578  0.5067
 8904TIP3    H248128   5.774   6.664   5.811  4.3317  0.5652 -1.0299
 8905TIP3   OH248129   3.908   5.277   0.103 -0.2393  0.5093 -0.0768
 8905TIP3    H148130   3.926   5.264   0.196 -1.6816  0.0190  0.1516
 8905TIP3    H248131   3.990   5.252   0.059  0.0085 -0.5910  0.9568
 8906TIP3   OH248132   0.697   0.584   3.363 -0.7499 -0.3636 -0.4410
 8906TIP3    H148133   0.780   0.558   3.322 -0.7813  0.3835 -0.9959
 8906TIP3    H248134   0.714   0.670   3.400 -1.1419 -0.4155 -0.1413
 8907TIP3   OH248135   5.877   1.050  11.444 -0.2223 -0.1130 -0.4180
 8907TIP3    H148136   5.827   1.093  11.513  0.8838 -0.5550  0.7092
 8907TIP3    H248137   5.890   1.117  11.378 -0.7697  0.5096  0.0892
 8908TIP3   OH248138   2.814   6.680   5.708 -0.3392 -0.0081 -0.3928
 8908TIP3    H148139   2.857   6.612   5.760 -0.8694 -0.0844 -0.0604
 8908TIP3    H248140   2.884   6.743   5.690 -0.5361  1.0164  2.0217
 8909TIP3   OH248141   1.314   1.982  12.323  0.4748  0.2138  0.2127
 8909TIP3    H148142   1.306   1.931  12.243  0.4747 -1.2689  1.1279
 8909TIP3    H248143   1.359   1.925  12.385 -0.5352  0.8874  1.6408
 8910TIP3   OH248144   6.391   2.310  15.646  0.2001  0.4073  0.0462
 8910TIP3    H148145   6.391   2.392  15.695  0.5925  0.5556 -0.2007
 8910TIP3    H248146   6.472   2.267  15.672 -0.3420 -0.2374  0.7211
 8911TIP3   OH248147   6.183   2.536  14.520 -0.3864 -0.0245 -0.2033
 8911TIP3    H148148   6.108   2.477  14.510 -0.7190 -0.1049  2.1342
 8911TIP3    H248149   6.143   2.622  14.538  0.0791  0.2288 -0.3788
 8912TIP3   OH248150   3.884   2.030   0.998 -0.1418 -0.1530  0.3465
 8912TIP3    H148151   3.831   2.049   1.075 -2.4003 -0.4429 -1.0400
 8912TIP3    H248152   3.959   1.981   1.032  0.2692  1.8897  2.6196
 8913TIP3   OH248153   4.986   2.801  15.438  0.7268  0.0984 -0.0214
 8913TIP3    H148154   4.987   2.878  15.495  0.5121  0.8629 -1.0394
 8913TIP3    H248155   4.952   2.832  15.354 -0.5910 -1.3578 -0.0894
 8914TIP3   OH248156   1.557   4.193   0.095  0.0905 -0.4565 -0.1955
 8914TIP3    H148157   1.616   4.232   0.159 -0.6336 -1.0368  0.8601
 8914TIP3    H248158   1.594   4.216   0.010  0.1865  1.7120  0.3958
 8915TIP3   OH248159   2.710   3.923  11.951 -0.2303 -0.1885  0.7025
 8915TIP3    H148160   2.638   3.972  11.990 -0.9246 -0.2124 -0.4869
 8915TIP3    H248161   2.667   3.850  11.906  0.4113  0.4112 -0.9405
 8916TIP3   OH248162   5.017   1.178   4.790 -0.4453 -0.5633  0.4992
 8916TIP3    H148163   5.026   1.262   4.746  0.5794 -1.4983 -1.1687
 8916TIP3    H248164   4.924   1.156   4.781 -0.0749 -1.2802 -2.3750
 8917TIP3   OH248165   0.135   0.447   0.783 -0.3068 -0.5879 -0.1404
 8917TIP3    H148166   0.098   0.495   0.857 -0.9656 -1.0054 -0.1891
 8917TIP3    H248167   0.126   0.506   0.708  1.0049  0.1215  0.2238
 8918TIP3   OH248168   4.913   4.769  15.693 -0.3844 -0.1533  0.1828
 8918TIP3    H148169   4.920   4.708  15.619  0.4802 -2.4569  2.0136
 8918TIP3    H248170   4.822   4.761  15.722 -0.6140  0.4298 -0.3809
 8919TIP3   OH248171   2.689   3.525   2.490  0.4173 -0.0741 -0.2710
 8919TIP3    H148172   2.721   3.513   2.401  2.3970 -0.2996  0.4151
 8919TIP3    H248173   2.731   3.456   2.541 -0.1941  0.4071  0.9450
 8920TIP3   OH248174   6.361   6.000  12.731  0.2018 -0.3219 -0.2888
 8920TIP3    H148175   6.306   5.923  12.720  1.2798 -1.2495  0.6025
 8920TIP3    H248176   6.301   6.069  12.757 -0.8484 -0.7184 -1.5913
 8921TIP3   OH248177   4.756   3.619   5.182  0.0646 -0.2415  0.3014
 8921TIP3    H148178   4.781   3.588   5.269  2.3403  1.4842  0.3248
 8921TIP3    H248179   4.836   3.653   5.144 -1.2803  0.8434 -1.7392
 8922TIP3   OH248180   1.603   1.632  13.926 -0.5644  0.7659  0.5685
 8922TIP3    H148181   1.564   1.619  13.840  0.5594 -0.6245  0.2306
 8922TIP3    H248182   1.675   1.693  13.911  0.0307  0.0293  0.3905
 8923TIP3   OH248183   3.656   3.633  11.992  0.1815 -0.0034 -0.0879
 8923TIP3    H148184   3.621   3.702  12.049  0.7168  1.1587 -1.1259
 8923TIP3    H248185   3.667   3.557  12.050 -0.6726  0.6922  1.0207
 8924TIP3   OH248186   2.717   2.320  12.986 -0.5108  0.0548 -0.3627
 8924TIP3    H148187   2.724   2.325  12.891  0.7111 -2.1831 -0.4601
 8924TIP3    H248188   2.807   2.312  13.017 -0.8041  1.7751  1.1179
 8925TIP3   OH248189   0.214   4.953   1.519  0.0122  0.1152 -0.1883
 8925TIP3    H148190   0.157   4.940   1.443  1.5081  0.2512 -1.3727
 8925TIP3    H248191   0.169   4.909   1.591 -2.2614  1.3753 -0.7475
 8926TIP3   OH248192   5.188   4.880  15.704  0.7253  0.7823 -0.1375
 8926TIP3    H148193   5.265   4.824  15.720  0.7552  0.8575 -0.0162
 8926TIP3    H248194   5.113   4.826  15.728  0.6704  0.3296 -1.2587
 8927TIP3   OH248195   1.700   6.650  16.915  0.0532 -0.3720  0.1445
 8927TIP3    H148196   1.702   6.689  17.002 -0.1076 -0.1763  0.0629
 8927TIP3    H248197   1.607   6.640  16.895  0.0695  0.2192 -0.2787
 8928TIP3   OH248198   1.161   0.510   4.834  0.0811  0.0761  0.1046
 8928TIP3    H148199   1.125   0.465   4.911 -1.3903  0.4595 -0.3196
 8928TIP3    H248200   1.256   0.505   4.845 -0.0850  0.6044  2.2330
 8929TIP3   OH248201   5.780   0.421  15.364 -0.1936  0.2560 -0.6207
 8929TIP3    H148202   5.712   0.429  15.431 -0.9393 -0.0486 -1.3306
 8929TIP3    H248203   5.732   0.409  15.282  0.6816  1.3767 -1.3375
 8930TIP3   OH248204   3.680   4.576   3.082  0.1382 -0.2938  0.4172
 8930TIP3    H148205   3.716   4.578   2.994 -0.7374  2.9079  0.0186
 8930TIP3    H248206   3.743   4.624   3.136 -0.9061  0.7222  0.7897
 8931TIP3   OH248207   0.167   0.871  11.949  0.1961 -0.6638  0.6638
 8931TIP3    H148208   0.254   0.905  11.926 -0.5611  1.4721  0.7187
 8931TIP3    H248209   0.139   0.823  11.871  1.1999 -0.9530  0.4599
 8932TIP3   OH248210   2.417   6.243   0.932  0.5588 -0.9037  0.0742
 8932TIP3    H148211   2.501   6.287   0.944 -0.1095  0.6944 -0.8271
 8932TIP3    H248212   2.435   6.173   0.868  1.2438 -0.7196  0.0662
 8933TIP3   OH248213   3.851   5.061  17.124 -0.1026  0.3790 -0.4726
 8933TIP3    H148214   3.772   5.056  17.070 -0.0686  1.2498 -0.6110
 8933TIP3    H248215   3.894   5.142  17.097  0.7331  0.0153 -0.2488
 8934TIP3   OH248216   2.884   1.991  11.616  0.2807 -0.0289 -0.1555
 8934TIP3    H148217   2.830   1.972  11.692  0.7611  0.7332  0.3962
 8934TIP3    H248218   2.859   2.080  11.590  1.5468  0.5238  0.3948
 8935TIP3   OH248219   2.458   5.881   3.381 -0.6768  0.1083  0.1324
 8935TIP3    H148220   2.387   5.849   3.438 -0.4343  0.8110  0.8489
 8935TIP3    H248221   2.528   5.905   3.442  0.5156 -1.3654 -0.6099
 8936TIP3   OH248222   1.784   2.906  16.481  0.3532  0.2941 -0.0739
 8936TIP3    H148223   1.807   2.977  16.422  0.5392  0.0822 -0.2598
 8936TIP3    H248224   1.767   2.831  16.424 -2.0520  0.7486 -0.0285
 8937TIP3   OH248225   5.037   4.825  11.987  0.1497  0.5123  0.5883
 8937TIP3    H148226   5.103   4.760  11.961 -1.7923 -1.7386  0.9682
 8937TIP3    H248227   5.058   4.844  12.078  2.1943  2.4130 -0.1668
 8938TIP3   OH248228   1.006   3.686  15.083 -0.0135 -0.0177  0.3124
 8938TIP3    H148229   0.995   3.664  15.176  2.1305 -1.8439  0.2218
 8938TIP3    H248230   1.100   3.700  15.073 -0.0936 -0.7313 -1.7569
 8939TIP3   OH248231   4.117   1.160  17.144  0.6048 -0.8390  0.2795
 8939TIP3    H148232   4.136   1.101  17.218  1.7813 -1.9831 -0.8750
 8939TIP3    H248233   4.115   1.102  17.068  0.4721  0.4680 -0.7364
 8940TIP3   OH248234   6.062   0.062   1.889  0.5669  0.3337  0.0901
 8940TIP3    H148235   6.114   0.142   1.889  0.2610  0.5433 -0.6711
 8940TIP3    H248236   6.118  -0.004   1.849  0.0884  0.6756 -1.1663
 8941TIP3   OH248237   4.946   5.828   2.186 -0.1811 -0.0073  0.0112
 8941TIP3    H148238   4.882   5.800   2.121  0.4163 -0.3094 -0.4555
 8941TIP3    H248239   4.994   5.898   2.143 -0.0691  0.0938  0.2950
 8942TIP3   OH248240   1.178   6.202   3.176 -0.2887  0.0130 -0.2565
 8942TIP3    H148241   1.169   6.281   3.123 -1.4082  0.8773  1.1425
 8942TIP3    H248242   1.154   6.230   3.265 -0.2761 -1.8030  0.3601
 8943TIP3   OH248243   4.241   1.764   4.103  0.1923 -0.7462  0.1327
 8943TIP3    H148244   4.276   1.853   4.101  1.6814 -1.3187 -0.5302
 8943TIP3    H248245   4.214   1.750   4.194 -2.7699  1.3392 -0.2650
 8944TIP3   OH248246   4.228   5.566   5.811  0.2787 -0.3855 -0.1479
 8944TIP3    H148247   4.192   5.504   5.747  2.0761 -0.9395 -0.6904
 8944TIP3    H248248   4.224   5.519   5.894  0.4321 -0.7508 -0.3406
 8945TIP3   OH248249   3.094   2.028   5.417  0.0731 -0.2605 -0.2586
 8945TIP3    H148250   3.008   2.059   5.389  0.8847  0.7649 -1.7874
 8945TIP3    H248251   3.079   1.940   5.451 -1.6058  0.0174 -0.2124
 8946TIP3   OH248252   0.546   3.513  14.824 -0.5331  0.0173  0.5896
 8946TIP3    H148253   0.571   3.433  14.869 -1.2774  0.1492  1.2596
 8946TIP3    H248254   0.503   3.483  14.744 -1.7531 -0.2841  1.3407
 8947TIP3   OH248255   3.066   2.683   2.198 -0.1062  0.1668 -0.8884
 8947TIP3    H148256   3.002   2.741   2.155 -0.3776 -0.8709 -1.9418
 8947TIP3    H248257   3.013   2.626   2.254  0.3796  2.8367  2.6710
 8948TIP3   OH248258   3.596   5.152   1.466  0.2293  0.3404  0.2010
 8948TIP3    H148259   3.594   5.245   1.442 -0.7039  0.3439  0.2595
 8948TIP3    H248260   3.571   5.150   1.558  2.1769  0.1826  0.7589
 8949TIP3   OH248261   1.063   0.260   0.402  0.1598 -0.5053  0.4350
 8949TIP3    H148262   1.132   0.325   0.405 -0.2046 -0.0805 -0.3342
 8949TIP3    H248263   0.983   0.309   0.421  0.0496 -0.9767  1.2293
 8950TIP3   OH248264   0.365   0.435   4.003  1.0614  0.1580  0.0334
 8950TIP3    H148265   0.438   0.429   4.065  1.8476 -2.3789 -0.9979
 8950TIP3    H248266   0.407   0.427   3.917 -0.3470 -0.4261 -0.6180
 8951TIP3   OH248267   3.607   4.952   0.242  0.1549 -0.2760  0.0769
 8951TIP3    H148268   3.583   5.044   0.250 -0.5778 -0.5341  1.0195
 8951TIP3    H248269   3.523   4.906   0.238  0.5095 -0.8866 -0.7268
 8952TIP3   OH248270   3.140   1.899   2.860  0.6539  0.0740 -0.1604
 8952TIP3    H148271   3.207   1.854   2.809  1.2175  0.5248  0.1593
 8952TIP3    H248272   3.158   1.992   2.847 -0.1137  0.2091 -0.3230
 8953TIP3   OH248273   2.337   5.061   3.105  0.2279  0.0097 -0.1416
 8953TIP3    H148274   2.304   5.148   3.081  0.2682 -0.0352 -0.3570
 8953TIP3    H248275   2.258   5.008   3.118  0.2151 -0.4177 -1.8170
 8954TIP3   OH248276   1.667   2.619  10.792 -0.0030 -0.4680  0.4437
 8954TIP3    H148277   1.758   2.597  10.809 -0.2232 -1.5283  0.3520
 8954TIP3    H248278   1.633   2.544  10.742 -0.3106  0.9416 -1.5835
 8955TIP3   OH248279   1.192   2.718   0.968 -0.3716  0.4380  0.0853
 8955TIP3    H148280   1.188   2.782   1.040 -2.2962  2.1594 -1.4230
 8955TIP3    H248281   1.135   2.646   0.996 -0.3610  0.6627  0.6894
 8956TIP3   OH248282   2.525   5.809  16.351  0.0601  0.9073  0.2883
 8956TIP3    H148283   2.541   5.716  16.365 -0.3755  0.3470 -2.4255
 8956TIP3    H248284   2.430   5.819  16.353  0.0051  0.9200 -1.1634
 8957TIP3   OH248285   5.333   1.278   5.571 -0.4199 -0.4317  0.2228
 8957TIP3    H148286   5.421   1.268   5.534 -0.0660  2.9543 -0.1807
 8957TIP3    H248287   5.342   1.251   5.662  0.9374 -0.5293  0.0800
 8958TIP3   OH248288   1.281   5.584  11.370  0.2221 -0.1046 -0.1483
 8958TIP3    H148289   1.352   5.608  11.311  0.7392  0.0561  0.5280
 8958TIP3    H248290   1.279   5.654  11.435 -0.6708 -0.0202 -0.2507
 8959TIP3   OH248291   0.803   6.146   3.980 -0.1153  0.1884 -0.5659
 8959TIP3    H148292   0.851   6.064   3.987 -0.3729  0.1630  1.4460
 8959TIP3    H248293   0.843   6.203   4.045 -2.2421  0.4154  0.6432
 8960TIP3   OH248294   3.137   1.576  10.523  0.2907  0.0557  0.2144
 8960TIP3    H148295   3.048   1.608  10.510  0.9393  2.5435  1.4141
 8960TIP3    H248296   3.192   1.637  10.473  1.3763 -1.2635 -0.2667
 8961TIP3   OH248297   2.344   0.955  14.159 -0.1452  0.2199 -0.0759
 8961TIP3    H148298   2.342   1.014  14.233 -1.1280  0.6217 -0.3996
 8961TIP3    H248299   2.272   0.893  14.176 -0.3539  0.2931 -0.6687
 8962TIP3   OH248300   3.312   3.368   5.683 -0.6946 -0.1718  0.0621
 8962TIP3    H148301   3.243   3.434   5.692 -1.2937 -0.7421 -0.2446
 8962TIP3    H248302   3.268   3.292   5.646  0.2718 -0.2787 -0.9045
 8963TIP3   OH248303   1.491   2.239  14.745  0.1266  0.1780 -0.0266
 8963TIP3    H148304   1.522   2.186  14.819  0.7146  0.4070 -0.1016
 8963TIP3    H248305   1.396   2.231  14.747  0.2457 -1.7193 -0.6618
 8964TIP3   OH248306   0.113   1.335  13.564  0.1354 -0.1405  0.5929
 8964TIP3    H148307   0.108   1.428  13.588 -2.2965 -0.2512  0.7954
 8964TIP3    H248308   0.196   1.327  13.518  1.7882  1.5169  3.0007
 8965TIP3   OH248309   2.395   4.368   1.422 -0.2156 -0.4538  0.3622
 8965TIP3    H148310   2.318   4.414   1.455 -1.2370 -1.4688 -0.5317
 8965TIP3    H248311   2.387   4.279   1.456 -0.7234 -1.2232 -1.6248
 8966TIP3   OH248312   1.420   4.703  12.804  0.0407  0.0681 -0.2344
 8966TIP3    H148313   1.424   4.795  12.831  1.5041 -0.3595  1.0876
 8966TIP3    H248314   1.486   4.695  12.736 -0.0846 -0.0144 -0.3471
 8967TIP3   OH248315   0.710   4.280   2.545 -0.4591 -0.2431 -0.2391
 8967TIP3    H148316   0.707   4.189   2.515 -1.0945 -0.3034 -0.0179
 8967TIP3    H248317   0.739   4.329   2.469 -1.7779 -0.4257 -0.8915
 8968TIP3   OH248318   3.877   5.030  15.299  0.4181 -0.0060 -0.3393
 8968TIP3    H148319   3.922   5.089  15.359  0.3979  1.1846 -1.4480
 8968TIP3    H248320   3.936   4.956  15.288  1.4949  0.8888 -0.7014
 8969TIP3   OH248321   0.763   0.683   1.370  0.3026  0.0734 -0.0885
 8969TIP3    H148322   0.687   0.647   1.416  0.8326 -1.1082 -0.0989
 8969TIP3    H248323   0.809   0.735   1.437  0.8729 -1.3379  0.6724
 8970TIP3   OH248324   2.087   1.023   5.495  0.5803  0.1801 -0.8453
 8970TIP3    H148325   1.993   1.019   5.476  0.0617 -0.3557  1.5138
 8970TIP3    H248326   2.094   1.087   5.566  1.6086 -1.6626  0.8192
 8971TIP3   OH248327   2.127   0.516   4.917  0.4730  0.1259  0.1842
 8971TIP3    H148328   2.092   0.510   5.006 -2.5162 -3.1427 -0.9641
 8971TIP3    H248329   2.091   0.598   4.882 -0.1573  0.3298  1.2895
 8972TIP3   OH248330   2.142   2.384  15.262 -0.8271 -0.4961  0.1466
 8972TIP3    H148331   2.151   2.353  15.172  0.9614  1.6879 -0.5214
 8972TIP3    H248332   2.229   2.417  15.284 -2.0457  2.1133  1.4231
 8973TIP3   OH248333   0.848   6.005  15.576 -0.2284 -0.5016 -0.2018
 8973TIP3    H148334   0.823   6.040  15.662 -1.7029 -0.1671 -0.7322
 8973TIP3    H248335   0.935   5.967  15.590  0.3184  1.0698  1.0102
 8974TIP3   OH248336   0.102   6.446  13.507  0.3416 -0.1960 -0.4909
 8974TIP3    H148337   0.029   6.500  13.538 -0.2270 -1.3890  0.3789
 8974TIP3    H248338   0.067   6.357  13.508  2.1966 -1.0069  1.3389
 8975TIP3   OH248339   5.003   3.727  13.322 -0.1562 -0.1635  0.3842
 8975TIP3    H148340   4.937   3.662  13.299  0.8360 -0.9706 -0.2445
 8975TIP3    H248341   4.953   3.806  13.341 -1.3729 -1.0787  1.0796
 8976TIP3   OH248342   4.399   0.661  15.664  0.5744 -0.0660 -0.2034
 8976TIP3    H148343   4.368   0.650  15.575  2.6484 -1.3113 -0.8308
 8976TIP3    H248344   4.337   0.612  15.718 -0.5528  0.5043 -0.9536
 8977TIP3   OH248345   2.218   1.990  11.034 -0.3880  0.0286  0.0179
 8977TIP3    H148346   2.191   2.040  10.957 -0.7754  0.7880  0.6272
 8977TIP3    H248347   2.164   1.911  11.030 -1.8920  0.9724  0.5573
 8978TIP3   OH248348   6.505   2.583  17.276  0.0677 -0.0088  0.3371
 8978TIP3    H148349   6.598   2.584  17.298  0.3723  1.2723 -0.8229
 8978TIP3    H248350   6.462   2.625  17.350  0.6960  1.4185 -0.0740
 8979TIP3   OH248351   3.091   4.704  16.817 -0.2054 -0.2700 -0.6234
 8979TIP3    H148352   3.114   4.783  16.769 -0.4051  1.2154  1.5961
 8979TIP3    H248353   3.173   4.655  16.823 -0.2085 -0.5779 -2.5224
 8980TIP3   OH248354   0.894   1.535   0.206  0.5143  0.1872  0.6533
 8980TIP3    H148355   0.864   1.503   0.291  0.4362 -0.3392  0.4300
 8980TIP3    H248356   0.984   1.566   0.223  0.1566  0.9999  1.1354
 8981TIP3   OH248357   4.445   0.563   5.166  0.5288  0.1390  0.2463
 8981TIP3    H148358   4.452   0.540   5.074 -0.8417 -2.3970  0.6847
 8981TIP3    H248359   4.361   0.609   5.173  0.0624 -0.7023  0.3653
 8982TIP3   OH248360   5.636   4.305  14.568 -0.2908 -0.4264 -0.1870
 8982TIP3    H148361   5.597   4.326  14.483  2.0109 -3.0932 -2.1124
 8982TIP3    H248362   5.706   4.369  14.580  1.8855 -2.1868 -2.3604
 8983TIP3   OH248363   6.244   0.288   1.887  0.3598 -0.3219 -0.3176
 8983TIP3    H148364   6.286   0.335   1.959  0.4112 -0.5702 -0.1866
 8983TIP3    H248365   6.181   0.351   1.851  1.3579  0.3308 -0.9922
 8984TIP3   OH248366   3.554   3.198  11.276 -0.4357  0.6509 -0.2672
 8984TIP3    H148367   3.591   3.282  11.303  1.4159  0.2582 -1.4225
 8984TIP3    H248368   3.607   3.171  11.202 -1.2341 -1.3790 -0.1669
 8985TIP3   OH248369   4.247   3.626  15.041 -0.0406  0.4054 -0.6528
 8985TIP3    H148370   4.206   3.712  15.024 -1.2050  0.0460  0.2096
 8985TIP3    H248371   4.179   3.576  15.086  0.7828 -0.8330 -0.7478
 8986TIP3   OH248372   3.719   4.979  10.597 -0.2872  0.1671 -0.4587
 8986TIP3    H148373   3.638   5.020  10.628 -0.3339  0.1451 -0.5510
 8986TIP3    H248374   3.760   4.943  10.676 -1.1595 -1.2286 -0.6055
 8987TIP3   OH248375   5.177   0.705  12.191  0.0798 -0.3734 -0.0490
 8987TIP3    H148376   5.154   0.662  12.273  0.4138 -0.8125 -0.1842
 8987TIP3    H248377   5.100   0.693  12.134 -0.5316  0.7324  0.4951
 8988TIP3   OH248378   2.152   2.716  13.257 -0.3057  0.1675  0.3475
 8988TIP3    H148379   2.209   2.641  13.275  0.2685  0.5536  0.1561
 8988TIP3    H248380   2.208   2.793  13.271 -1.2033  0.6227  1.7595
 8989TIP3   OH248381   2.874   3.369   5.424  0.0491  0.2377  0.0582
 8989TIP3    H148382   2.840   3.423   5.352 -1.5159 -0.6351  0.1095
 8989TIP3    H248383   2.807   3.303   5.438  1.5381 -1.2337  0.5689
 8990TIP3   OH248384   0.445   0.319  15.790 -0.0442 -0.5131  0.4954
 8990TIP3    H148385   0.415   0.369  15.714 -0.2939  0.2362  1.0823
 8990TIP3    H248386   0.462   0.384  15.857  1.0143 -1.0949  0.8158
 8991TIP3   OH248387   6.729   0.991   5.221  0.1456 -0.1059 -0.3642
 8991TIP3    H148388   6.767   0.922   5.276 -0.1045  0.7608  0.9298
 8991TIP3    H248389   6.780   1.069   5.241 -1.4757  0.7918  0.4807
 8992TIP3   OH248390   6.354   3.266   0.202 -0.4689  0.5025  0.1699
 8992TIP3    H148391   6.368   3.345   0.254  2.1364  0.6367 -0.6252
 8992TIP3    H248392   6.403   3.198   0.247 -0.0685  0.0876 -0.8698
 8993TIP3   OH248393   2.447   4.961  11.649  0.8812  0.0348 -0.0881
 8993TIP3    H148394   2.439   4.909  11.730 -1.9351 -0.3216 -0.4906
 8993TIP3    H248395   2.472   5.048  11.679  0.7578 -0.3087  1.0884
 8994TIP3   OH248396   4.092   1.460   2.743 -0.2019  0.2260  0.4062
 8994TIP3    H148397   4.080   1.554   2.739  0.2966  0.3747  1.7101
 8994TIP3    H248398   4.084   1.439   2.836  1.4138 -0.7515  0.3654
 8995TIP3   OH248399   0.286   6.332  14.828  0.3949 -0.0859  0.5199
 8995TIP3    H148400   0.240   6.284  14.759 -0.5269  0.3592  0.8020
 8995TIP3    H248401   0.369   6.358  14.788  0.7165 -1.4818  0.2142
 8996TIP3   OH248402   3.387   1.161  13.277 -0.1760  0.0129 -0.5029
 8996TIP3    H148403   3.428   1.136  13.360  1.1481  2.2189 -0.4069
 8996TIP3    H248404   3.304   1.202  13.302 -0.2376 -0.2135 -0.3366
 8997TIP3   OH248405   5.757   2.416   5.422 -0.7816 -0.4603 -0.2268
 8997TIP3    H148406   5.812   2.424   5.344 -0.1278  1.1511  0.3588
 8997TIP3    H248407   5.679   2.370   5.391  0.0965 -1.1836 -1.4789
 8998TIP3   OH248408   4.413   0.562   3.453 -0.3403 -0.2377 -0.2988
 8998TIP3    H148409   4.419   0.565   3.358  0.2256 -0.6356 -0.2793
 8998TIP3    H248410   4.396   0.470   3.473 -1.9102  0.0786 -0.0873
 8999TIP3   OH248411   4.144   0.912  16.526  0.0918 -0.6353 -0.0991
 8999TIP3    H148412   4.072   0.951  16.478  0.3802 -0.8000 -0.6713
 8999TIP3    H248413   4.156   0.826  16.486  0.0584 -0.9501  0.5466
 9000TIP3   OH248414   6.303   2.724   0.566  0.4118 -0.9136 -0.5321
 9000TIP3    H148415   6.220   2.693   0.531 -0.0108  0.0046 -0.3750
 9000TIP3    H248416   6.284   2.811   0.600  1.4726 -0.6265 -0.6211
 9001TIP3   OH248417   3.949   6.702  16.543  0.9278 -0.3687  0.1923
 9001TIP3    H148418   3.960   6.775  16.482  0.5901 -0.6376 -0.1974
 9001TIP3    H248419   3.883   6.646  16.502  1.4692 -1.0988  0.2906
 9002TIP3   OH248420   6.224   4.852  14.173 -0.3821 -0.2199 -0.0393
 9002TIP3    H148421   6.220   4.777  14.233 -0.4977 -1.0040 -1.0052
 9002TIP3    H248422   6.318   4.860  14.152 -0.3225  0.1544  0.3702
 9003TIP3   OH248423   5.897   5.081   3.708  0.1374 -0.1541  0.0040
 9003TIP3    H148424   5.839   5.044   3.641  0.8465  0.2436 -0.8523
 9003TIP3    H248425   5.973   5.023   3.707  0.1642 -0.1255  0.4446
 9004TIP3   OH248426   5.990   3.588  12.606  0.1192  0.1366 -0.2223
 9004TIP3    H148427   5.929   3.577  12.679 -0.2402  2.4253 -0.1004
 9004TIP3    H248428   6.075   3.564  12.641 -0.1528  0.5637  0.7636
 9005TIP3   OH248429   3.835   2.742   4.054 -0.0541  0.2111 -0.3174
 9005TIP3    H148430   3.815   2.824   4.008 -0.5554 -0.9683 -2.3153
 9005TIP3    H248431   3.931   2.743   4.062 -0.1215  1.4469  0.6268
 9006TIP3   OH248432   1.850   6.650   4.362  0.0288  0.3685 -0.1120
 9006TIP3    H148433   1.834   6.631   4.454  2.7236 -1.6600  0.0648
 9006TIP3    H248434   1.839   6.566   4.318  0.9900  0.8262 -1.2816
 9007TIP3   OH248435   3.944   4.301  16.798  0.0569  0.4729  0.2021
 9007TIP3    H148436   3.985   4.217  16.822  0.4223  0.7474  0.5577
 9007TIP3    H248437   4.013   4.350  16.754 -0.7051 -0.1533 -1.7707
 9008TIP3   OH248438   3.841   5.444  13.944 -0.2013  0.0210  0.0769
 9008TIP3    H148439   3.774   5.492  13.992  1.5837  1.8051  0.9695
 9008TIP3    H248440   3.914   5.437  14.006  1.0748 -0.2537 -1.3913
 9009TIP3   OH248441   0.535   5.718   0.881  0.2297  0.1637  0.0393
 9009TIP3    H148442   0.588   5.644   0.907 -0.6155 -0.4661  0.0151
 9009TIP3    H248443   0.567   5.791   0.935  0.8358 -0.2898  0.3006
 9010TIP3   OH248444   3.173   5.150   2.983  0.2687 -0.2143  0.1784
 9010TIP3    H148445   3.182   5.055   2.974  0.1634 -0.2375  0.3282
 9010TIP3    H248446   3.081   5.165   3.002  0.3321 -0.0995  0.4010
 9011TIP3   OH248447   4.431   3.790   4.289  0.0632 -1.0326  0.6126
 9011TIP3    H148448   4.442   3.714   4.346 -0.4031  0.1017  2.3194
 9011TIP3    H248449   4.520   3.813   4.262  0.2373 -1.9718  0.3756
 9012TIP3   OH248450   1.673   0.285   2.084  0.3034  0.3545  0.5323
 9012TIP3    H148451   1.626   0.368   2.098  0.0048  0.2856 -0.0204
 9012TIP3    H248452   1.698   0.288   1.991 -0.8119 -0.7281  0.1729
 9013TIP3   OH248453   4.640   6.729  15.473  0.0973  0.4750  0.6961
 9013TIP3    H148454   4.618   6.687  15.556  1.0153 -3.3603 -0.7934
 9013TIP3    H248455   4.713   6.787  15.494 -1.1725  1.3951  2.8854
 9014TIP3   OH248456   0.480   1.862  12.759 -0.1367 -0.0340 -0.5943
 9014TIP3    H148457   0.520   1.941  12.795  1.8480 -0.1674 -2.3527
 9014TIP3    H248458   0.400   1.893  12.716  0.0392  0.8258 -0.3191
 9015TIP3   OH248459   1.775   2.629   0.157  0.2217  0.0397  0.5424
 9015TIP3    H148460   1.770   2.565   0.228 -0.6042  0.1120  0.5671
 9015TIP3    H248461   1.687   2.667   0.154  0.4949  0.6460  0.0423
 9016TIP3   OH248462   5.829   3.183   2.849 -0.0881  0.2741  0.6986
 9016TIP3    H148463   5.758   3.154   2.906  0.0766 -0.1206  0.7094
 9016TIP3    H248464   5.789   3.247   2.791 -0.1613  0.9819  1.5232
 9017TIP3   OH248465   5.270   2.101  11.765  0.3088 -0.5527  0.4516
 9017TIP3    H148466   5.336   2.050  11.810  1.0398 -1.1383 -1.1962
 9017TIP3    H248467   5.244   2.047  11.690  0.3053  0.9901 -0.7318
 9018TIP3   OH248468   2.510   4.238   4.165 -0.1570  0.0465 -0.0879
 9018TIP3    H148469   2.595   4.257   4.126 -0.5128  0.6124 -0.6223
 9018TIP3    H248470   2.468   4.179   4.102  0.8697 -2.5295  1.4725
 9019TIP3   OH248471   1.376   5.199  14.246 -0.0442  0.5226 -0.4670
 9019TIP3    H148472   1.383   5.209  14.340 -1.8521 -0.7352 -0.1437
 9019TIP3    H248473   1.399   5.108  14.229 -1.0760  0.3521 -1.0430
 9020TIP3   OH248474   0.594   4.013   0.637  0.2395  0.7973  0.3473
 9020TIP3    H148475   0.584   4.005   0.542  0.3321  1.7433  0.2451
 9020TIP3    H248476   0.613   3.925   0.667 -1.3481  0.1938 -0.3201
 9021TIP3   OH248477   4.112   5.877  13.203  0.3130  0.1429 -0.3269
 9021TIP3    H148478   4.114   5.825  13.123 -0.5171 -0.1917 -0.1465
 9021TIP3    H248479   4.203   5.900  13.220  0.4978  0.2165 -1.3626
 9022TIP3   OH248480   4.673   0.396  16.306 -0.1129  0.1947 -0.8151
 9022TIP3    H148481   4.708   0.480  16.276 -2.4603  1.4010 -0.4489
 9022TIP3    H248482   4.585   0.393  16.270 -0.7851 -1.2142  0.7857
 9023TIP3   OH248483   1.147   4.383   0.772  0.0043 -0.1175  0.4779
 9023TIP3    H148484   1.067   4.342   0.807 -0.1557 -0.3291 -0.1269
 9023TIP3    H248485   1.121   4.416   0.686  0.4816  0.1206  0.4234
 9024TIP3   OH248486   1.908   1.881   1.585 -0.4249  0.2104 -0.0018
 9024TIP3    H148487   1.828   1.887   1.636  0.6144  1.3356  1.5953
 9024TIP3    H248488   1.911   1.790   1.555 -2.2690  0.1574 -0.1264
 9025TIP3   OH248489   2.137   4.712   1.191 -0.3863  0.5892  0.6839
 9025TIP3    H148490   2.066   4.686   1.133  1.4079  1.4978 -2.1327
 9025TIP3    H248491   2.140   4.644   1.258 -2.5775 -0.5419 -0.2810
 9026TIP3   OH248492   2.253   1.534  11.099 -0.0966 -0.4583 -0.4236
 9026TIP3    H148493   2.299   1.604  11.145 -1.0229 -1.1764  1.6999
 9026TIP3    H248494   2.312   1.459  11.105 -1.5800 -1.5435  2.7989
 9027TIP3   OH248495   2.823   0.511  13.710  0.3968 -0.7040  0.1963
 9027TIP3    H148496   2.866   0.441  13.661 -1.5964 -2.7537  1.2434
 9027TIP3    H248497   2.895   0.553  13.758  2.1829  0.3943 -3.1031
 9028TIP3   OH248498   2.817   6.724   0.262 -0.0413 -0.2660  0.1317
 9028TIP3    H148499   2.754   6.782   0.218  1.8260  0.9548 -1.0770
 9028TIP3    H248500   2.888   6.713   0.198  1.2251 -1.1495  1.6326
 9029TIP3   OH248501   3.062   3.716   4.210 -0.6647 -0.7364  0.2762
 9029TIP3    H148502   3.014   3.777   4.153 -0.4248 -0.3877  0.4400
 9029TIP3    H248503   3.064   3.634   4.162  1.0200 -0.0071 -1.0154
 9030TIP3   OH248504   1.312   1.700   3.992 -0.0979  0.0885  0.1350
 9030TIP3    H148505   1.260   1.626   4.023  1.3110 -0.7989  0.4762
 9030TIP3    H248506   1.396   1.662   3.967 -0.0509  1.2838 -1.6839
 9031TIP3   OH248507   2.528   3.962  14.749  0.2244 -0.3579 -0.1168
 9031TIP3    H148508   2.602   4.015  14.780 -0.4354  0.3350  0.2894
 9031TIP3    H248509   2.477   3.944  14.828 -2.0034  2.2184 -0.8405
 9032TIP3   OH248510   6.106   2.715   2.447  0.5812 -0.0147 -0.5604
 9032TIP3    H148511   6.059   2.796   2.427  0.2533  0.2525  1.1963
 9032TIP3    H248512   6.159   2.700   2.369  1.4556  2.4625 -0.5412
 9033TIP3   OH248513   3.012   4.328  12.812 -0.2677 -0.3791 -0.1538
 9033TIP3    H148514   3.091   4.275  12.812 -0.0075  0.0033 -0.2119
 9033TIP3    H248515   2.996   4.346  12.905 -0.9977 -1.4947 -0.0534
 9034TIP3   OH248516   6.662   2.456  15.108  0.5273 -0.5779 -0.0554
 9034TIP3    H148517   6.665   2.534  15.165  2.0198  0.3871 -1.3820
 9034TIP3    H248518   6.752   2.426  15.104  0.1577 -1.6542 -0.5805
 9035TIP3   OH248519   3.790   2.497  12.507  0.0094  1.2331  0.0870
 9035TIP3    H148520   3.786   2.484  12.413  3.0259 -2.5497  0.2311
 9035TIP3    H248521   3.701   2.480  12.537 -0.4412 -0.1722 -1.8765
 9036TIP3   OH248522   0.101   1.086   1.376  0.0176  0.5916  0.7628
 9036TIP3    H148523   0.118   1.019   1.310  0.0117  1.0496  0.2792
 9036TIP3    H248524   0.059   1.157   1.327 -0.9365  0.5179  1.4636
 9037TIP3   OH248525   5.092   5.167   2.132  0.1083 -0.4522  0.1161
 9037TIP3    H148526   5.015   5.222   2.118 -1.0090 -1.8071  0.7078
 9037TIP3    H248527   5.140   5.210   2.203  0.1285  0.6227 -0.5339
 9038TIP3   OH248528   3.881   4.931   0.309 -0.3697  0.2682 -0.4679
 9038TIP3    H148529   3.793   4.937   0.272  0.0179  2.1193 -1.2265
 9038TIP3    H248530   3.940   4.945   0.235  0.4603  2.3410  0.4889
 9039TIP3   OH248531   3.063   4.945   0.314 -0.3031  0.4841  0.4493
 9039TIP3    H148532   3.080   5.038   0.329 -1.3005  0.6134  0.8408
 9039TIP3    H248533   2.983   4.927   0.363 -0.7690 -0.3183 -0.5695
 9040TIP3   OH248534   2.678   4.254  11.940 -0.5546  0.0769 -0.0366
 9040TIP3    H148535   2.760   4.286  11.977  0.6250 -0.0864 -2.3541
 9040TIP3    H248536   2.638   4.332  11.901 -2.7979  0.6899  3.0747
 9041TIP3   OH248537   4.417   0.348  10.380  0.0127  0.3311 -0.0727
 9041TIP3    H148538   4.427   0.439  10.408 -2.1524  0.9016 -0.9695
 9041TIP3    H248539   4.341   0.349  10.322  0.6902 -1.8503 -1.0998
 9042TIP3   OH248540   1.143   0.863   0.784 -0.2223  0.4755  0.1361
 9042TIP3    H148541   1.177   0.785   0.829  1.4457  1.2286  0.2657
 9042TIP3    H248542   1.071   0.830   0.731 -1.6175 -0.6231  2.5460
 9043TIP3   OH248543   5.972   3.711   0.035 -0.0868  0.2502 -0.2699
 9043TIP3    H148544   6.026   3.789   0.025  0.3825 -0.1833 -1.2697
 9043TIP3    H248545   5.899   3.739   0.090  0.5241  1.1591  0.1010
 9044TIP3   OH248546   6.443   6.266  15.852  0.1773 -0.0805  0.0735
 9044TIP3    H148547   6.432   6.214  15.932 -0.4812 -1.1753 -0.7027
 9044TIP3    H248548   6.439   6.357  15.882 -1.2833 -0.4558  1.1477
 9045TIP3   OH248549   1.198   5.364  14.937  0.1686  0.2954  0.0052
 9045TIP3    H148550   1.193   5.272  14.965 -3.9395  0.6259  0.9716
 9045TIP3    H248551   1.170   5.362  14.845  0.3846  0.5589 -0.0678
 9046TIP3   OH248552   0.137   5.659  15.163 -0.5002  0.3928  0.0209
 9046TIP3    H148553   0.183   5.590  15.115 -1.3754  0.1214 -0.4514
 9046TIP3    H248554   0.131   5.626  15.253  0.1908  0.4168  0.0768
 9047TIP3   OH248555   2.876   4.929   5.302  0.3428 -0.7931 -0.5098
 9047TIP3    H148556   2.879   4.837   5.327  0.6428 -0.5009  0.5642
 9047TIP3    H248557   2.788   4.941   5.265 -0.3964 -1.0928  1.0587
 9048TIP3   OH248558   5.046   2.584  11.841 -0.2914 -0.1903  0.7505
 9048TIP3    H148559   5.127   2.577  11.791 -0.6425  1.0066 -0.0359
 9048TIP3    H248560   5.072   2.567  11.931  0.8764  0.3714  0.5383
 9049TIP3   OH248561   3.399   4.971   4.914 -0.8349  0.1856 -0.3137
 9049TIP3    H148562   3.420   5.064   4.907  0.3378  0.1147  1.4139
 9049TIP3    H248563   3.472   4.927   4.871 -0.4811  0.0441  0.4199
 9050TIP3   OH248564   0.754   6.337   5.032  0.0115  0.0979  0.6162
 9050TIP3    H148565   0.835   6.289   5.049  0.6720  0.3763 -1.4858
 9050TIP3    H248566   0.690   6.269   5.008  0.9020  0.1347 -2.2008
 9051TIP3   OH248567   4.175   2.621   5.696  0.6038  0.7975 -0.5313
 9051TIP3    H148568   4.264   2.647   5.720  0.0464  2.1023  0.2120
 9051TIP3    H248569   4.131   2.608   5.780  0.5632 -1.6808 -0.8576
 9052TIP3   OH248570   3.744   4.650  16.465 -0.3769  0.5520 -0.0498
 9052TIP3    H148571   3.838   4.634  16.478 -0.1513  1.1307 -0.9063
 9052TIP3    H248572   3.726   4.728  16.517 -0.0690  1.2640 -0.9896
 9053TIP3   OH248573   2.685   0.194  13.176 -0.6555 -0.6484 -0.1340
 9053TIP3    H148574   2.678   0.278  13.221 -0.1252 -0.6668 -0.0110
 9053TIP3    H248575   2.674   0.215  13.083  4.2437  0.3583 -0.7867
 9054TIP3   OH248576   6.698   2.172  15.204  0.6658 -0.1193  0.1228
 9054TIP3    H148577   6.613   2.210  15.223  0.6943 -1.0672  2.3741
 9054TIP3    H248578   6.761   2.234  15.240  0.7771 -1.0841  1.6809
 9055TIP3   OH248579   5.220   3.681   6.093 -0.7601 -0.2295  0.0672
 9055TIP3    H148580   5.237   3.597   6.050 -1.3238  0.6003 -1.9301
 9055TIP3    H248581   5.163   3.728   6.031 -2.4931  0.6760  2.2436
 9056TIP3   OH248582   6.319   0.646   4.523  0.1272  0.2694 -0.0628
 9056TIP3    H148583   6.277   0.580   4.469  0.3581  1.3637 -1.6704
 9056TIP3    H248584   6.366   0.701   4.460  0.6536  1.4283  1.2986
 9057TIP3   OH248585   2.452   6.728   3.911  0.0720  0.4702 -0.1409
 9057TIP3    H148586   2.539   6.733   3.949  0.0470  1.7531 -0.1785
 9057TIP3    H248587   2.393   6.719   3.986  0.2876 -1.7757 -0.1893
 9058TIP3   OH248588   2.562   0.024  13.509  0.1952 -0.1027  0.9178
 9058TIP3    H148589   2.642   0.065  13.476  0.7116 -1.3000  0.6272
 9058TIP3    H248590   2.550  -0.053  13.454 -0.5410 -0.5524  1.6804
 9059TIP3   OH248591   1.785   5.211  11.962 -0.1384  0.2084  0.0184
 9059TIP3    H148592   1.714   5.237  11.902 -2.1542 -0.8893  1.7941
 9059TIP3    H248593   1.819   5.294  11.996 -0.1868  0.7757 -1.2262
 9060TIP3   OH248594   1.452   6.166  17.154  0.2954  0.2441  0.3672
 9060TIP3    H148595   1.428   6.212  17.073 -2.1844 -0.2834  0.7179
 9060TIP3    H248596   1.475   6.236  17.215  1.5681  0.6867 -0.5909
 9061TIP3   OH248597   1.416   4.796   2.069 -0.3400 -0.1340  0.0740
 9061TIP3    H148598   1.375   4.855   2.131  1.1364 -0.2732  1.2533
 9061TIP3    H248599   1.351   4.728   2.053 -1.4632  0.9584 -0.0728
 9062TIP3   OH248600   5.063   2.881   3.836 -0.0030  0.7421  0.3648
 9062TIP3    H148601   4.996   2.931   3.883  0.0540 -0.3564  1.6511
 9062TIP3    H248602   5.135   2.873   3.898  1.9367  2.9356 -1.3615
 9063TIP3   OH248603   0.768   4.067  13.912 -0.5357 -0.2937 -0.2854
 9063TIP3    H148604   0.730   4.152  13.890 -0.7535  0.0746  1.3929
 9063TIP3    H248605   0.725   4.041  13.994 -1.3885 -2.6312 -1.3632
 9064TIP3   OH248606   5.037   5.738  16.927 -0.0567 -1.0382  0.6059
 9064TIP3    H148607   4.989   5.697  16.855  0.0924 -0.5221  0.2063
 9064TIP3    H248608   4.969   5.773  16.984 -0.1846 -1.7464  0.9047
 9065TIP3   OH248609   3.593   3.965   0.593 -0.1598 -0.0176 -0.5363
 9065TIP3    H148610   3.573   4.017   0.671 -4.1776 -1.4667 -0.3742
 9065TIP3    H248611   3.603   3.875   0.626  0.0925 -0.3617 -1.5066
 9066TIP3   OH248612   3.810   6.011   5.137  0.5022  0.0994  0.6693
 9066TIP3    H148613   3.836   5.994   5.047  1.1918 -0.0672  0.8893
 9066TIP3    H248614   3.885   5.981   5.189  0.1925  0.3741  1.2803
 9067TIP3   OH248615   4.214   6.672   4.118  0.8326  0.1317  0.0306
 9067TIP3    H148616   4.305   6.643   4.121  1.3955  1.9034  1.7591
 9067TIP3    H248617   4.211   6.749   4.173 -1.2014  1.6617 -2.0063
 9068TIP3   OH248618   2.442   6.181  17.046 -0.4374  0.2914 -0.4427
 9068TIP3    H148619   2.460   6.241  16.974 -0.7869 -0.9934 -1.6503
 9068TIP3    H248620   2.359   6.140  17.023 -0.6890  0.0324  0.8394
 9069TIP3   OH248621   4.028   1.947   5.070 -0.2126 -0.6952 -0.3197
 9069TIP3    H148622   3.959   1.940   5.136  1.4287 -0.2824  1.5047
 9069TIP3    H248623   4.098   1.891   5.101  1.0363  0.3277 -1.1483
 9070TIP3   OH248624   4.496   6.557  13.334 -0.0606  0.5534  0.3850
 9070TIP3    H148625   4.454   6.600  13.408 -0.8437 -0.1323  0.3482
 9070TIP3    H248626   4.431   6.560  13.264 -0.0341 -0.4661  0.3062
 9071TIP3   OH248627   2.506   6.027  13.734 -0.0833  0.6060  0.0213
 9071TIP3    H148628   2.506   5.949  13.789 -1.1665  0.3163 -0.3703
 9071TIP3    H248629   2.562   6.004  13.660 -1.1869 -0.1818 -0.5937
 9072TIP3   OH248630   3.964   6.195  14.895  0.4898 -0.5442 -0.4479
 9072TIP3    H148631   3.984   6.203  14.802 -2.2706  0.9548 -1.0080
 9072TIP3    H248632   3.873   6.167  14.897  0.8604 -1.8210  1.8503
 9073TIP3   OH248633   4.490   0.318   4.741  0.1202  0.5024  0.2691
 9073TIP3    H148634   4.451   0.396   4.782  0.3914  1.3122 -0.9483
 9073TIP3    H248635   4.537   0.275   4.812 -1.5553  0.4266  1.3909
 9074TIP3   OH248636   2.288   3.211  12.422  0.6862 -0.1062  0.0237
 9074TIP3    H148637   2.314   3.164  12.343  0.9215 -1.1802  0.7117
 9074TIP3    H248638   2.354   3.279  12.432 -0.5957  1.5139 -1.9093
 9075TIP3   OH248639   0.181   3.867   5.237 -0.6477 -0.0855  0.2969
 9075TIP3    H148640   0.127   3.897   5.163  1.4757  0.0683 -1.3036
 9075TIP3    H248641   0.161   3.928   5.308 -1.9130  0.4858 -0.5201
 9076TIP3   OH248642   3.912   4.501  16.190 -0.1433 -0.1059 -0.0548
 9076TIP3    H148643   3.959   4.492  16.272 -0.1983 -0.3763 -0.0541
 9076TIP3    H248644   3.851   4.427  16.188 -0.8564  0.4640  0.1291
 9077TIP3   OH248645   0.752   2.356  13.770 -0.3802 -0.1023 -0.1351
 9077TIP3    H148646   0.846   2.339  13.762 -0.4712  0.1432 -2.3819
 9077TIP3    H248647   0.715   2.276  13.806  0.4587 -0.9220 -1.0633
 9078TIP3   OH248648   2.837   0.162  11.843 -0.4745 -0.0386  0.4273
 9078TIP3    H148649   2.760   0.186  11.792  0.5624  2.5562 -0.0892
 9078TIP3    H248650   2.883   0.098  11.789 -1.6368 -0.7522  0.2370
 9079TIP3   OH248651   0.539   1.145  11.622 -0.1071  0.1978  0.3293
 9079TIP3    H148652   0.582   1.209  11.564  0.8237 -0.7309 -0.0355
 9079TIP3    H248653   0.607   1.120  11.685  0.1949 -1.9152 -0.7549
 9080TIP3   OH248654   2.121   1.943  15.728 -0.1641 -0.1514 -0.6589
 9080TIP3    H148655   2.164   1.860  15.749  0.5316  0.1216 -0.9923
 9080TIP3    H248656   2.027   1.921  15.728  0.0227 -1.0133 -1.0671
 9081TIP3   OH248657   1.881   0.475  10.680  0.2445  0.3356  0.0054
 9081TIP3    H148658   1.866   0.484  10.586  3.5765 -0.2280 -0.7059
 9081TIP3    H248659   1.927   0.392  10.689  0.1577  0.4623  2.1576
 9082TIP3   OH248660   0.753   2.930   1.662 -0.0114  0.3659  0.1058
 9082TIP3    H148661   0.798   2.891   1.587 -1.8696  0.0486 -0.8983
 9082TIP3    H248662   0.801   2.897   1.738  2.7346  1.6992 -0.8935
 9083TIP3   OH248663   5.704   1.421   1.914  0.5544 -0.0604  0.2311
 9083TIP3    H148664   5.764   1.437   1.841  0.1090 -1.1991 -0.4094
 9083TIP3    H248665   5.617   1.429   1.876  0.3005  0.5133  0.9132
 9084TIP3   OH248666   3.901   1.335   5.433 -0.2369 -0.2100 -0.1659
 9084TIP3    H148667   3.903   1.339   5.528  0.0377 -1.5415 -0.1012
 9084TIP3    H248668   3.881   1.244   5.412  2.5862 -0.6899 -1.3614
 9085TIP3   OH248669   4.276   5.407   0.163 -0.7949 -0.3316 -0.5490
 9085TIP3    H148670   4.209   5.473   0.147  0.2874  0.7528 -0.7771
 9085TIP3    H248671   4.358   5.457   0.169  0.2001 -1.7450 -1.7441
 9086TIP3   OH248672   3.016   6.327  14.806  0.8090 -0.2805 -0.0676
 9086TIP3    H148673   2.955   6.398  14.824  1.9297  1.1301 -1.4756
 9086TIP3    H248674   3.016   6.274  14.885 -1.9977 -0.2138  0.0837
 9087TIP3   OH248675   0.842   2.206   3.590 -0.0637  0.0435  0.3189
 9087TIP3    H148676   0.831   2.293   3.551  1.2583  0.4638  0.8114
 9087TIP3    H248677   0.931   2.180   3.563 -0.1653 -0.8321  0.8058
 9088TIP3   OH248678   5.280   6.434   1.236  0.1425 -0.2090  0.1712
 9088TIP3    H148679   5.342   6.498   1.200  0.4738 -0.4595  0.2802
 9088TIP3    H248680   5.211   6.486   1.276  0.2951  0.0763  0.0650
 9089TIP3   OH248681   1.644   5.633   4.702 -0.6694 -0.1522 -0.1090
 9089TIP3    H148682   1.617   5.577   4.629 -1.8365  0.4016 -0.1264
 9089TIP3    H248683   1.667   5.572   4.772 -3.2696 -0.7305  0.3555
 9090TIP3   OH248684   6.558   1.801  15.117  0.0473 -0.4040 -0.1688
 9090TIP3    H148685   6.544   1.776  15.026 -0.6097 -1.3749  0.1793
 9090TIP3    H248686   6.546   1.896  15.119 -2.0560 -0.6220 -0.7397
 9091TIP3   OH248687   4.999   3.551   3.570  0.1405  0.0442 -0.3021
 9091TIP3    H148688   5.067   3.541   3.504 -0.5758  0.6455 -1.1516
 9091TIP3    H248689   4.955   3.466   3.572  0.5816 -0.1815 -0.1234
 9092TIP3   OH248690   4.818   1.465   5.125 -0.1275  0.5423 -0.0091
 9092TIP3    H148691   4.911   1.447   5.138 -0.0483  0.8379 -0.1640
 9092TIP3    H248692   4.814   1.519   5.046 -0.5194 -0.3137 -0.5932
 9093TIP3   OH248693   1.355   4.325   3.813  0.3221 -0.1816 -0.4995
 9093TIP3    H148694   1.406   4.406   3.815  1.0611 -0.5956 -1.4445
 9093TIP3    H248695   1.275   4.345   3.861  1.2979  0.5435  0.8971
 9094TIP3   OH248696   1.940   6.096  13.039  0.6498  0.0726  0.2871
 9094TIP3    H148697   1.863   6.135  13.078  0.5025 -0.4123  0.4954
 9094TIP3    H248698   1.907   6.021  12.989  0.9364  0.1274  0.0081
 9095TIP3   OH248699   6.557   3.358  10.739  0.2805  0.9408  0.4063
 9095TIP3    H148700   6.606   3.411  10.675  0.5798  0.6443  0.3863
 9095TIP3    H248701   6.466   3.387  10.729  0.3528  1.0409 -0.0159
 9096TIP3   OH248702   0.605   4.363   3.503 -0.4192 -0.1075  0.2477
 9096TIP3    H148703   0.531   4.365   3.442  0.2599 -0.2097 -0.5887
 9096TIP3    H248704   0.647   4.279   3.487 -0.4188 -0.2770  1.0925
 9097TIP3   OH248705   4.280   4.679   2.792 -0.3404 -0.3084  0.1384
 9097TIP3    H148706   4.293   4.655   2.700 -0.5920  1.7608 -0.4818
 9097TIP3    H248707   4.200   4.730   2.793  0.1256  0.4494  1.3676
 9098TIP3   OH248708   5.146   6.321   5.561  0.4817 -0.2399 -0.3036
 9098TIP3    H148709   5.214   6.378   5.595  3.4628 -2.4248 -2.0467
 9098TIP3    H248710   5.133   6.350   5.471 -1.4654  0.5337  0.1749
 9099TIP3   OH248711   0.801   3.263  16.890 -0.4174  0.0031  0.2360
 9099TIP3    H148712   0.720   3.289  16.933  0.0247 -0.9580  1.7303
 9099TIP3    H248713   0.871   3.294  16.948  0.2988  0.7310 -0.9766
 9100TIP3   OH248714   3.023   3.998   3.309  0.2751 -0.7192 -0.4023
 9100TIP3    H148715   3.110   3.976   3.341  0.1383 -0.3170  0.2521
 9100TIP3    H248716   2.968   3.925   3.338  0.2781 -0.6891 -0.3232
 9101TIP3   OH248717   3.580   6.106  12.456 -0.2469 -0.4313 -0.0609
 9101TIP3    H148718   3.504   6.128  12.509  0.7238 -1.4362  1.8347
 9101TIP3    H248719   3.560   6.142  12.369 -2.1632  0.7043  0.7929
 9102TIP3   OH248720   5.567   1.681   2.978  0.0635  0.2554  0.2409
 9102TIP3    H148721   5.496   1.734   3.014 -0.1250  0.5514 -0.5507
 9102TIP3    H248722   5.565   1.601   3.029 -0.2752  0.6196  0.8090
 9103TIP3   OH248723   1.795   4.739  14.315 -0.1961 -0.1553 -0.2958
 9103TIP3    H148724   1.747   4.718  14.234 -0.6298 -3.0832  0.6020
 9103TIP3    H248725   1.817   4.653  14.352  2.4698  1.1062  1.2805
 9104TIP3   OH248726   3.679   1.438   5.128 -0.5206 -0.7307 -0.1140
 9104TIP3    H148727   3.712   1.507   5.185  1.3830 -1.1747 -0.6008
 9104TIP3    H248728   3.690   1.357   5.179  0.0132 -0.9819 -0.6115
 9105TIP3   OH248729   1.594   3.410  12.951 -0.1755 -0.2164  0.0209
 9105TIP3    H148730   1.537   3.421  13.028 -0.1303 -0.6596  0.1172
 9105TIP3    H248731   1.679   3.442  12.980 -0.4655  0.8796 -0.2612
 9106TIP3   OH248732   1.239   6.042  16.888 -0.0469  0.0748  0.2675
 9106TIP3    H148733   1.177   6.068  16.819  2.5265  1.5948 -1.6723
 9106TIP3    H248734   1.264   5.952  16.865  0.2366  0.3138 -0.4146
 9107TIP3   OH248735   2.408   2.693  12.180  0.2429  0.3469  0.2366
 9107TIP3    H148736   2.462   2.769  12.205 -0.6243  0.7357  0.9781
 9107TIP3    H248737   2.331   2.731  12.138 -0.0506 -0.1461  0.3204
 9108TIP3   OH248738   4.857   6.146   3.099 -0.1828 -0.6764 -0.3943
 9108TIP3    H148739   4.932   6.089   3.117  0.2629  0.3539  1.1527
 9108TIP3    H248740   4.812   6.155   3.183  0.7966  2.6737 -0.0714
 9109TIP3   OH248741   5.001   2.246   5.325 -0.8819 -0.6142 -0.3893
 9109TIP3    H148742   4.957   2.223   5.243 -2.3483 -1.0140  0.4625
 9109TIP3    H248743   4.950   2.319   5.359 -0.5886 -0.7616  0.3805
 9110TIP3   OH248744   4.775   4.230  11.885 -0.2500 -0.0862  0.0890
 9110TIP3    H148745   4.691   4.257  11.923  0.0624  0.0332  0.6948
 9110TIP3    H248746   4.792   4.295  11.817 -0.0306  0.6376  0.8212
 9111TIP3   OH248747   0.058   4.266   1.274 -0.2974 -0.5801 -0.2223
 9111TIP3    H148748   0.057   4.343   1.218 -1.0457  0.5182  1.2103
 9111TIP3    H248749  -0.025   4.221   1.256  1.1368 -2.5000 -2.8176
 9112TIP3   OH248750   1.761   1.900   0.728 -0.1226 -0.4283 -0.1772
 9112TIP3    H148751   1.830   1.834   0.737  0.3680  0.0331 -0.5717
 9112TIP3    H248752   1.687   1.862   0.777  0.4125 -0.9046  0.2916
 9113TIP3   OH248753   0.354   2.310   0.021  0.1877 -0.1376 -0.6279
 9113TIP3    H148754   0.357   2.287  -0.072  0.4917 -1.1654 -0.3751
 9113TIP3    H248755   0.261   2.310   0.043  0.1703 -1.0934 -0.6568
 9114TIP3   OH248756   3.840   4.060   5.801  0.6048 -0.7221 -0.1969
 9114TIP3    H148757   3.836   4.078   5.895 -1.0040  0.9873 -0.5429
 9114TIP3    H248758   3.933   4.042   5.784  1.1103  0.0849  1.5244
 9115TIP3   OH248759   0.926   6.494   4.703 -0.0497 -0.1981 -0.1154
 9115TIP3    H148760   1.008   6.495   4.752  0.0319 -3.4855  0.0070
 9115TIP3    H248761   0.859   6.515   4.768  0.3909 -1.0143  0.6237
 9116TIP3   OH248762   5.869   5.570  11.910 -0.1720 -0.0908  0.2344
 9116TIP3    H148763   5.918   5.489  11.895 -1.4866 -0.9779  0.5319
 9116TIP3    H248764   5.793   5.542  11.962 -0.6169  1.3491  0.3852
 9117TIP3   OH248765   4.761   2.790  11.864 -0.4096 -0.7944  0.2905
 9117TIP3    H148766   4.833   2.774  11.803 -1.9077 -0.6758 -1.6095
 9117TIP3    H248767   4.799   2.844  11.933  1.5523 -1.5916 -0.1099
 9118TIP3   OH248768   6.508   1.904  16.684 -0.1680  0.2334 -0.4423
 9118TIP3    H148769   6.467   1.990  16.687 -2.3036 -0.6871 -1.0864
 9118TIP3    H248770   6.494   1.868  16.772  0.4273  0.3963 -0.2742
 9119TIP3   OH248771   6.750   3.974  17.019  0.4253 -0.4457  0.1898
 9119TIP3    H148772   6.670   3.929  17.049  0.8215 -1.9653 -0.9253
 9119TIP3    H248773   6.808   3.973  17.095 -0.4868  0.4553  0.9386
 9120TIP3   OH248774   4.637   1.181   6.340 -0.3637 -0.4868 -0.5206
 9120TIP3    H148775   4.714   1.223   6.300 -0.4239  0.9971  0.8533
 9120TIP3    H248776   4.674   1.108   6.390  0.2506  0.5518  0.5872
 9121TIP3   OH248777   5.773   3.352  11.224  0.1532  0.6003  0.2408
 9121TIP3    H148778   5.812   3.325  11.141 -0.1224  0.1073  0.2724
 9121TIP3    H248779   5.725   3.276  11.255 -0.9844  1.2395  0.1217
 9122TIP3   OH248780   2.299   2.020  13.323  0.2172  0.3352 -0.3785
 9122TIP3    H148781   2.324   2.089  13.262 -0.2323  0.1809 -0.7497
 9122TIP3    H248782   2.308   2.059  13.410 -1.8840  1.5337 -0.6240
 9123TIP3   OH248783   0.403   1.066  10.451  0.0066 -0.7528  0.0312
 9123TIP3    H148784   0.313   1.069  10.418  0.0030 -1.2438 -0.0152
 9123TIP3    H248785   0.425   0.973  10.450  0.2105 -0.7165  0.8726
 9124TIP3   OH248786   1.002   5.382   4.363 -0.2331  0.1917  0.6510
 9124TIP3    H148787   1.037   5.346   4.445  0.7448 -1.0527 -0.2867
 9124TIP3    H248788   1.010   5.477   4.374  3.8979  0.0645  0.4094
 9125TIP3   OH248789   6.526   3.178  15.730 -0.0631 -0.1503 -0.2605
 9125TIP3    H148790   6.436   3.210  15.731  0.0655  0.3316 -1.7148
 9125TIP3    H248791   6.561   3.200  15.816 -1.7316 -1.5656  0.8436
 9126TIP3   OH248792   3.924   3.653   4.651 -0.5126 -0.0309 -0.2352
 9126TIP3    H148793   3.850   3.706   4.621  0.0640  1.5184  0.9302
 9126TIP3    H248794   3.884   3.583   4.703 -1.1879  0.8737  0.4978
 9127TIP3   OH248795   1.181   5.346  11.094  0.4888  0.2555  0.7310
 9127TIP3    H148796   1.140   5.274  11.047  1.0367  0.2207  0.2934
 9127TIP3    H248797   1.269   5.313  11.116  2.0929  1.9171 -2.4655
 9128TIP3   OH248798   2.802   0.169  13.470  0.5109 -0.5205 -0.0164
 9128TIP3    H148799   2.776   0.241  13.412  0.3771 -0.9169 -0.4567
 9128TIP3    H248800   2.882   0.199  13.512 -0.5179  0.6284  1.1830
 9129TIP3   OH248801   0.077   6.757  14.318 -0.8506  0.2267  0.2997
 9129TIP3    H148802   0.154   6.701  14.325 -0.0556  1.4878  3.1344
 9129TIP3    H248803   0.018   6.727  14.388 -2.1739  0.4044 -0.7007
 9130TIP3   OH248804   2.059   1.951   5.437 -0.1952  0.4798  0.4317
 9130TIP3    H148805   2.066   1.970   5.343 -0.1053  2.2889  0.7759
 9130TIP3    H248806   2.149   1.930   5.463 -0.3279 -0.7159  0.0070
 9131TIP3   OH248807   3.535   5.775  15.657  0.2897  0.2176 -0.0386
 9131TIP3    H148808   3.476   5.831  15.606  1.5416  1.8564  0.2235
 9131TIP3    H248809   3.496   5.773  15.745  1.3839  2.6636  0.5890
 9132TIP3   OH248810   6.388   2.910   4.403  0.7380  0.4072 -0.0028
 9132TIP3    H148811   6.431   2.994   4.388  1.6956 -0.1142 -0.2609
 9132TIP3    H248812   6.298   2.923   4.372  0.9312  1.2665 -0.2255
 9133TIP3   OH248813   1.261   6.724  11.198 -0.3268  0.5024  0.2766
 9133TIP3    H148814   1.219   6.786  11.138  0.4907 -1.5850 -2.7098
 9133TIP3    H248815   1.345   6.765  11.220 -0.6112  1.2891 -0.0728
 9134TIP3   OH248816   1.004   4.021  10.618 -0.2859  0.0806  0.5295
 9134TIP3    H148817   1.098   4.013  10.604 -0.2740  0.6669  0.2476
 9134TIP3    H248818   0.968   4.035  10.530 -0.7265 -0.9196  0.5316
 9135TIP3   OH248819   2.137   0.204  11.125 -0.0605 -0.1467  0.0482
 9135TIP3    H148820   2.094   0.141  11.067 -0.3414 -0.4199  0.5405
 9135TIP3    H248821   2.218   0.161  11.151 -1.0133 -1.0453  1.6980
 9136TIP3   OH248822   0.586   1.708  12.082  0.7700  0.2802  0.4265
 9136TIP3    H148823   0.537   1.687  12.162  1.2595  1.1258  0.9531
 9136TIP3    H248824   0.609   1.800  12.091  2.0375  0.0287 -0.0400
 9137TIP3   OH248825   5.317   0.075   0.567 -0.1620  0.0781  0.7909
 9137TIP3    H148826   5.370   0.104   0.642  0.2437  1.0507  0.1445
 9137TIP3    H248827   5.294   0.156   0.522 -0.0594 -0.5206 -0.3702
 9138TIP3   OH248828   6.231   6.400   5.906  0.0865 -0.3161  0.4069
 9138TIP3    H148829   6.224   6.305   5.902  2.1425 -0.4823 -2.2932
 9138TIP3    H248830   6.293   6.417   5.976 -1.6820 -0.7750  2.1607
 9139TIP3   OH248831   4.462   1.902   0.452 -0.1683 -0.1954  0.5025
 9139TIP3    H148832   4.509   1.982   0.430 -1.1064  0.2954  0.2348
 9139TIP3    H248833   4.500   1.835   0.395 -1.5786  0.7559 -1.7048
 9140TIP3   OH248834   0.087   0.223   9.967 -0.0172  0.2802 -0.0977
 9140TIP3    H148835   0.011   0.273   9.938  1.6894  2.1290 -1.7264
 9140TIP3    H248836   0.051   0.142  10.002 -2.7606  1.4593  0.0485
 9141TIP3   OH248837   0.271   6.139  12.019 -0.2143 -0.0732 -0.1143
 9141TIP3    H148838   0.244   6.159  11.929 -1.4608 -0.0535  0.2430
 9141TIP3    H248839   0.192   6.104  12.060  0.2619  0.1887  1.0575
 9142TIP3   OH248840   4.969   5.951  12.619  0.1228 -0.1378  0.3603
 9142TIP3    H148841   4.909   5.904  12.561  1.1812 -0.7900 -0.2356
 9142TIP3    H248842   5.056   5.931  12.584  0.8589 -1.2103  2.6467
 9143TIP3   OH248843   6.291   1.619  13.668  0.2277 -0.1510 -0.7310
 9143TIP3    H148844   6.315   1.711  13.679  0.2138 -0.2590  0.3118
 9143TIP3    H248845   6.199   1.615  13.694  1.1315 -1.0463  2.8986
 9144TIP3   OH248846   1.221   5.760   1.231 -0.8871  0.0685 -0.0877
 9144TIP3    H148847   1.179   5.742   1.316 -0.4904  0.4649  0.1969
 9144TIP3    H248848   1.204   5.853   1.215 -0.5577  0.1068 -0.2165
 9145TIP3   OH248849   1.426   0.332   3.969 -0.3845  0.2070 -0.3362
 9145TIP3    H148850   1.454   0.371   3.887 -0.5011  0.3928 -0.2882
 9145TIP3    H248851   1.441   0.401   4.035 -0.5366  0.1503 -0.2424
 9146TIP3   OH248852   3.303   2.132  10.729 -0.7915 -0.0290  0.2044
 9146TIP3    H148853   3.299   2.220  10.691 -3.6512 -0.7776 -1.5630
 9146TIP3    H248854   3.243   2.135  10.803 -0.4438 -0.3366  0.4982
 9147TIP3   OH248855   3.338   3.850  14.166  0.5366  0.2395 -0.9005
 9147TIP3    H148856   3.337   3.755  14.156 -3.4783  0.2082 -1.8441
 9147TIP3    H248857   3.333   3.883  14.076 -0.9318  1.1763 -0.5140
 9148TIP3   OH248858   3.367   3.810  12.760  0.5552  0.2109 -0.4925
 9148TIP3    H148859   3.363   3.751  12.835  0.6710  1.4909  0.5523
 9148TIP3    H248860   3.294   3.782  12.704  0.3886 -0.6772  0.1372
 9149TIP3   OH248861   1.217   1.685   5.691 -0.1659  0.7933  0.3526
 9149TIP3    H148862   1.250   1.685   5.781 -0.7816  1.1716  0.5846
 9149TIP3    H248863   1.238   1.598   5.658  3.1925  1.7414 -0.3193
 9150TIP3   OH248864   0.406   1.725  17.186  0.5294  0.0255  0.2168
 9150TIP3    H148865   0.479   1.688  17.138  1.7803  1.3031  1.0467
 9150TIP3    H248866   0.447   1.781  17.252 -1.1165 -1.0212  2.2469
 9151TIP3   OH248867   0.862   0.795   0.648  0.3222  0.1379  0.5098
 9151TIP3    H148868   0.857   0.883   0.611 -1.1447  0.3844  1.2194
 9151TIP3    H248869   0.776   0.757   0.634  0.2515 -0.3863  2.0755
 9152TIP3   OH248870   5.057   0.527  13.876  0.3182 -0.2151 -0.2511
 9152TIP3    H148871   5.024   0.614  13.855  0.1371  0.1507  1.4044
 9152TIP3    H248872   5.072   0.486  13.791 -0.5028  1.0781 -1.0590
 9153TIP3   OH248873   1.639   3.041  12.832 -0.4484  0.9716  0.0009
 9153TIP3    H148874   1.645   3.078  12.920  1.6573 -0.4284  0.5273
 9153TIP3    H248875   1.655   3.115  12.773 -0.4795  1.6515  0.8330
 9154TIP3   OH248876   6.034   3.985  13.633  0.1736  0.4260  0.0742
 9154TIP3    H148877   5.973   4.044  13.677  1.4325  3.1928 -1.5993
 9154TIP3    H248878   6.108   3.978  13.693 -0.9729 -1.5997  1.3710
 9155TIP3   OH248879   0.991   6.735  16.271  0.6618 -0.7601  0.0750
 9155TIP3    H148880   0.899   6.758  16.286  0.9007 -0.0088  0.4413
 9155TIP3    H248881   0.994   6.708  16.179  0.4692  1.3026 -0.5940
 9156TIP3   OH248882   2.783   4.871  12.546  0.2558 -0.1235 -0.2861
 9156TIP3    H148883   2.802   4.778  12.547 -0.5738 -0.2984 -0.7128
 9156TIP3    H248884   2.790   4.897  12.454  1.6040  0.4816 -0.0452
 9157TIP3   OH248885   0.277   4.965   0.021  0.4095  0.1679 -0.0845
 9157TIP3    H148886   0.266   4.878  -0.017  1.7179  0.3959 -1.0713
 9157TIP3    H248887   0.344   4.953   0.089 -0.5213  0.1322  0.8486
 9158TIP3   OH248888   0.108   2.295   0.129  0.4334 -0.0903 -0.5993
 9158TIP3    H148889   0.110   2.252   0.214 -0.7879  0.6315 -0.1904
 9158TIP3    H248890   0.021   2.273   0.093 -0.0993  1.7507 -0.5141
 9159TIP3   OH248891   1.811   5.765   2.392 -0.2590 -1.0059 -0.1525
 9159TIP3    H148892   1.723   5.758   2.431 -0.2803 -0.4251 -0.1009
 9159TIP3    H248893   1.835   5.856   2.403  0.3164 -1.1426 -0.2594
 9160TIP3   OH248894   0.209   6.724   4.219  0.7243  0.5180 -0.0201
 9160TIP3    H148895   0.124   6.685   4.240  0.8916 -0.4734 -1.0725
 9160TIP3    H248896   0.266   6.696   4.291  0.9129 -1.5146 -0.8871
 9161TIP3   OH248897   5.103   2.939   1.403 -0.3480 -0.1551  0.4001
 9161TIP3    H148898   5.010   2.917   1.406 -0.2055 -0.7020  0.9794
 9161TIP3    H248899   5.142   2.875   1.344 -0.4566  0.5487 -0.4527
 9162TIP3   OH248900   6.154   1.355   5.295  0.6597 -0.8157  0.2350
 9162TIP3    H148901   6.213   1.359   5.370 -0.2793  1.9832  0.9592
 9162TIP3    H248902   6.140   1.447   5.271 -1.8094 -1.4702 -1.1426
 9163TIP3   OH248903   4.296   3.911   1.334 -0.6293 -0.2846 -0.0965
 9163TIP3    H148904   4.350   3.898   1.412  0.2061  2.5266 -0.1006
 9163TIP3    H248905   4.297   3.826   1.290  1.1878 -1.1894  1.5206
 9164TIP3   OH248906   1.033   5.958   4.599 -0.1125  0.7369 -0.2216
 9164TIP3    H148907   0.989   5.899   4.660  0.8190 -0.5033 -0.7083
 9164TIP3    H248908   1.044   5.907   4.519  1.5173  1.2320 -0.3572
 9165TIP3   OH248909   5.726   3.453   3.761 -0.0504 -0.2412  0.1524
 9165TIP3    H148910   5.708   3.491   3.847  0.0642 -0.0045  0.0755
 9165TIP3    H248911   5.721   3.359   3.774  0.1149 -0.2105  0.4536
 9166TIP3   OH248912   6.042   1.332  12.165 -0.3536 -0.2971 -0.0460
 9166TIP3    H148913   6.016   1.326  12.257  1.7317 -0.5675  0.5788
 9166TIP3    H248914   6.064   1.424  12.152 -2.0633  0.0442 -0.7274
 9167TIP3   OH248915   1.344   4.713   0.113  0.2055  0.0327 -0.1498
 9167TIP3    H148916   1.263   4.720   0.164  0.5356 -2.1210  0.7654
 9167TIP3    H248917   1.405   4.773   0.157  0.2192 -1.1444  1.5080
 9168TIP3   OH248918   1.416   3.561  11.534  0.0622  0.0200  0.2855
 9168TIP3    H148919   1.435   3.646  11.494 -0.7026  0.1485  0.1703
 9168TIP3    H248920   1.439   3.572  11.626  1.6048 -0.1999 -0.0591
 9169TIP3   OH248921   5.416   0.180   4.440 -0.4324  0.0807 -0.5391
 9169TIP3    H148922   5.348   0.135   4.390  0.3960 -1.1248 -0.6375
 9169TIP3    H248923   5.498   0.142   4.409  0.0904 -2.1213  2.9348
 9170TIP3   OH248924   5.268   2.317  12.691 -0.3655 -0.3978  0.0279
 9170TIP3    H148925   5.331   2.290  12.624 -1.0775  0.6991 -1.1197
 9170TIP3    H248926   5.185   2.326  12.644 -0.5231  2.1190  0.6158
 9171TIP3   OH248927   4.862   1.763   0.204 -0.3638 -0.1347  0.0879
 9171TIP3    H148928   4.810   1.844   0.204 -0.4180 -0.1392  1.9769
 9171TIP3    H248929   4.840   1.720   0.286  0.1692 -1.7694 -0.5934
 9172TIP3   OH248930   4.088   4.155  11.170  0.1013  0.1177  1.0639
 9172TIP3    H148931   4.163   4.155  11.109 -1.1359 -1.9288 -0.5924
 9172TIP3    H248932   4.011   4.151  11.113 -1.2886  1.3273  2.7460
 9173TIP3   OH248933   4.799   4.676  16.321  0.4687 -0.1849  0.1910
 9173TIP3    H148934   4.837   4.648  16.238  1.6331 -0.5939  0.8498
 9173TIP3    H248935   4.858   4.744  16.354 -0.0400  0.0542  0.6480
 9174TIP3   OH248936   6.391   2.123  11.698  0.6846 -0.2381  0.5070
 9174TIP3    H148937   6.301   2.155  11.710 -0.7627 -2.5203 -2.8092
 9174TIP3    H248938   6.415   2.087  11.783 -2.2080 -0.9662  1.1445
 9175TIP3   OH248939   1.080   0.816   3.452 -0.2454  0.9142 -0.1217
 9175TIP3    H148940   1.033   0.844   3.530 -0.4656  0.4272 -0.0766
 9175TIP3    H248941   1.022   0.839   3.379  0.1637  1.7969 -0.1830
 9176TIP3   OH248942   0.949   4.895  10.586 -0.2088 -1.0837 -0.1759
 9176TIP3    H148943   0.984   4.844  10.514 -1.4135 -0.6450 -1.1131
 9176TIP3    H248944   0.983   4.984  10.572  0.0087 -1.1139  0.1328
 9177TIP3   OH248945   5.326   4.220  16.342  0.1186  0.6258  0.4145
 9177TIP3    H148946   5.310   4.191  16.253  0.5742 -0.5030  0.6752
 9177TIP3    H248947   5.386   4.154  16.378  0.7267  1.5990  1.2407
 9178TIP3   OH248948   2.856   0.294  16.969 -0.0012 -0.4619  0.0623
 9178TIP3    H148949   2.873   0.321  16.879  1.3724  2.0199  0.9868
 9178TIP3    H248950   2.911   0.216  16.981  0.5944 -0.2105 -0.9347
 9179TIP3   OH248951   1.656   5.587  11.845 -0.0997 -0.0758  1.4858
 9179TIP3    H148952   1.749   5.593  11.823 -0.3938 -0.4981  0.0266
 9179TIP3    H248953   1.612   5.633  11.773 -0.9581  1.6818  3.0493
 9180TIP3   OH248954   3.363   0.044   0.149 -0.4698 -0.0558  0.2514
 9180TIP3    H148955   3.441   0.080   0.192 -0.5419  0.8433 -0.3301
 9180TIP3    H248956   3.390  -0.042   0.118  0.6986  0.7089 -0.9864
 9181TIP3   OH248957   3.274   4.841  13.751 -0.2772 -0.3414 -0.6384
 9181TIP3    H148958   3.349   4.847  13.811  0.5452  1.5106 -1.7708
 9181TIP3    H248959   3.220   4.770  13.787  1.7942 -1.4639  0.4516
 9182TIP3   OH248960   1.369   3.784   2.975  0.2027  0.1246  0.0010
 9182TIP3    H148961   1.405   3.815   2.892  2.0332 -0.6248  0.4549
 9182TIP3    H248962   1.415   3.836   3.041  0.8266 -1.1798  0.6333
 9183TIP3   OH248963   0.903   1.653   3.415 -0.2089  0.6004 -0.1453
 9183TIP3    H148964   0.929   1.564   3.393 -0.6778  0.1138  1.1634
 9183TIP3    H248965   0.933   1.665   3.506 -1.3986  1.2636  0.1829
 9184TIP3   OH248966   3.686   5.919   4.598  0.2542 -0.0521 -0.3663
 9184TIP3    H148967   3.644   6.005   4.599  1.0522  0.3838  1.5637
 9184TIP3    H248968   3.613   5.856   4.593 -0.2750  0.6837 -3.2427
 9185TIP3   OH248969   2.992   4.676  13.614  0.2939 -0.3476  0.4701
 9185TIP3    H148970   3.078   4.665  13.574  0.2670 -0.7252  0.5141
 9185TIP3    H248971   2.947   4.592  13.599 -0.2152 -0.0133  0.0820
 9186TIP3   OH248972   1.458   4.777  15.800  0.2570 -0.4404 -0.1212
 9186TIP3    H148973   1.421   4.831  15.730 -0.3444 -0.5537  0.1040
 9186TIP3    H248974   1.456   4.834  15.877  0.2611 -0.5553 -0.0369
 9187TIP3   OH248975   5.850   5.959  13.864 -1.0235  0.8283 -0.5248
 9187TIP3    H148976   5.905   6.028  13.828  0.9818 -0.1661  0.4427
 9187TIP3    H248977   5.836   5.984  13.955 -1.5488  0.6779 -0.5588
 9188TIP3   OH248978   2.022   4.056   3.468 -0.4875  0.0245 -0.0002
 9188TIP3    H148979   1.927   4.049   3.473 -0.7417  2.1587 -0.8052
 9188TIP3    H248980   2.048   3.991   3.404 -1.2975 -1.1138  0.7918
 9189TIP3   OH248981   0.747   1.233  13.596  0.0450 -0.5887 -0.3057
 9189TIP3    H148982   0.747   1.182  13.514  0.7754  2.0919 -2.0977
 9189TIP3    H248983   0.685   1.304  13.579  0.7798  0.4516  1.1994
 9190TIP3   OH248984   6.239   3.335  12.173  0.6204  0.6300 -0.5741
 9190TIP3    H148985   6.296   3.342  12.096 -1.1649  2.2513 -1.8672
 9190TIP3    H248986   6.150   3.331  12.136 -0.1651 -1.5380  1.3530
 9191TIP3   OH248987   6.029   5.230   2.837  1.2929 -0.4027 -0.2556
 9191TIP3    H148988   5.945   5.274   2.821  1.3899 -0.1594 -0.0851
 9191TIP3    H248989   6.036   5.166   2.766  0.4632 -1.1615  0.3213
 9192TIP3   OH248990   5.831   2.993   3.479 -0.1723 -0.0493  0.2804
 9192TIP3    H148991   5.913   2.973   3.525 -1.1349 -1.8200  1.3575
 9192TIP3    H248992   5.855   2.996   3.387  1.3954  1.2161  0.6889
 9193TIP3   OH248993   6.287   6.459   1.346  0.1142 -0.1951 -0.0574
 9193TIP3    H148994   6.244   6.378   1.372 -0.0910  0.5809  2.3051
 9193TIP3    H248995   6.258   6.474   1.256 -1.9453 -1.3706  0.3412
 9194TIP3   OH248996   2.091   1.285  13.694 -0.0731 -0.3442  0.0769
 9194TIP3    H148997   2.149   1.356  13.719 -0.1913 -0.1303 -0.2475
 9194TIP3    H248998   2.081   1.294  13.599 -3.6006  1.9599  0.4906
 9195TIP3   OH248999   0.030   5.720   1.654 -0.2034 -0.5505 -0.8192
 9195TIP3    H149000   0.121   5.742   1.674 -0.6874  0.4826  0.3475
 9195TIP3    H249001   0.036   5.650   1.589  1.4507 -2.3104  1.0779
 9196TIP3   OH249002   5.019   4.031  16.042  0.3954 -0.0653  0.0398
 9196TIP3    H149003   5.111   4.046  16.064  0.2448 -0.3695  0.9345
 9196TIP3    H249004   4.993   3.959  16.099 -1.2921  2.1211  2.2368
 9197TIP3   OH249005   4.027   1.870   3.089  0.1511 -0.0558 -0.3274
 9197TIP3    H149006   4.065   1.788   3.121  0.1735  0.0525 -0.0735
 9197TIP3    H249007   3.938   1.871   3.125  0.8174  1.0253  1.4700
 9198TIP3   OH249008   1.391   3.200   2.036  0.0728  0.4718  0.0497
 9198TIP3    H149009   1.297   3.185   2.040 -0.2835  1.9413 -1.4791
 9198TIP3    H249010   1.428   3.114   2.014 -1.2543  0.4026 -2.3353
 9199TIP3   OH249011   0.821   5.404  16.299 -0.3382 -0.2184 -0.3989
 9199TIP3    H149012   0.829   5.346  16.375  2.2964 -1.9522 -1.8379
 9199TIP3    H249013   0.878   5.478  16.319 -2.0486  0.9195  0.5287
 9200TIP3   OH249014   0.056   3.794  12.428  0.2567 -0.5425 -0.2532
 9200TIP3    H149015   0.068   3.702  12.405 -1.1577 -0.7139 -0.4005
 9200TIP3    H249016  -0.023   3.821  12.381  0.4621  0.6591  0.0456
 9201TIP3   OH249017   0.583   0.352  14.333  0.4684 -0.2762  0.3312
 9201TIP3    H149018   0.601   0.292  14.261 -4.3349 -0.2296 -1.2316
 9201TIP3    H249019   0.616   0.436  14.303 -0.8438 -0.3981 -1.5678
 9202TIP3   OH249020   3.170   3.183   1.264 -0.4177 -0.2094  0.0149
 9202TIP3    H149021   3.160   3.277   1.274  0.2325 -0.2035  0.6606
 9202TIP3    H249022   3.099   3.145   1.315 -1.4580 -0.0694 -1.2643
 9203TIP3   OH249023   0.612   1.543  14.810  0.0840  0.0890 -0.6674
 9203TIP3    H149024   0.679   1.581  14.867 -0.3007  0.7807 -0.6592
 9203TIP3    H249025   0.591   1.459  14.850  0.4922  0.1518 -0.3137
 9204TIP3   OH249026   2.132   4.909  17.224  0.4543  0.1947 -0.1973
 9204TIP3    H149027   2.211   4.856  17.238 -1.1413 -2.2988  0.0211
 9204TIP3    H249028   2.081   4.859  17.161 -1.4951  1.0887  0.6060
 9205TIP3   OH249029   3.885   2.295  14.513  0.9353  0.2514 -0.0269
 9205TIP3    H149030   3.955   2.237  14.483  0.9195  0.2435 -0.0487
 9205TIP3    H249031   3.926   2.381  14.518  0.8089  0.3461 -0.5615
 9206TIP3   OH249032   2.579   5.046   1.071 -0.3209  0.1816  0.5556
 9206TIP3    H149033   2.628   5.021   1.149 -0.1921  0.4891  0.5762
 9206TIP3    H249034   2.495   5.079   1.105 -0.2342  0.3898  0.5724
 9207TIP3   OH249035   5.447   2.716   3.928  0.6581  0.2663  0.2974
 9207TIP3    H149036   5.455   2.740   3.836 -0.4713 -0.1689  0.0661
 9207TIP3    H249037   5.390   2.783   3.966 -2.0390 -1.5529 -0.2211
 9208TIP3   OH249038   4.460   1.586   2.876  0.1604 -0.5379  0.6371
 9208TIP3    H149039   4.469   1.511   2.818 -0.9694 -0.8513  0.8515
 9208TIP3    H249040   4.471   1.663   2.820 -0.8722 -0.8379  0.0099
 9209TIP3   OH249041   5.449   3.447   2.882  0.4141  0.4010 -0.2582
 9209TIP3    H149042   5.445   3.429   2.788  0.3423  0.0190 -0.1861
 9209TIP3    H249043   5.467   3.540   2.888  1.1399  0.2934 -0.6600
 9210TIP3   OH249044   6.549   3.206   0.553 -0.8681  0.2130  0.4029
 9210TIP3    H149045   6.533   3.157   0.472 -1.1819  1.3384 -0.2384
 9210TIP3    H249046   6.487   3.279   0.550 -0.1418  0.8829  1.1290
 9211TIP3   OH249047   6.241   4.508   4.173  0.5012  0.0849 -0.0058
 9211TIP3    H149048   6.222   4.584   4.118  1.4861 -0.0545 -0.5706
 9211TIP3    H249049   6.336   4.508   4.182  0.4266 -0.4368  0.9357
 9212TIP3   OH249050   2.401   1.796   0.027  0.0036 -0.4880 -0.3022
 9212TIP3    H149051   2.469   1.860   0.052 -0.3879 -0.1527 -0.0795
 9212TIP3    H249052   2.329   1.850  -0.007  0.6367 -0.9422 -2.4904
 9213TIP3   OH249053   0.153   4.628   5.285  0.2763  0.0750  0.3753
 9213TIP3    H149054   0.170   4.537   5.308  3.3770  0.3122 -0.5475
 9213TIP3    H249055   0.228   4.655   5.232 -0.3701  3.2517  0.8232
 9214TIP3   OH249056   2.049   3.253   5.706  0.1237  0.0796  0.2503
 9214TIP3    H149057   1.994   3.286   5.777 -1.1837  0.6653 -1.0024
 9214TIP3    H249058   2.077   3.331   5.658  2.5380 -0.1502  1.1471
 9215TIP3   OH249059   6.550   3.884  11.693 -0.3624  0.2148  0.3060
 9215TIP3    H149060   6.556   3.788  11.688 -1.1545  0.1996 -1.0265
 9215TIP3    H249061   6.630   3.911  11.737 -0.5208 -1.1052  1.4784
 9216TIP3   OH249062   5.199   5.608   5.834  0.1114 -0.3256  0.3048
 9216TIP3    H149063   5.238   5.557   5.763  1.0723 -0.3886  0.8664
 9216TIP3    H249064   5.139   5.668   5.790  0.4252 -0.6081 -0.5301
 9217TIP3   OH249065   2.862   5.729  12.620 -0.0507 -0.0422 -0.3739
 9217TIP3    H149066   2.937   5.669  12.617 -0.6806 -0.9223  0.6805
 9217TIP3    H249067   2.867   5.777  12.537  1.2765 -0.5571 -0.6304
 9218TIP3   OH249068   3.965   0.734   1.635 -0.2997  0.1191 -0.1932
 9218TIP3    H149069   3.904   0.736   1.561 -1.2426 -0.8349  0.5323
 9218TIP3    H249070   4.051   0.732   1.594 -0.8122 -0.6247 -1.2981
 9219TIP3   OH249071   1.912   5.970  11.120  0.0434 -0.1125 -0.2472
 9219TIP3    H149072   1.992   6.002  11.078  0.4271 -0.1119  0.4759
 9219TIP3    H249073   1.861   6.049  11.139  0.2742 -0.0451  0.0965
 9220TIP3   OH249074   0.988   4.799   3.508 -0.0648 -0.1749 -0.7018
 9220TIP3    H149075   0.912   4.759   3.467 -0.1400  0.2406 -0.9752
 9220TIP3    H249076   0.975   4.786   3.602 -1.2251  1.1915 -0.6396
 9221TIP3   OH249077   3.899   0.590   1.110  0.0222 -0.7309  0.3379
 9221TIP3    H149078   3.959   0.568   1.039 -0.0682  0.5345 -0.1576
 9221TIP3    H249079   3.928   0.535   1.183  0.0928 -2.0911 -0.6612
 9222TIP3   OH249080   3.053   0.948  13.020 -0.0575  0.6748  0.1082
 9222TIP3    H149081   3.068   0.970  13.112 -2.1340  1.9814  0.2025
 9222TIP3    H249082   3.031   0.855  13.020 -0.4154  0.7572  0.9765
 9223TIP3   OH249083   5.823   1.005  12.917 -0.1958  0.6360 -0.0393
 9223TIP3    H149084   5.866   1.060  12.852  2.3713 -1.8628 -0.6776
 9223TIP3    H249085   5.752   0.962  12.869  0.8035 -0.1433 -0.8630
 9224TIP3   OH249086   1.555   4.460  11.246 -0.0396 -0.0442  0.0405
 9224TIP3    H149087   1.461   4.463  11.263 -0.0478 -2.6554  1.0544
 9224TIP3    H249088   1.571   4.370  11.217  2.1523  0.3078 -0.0314
 9225TIP3   OH249089   4.049   1.292  12.180 -0.2166 -0.0986 -0.1817
 9225TIP3    H149090   3.977   1.229  12.189  0.5195 -0.8518  0.5704
 9225TIP3    H249091   4.005   1.377  12.174 -1.2658 -0.7149 -2.0622
 9226TIP3   OH249092   0.423   6.368   1.685 -0.1340 -0.4404  0.0969
 9226TIP3    H149093   0.420   6.306   1.612  1.0005 -0.3613 -0.0302
 9226TIP3    H249094   0.366   6.440   1.658  1.2437  0.1749 -1.2855
 9227TIP3   OH249095   6.046   1.765  16.082  0.4398 -0.5516  0.3604
 9227TIP3    H149096   5.952   1.769  16.061 -0.3530 -2.5525  2.9312
 9227TIP3    H249097   6.077   1.854  16.070 -2.7127  1.1404  2.9159
 9228TIP3   OH249098   4.117   5.933   4.774 -0.2461 -0.0720 -0.2640
 9228TIP3    H149099   4.074   5.959   4.692 -0.6176  2.4070  0.6442
 9228TIP3    H249100   4.156   6.013   4.807 -0.0837 -1.0219  1.9860
 9229TIP3   OH249101   0.488   2.560  13.284  0.2091 -0.0819  0.3573
 9229TIP3    H149102   0.407   2.594  13.247  1.1685 -1.0072 -2.8812
 9229TIP3    H249103   0.466   2.471  13.312 -0.0246 -0.1372 -0.0036
 9230TIP3   OH249104   4.976   5.417   0.642 -0.1970 -0.3757  0.6439
 9230TIP3    H149105   4.954   5.336   0.688 -0.0852 -2.6477 -2.9023
 9230TIP3    H249106   5.007   5.388   0.556  3.2573  3.3263  0.3656
 9231TIP3   OH249107   3.791   0.464   0.307  0.0004 -0.2866 -0.2690
 9231TIP3    H149108   3.840   0.404   0.252 -0.5128  1.1239 -2.3868
 9231TIP3    H249109   3.754   0.528   0.246 -0.0911  1.7508  1.7770
 9232TIP3   OH249110   2.410   6.693   4.308 -0.5456  0.0442 -0.2418
 9232TIP3    H149111   2.320   6.704   4.278  0.2221 -0.1181 -2.8975
 9232TIP3    H249112   2.443   6.618   4.258  0.6822 -0.8360  1.7396
 9233TIP3   OH249113   3.526   5.729  16.308  0.4038 -0.0531  0.3839
 9233TIP3    H149114   3.599   5.675  16.337  1.9137  2.1035  0.8297
 9233TIP3    H249115   3.536   5.734  16.213  0.6473 -0.0304  0.4086
 9234TIP3   OH249116   1.117   0.079  13.798  0.3093  0.2127 -0.1242
 9234TIP3    H149117   1.115   0.106  13.706  0.6142 -1.1296 -0.5627
 9234TIP3    H249118   1.208   0.052  13.813  0.5985  1.7062  0.9906
 9235TIP3   OH249119   6.343   6.384   5.169 -0.1266 -0.9059  0.6314
 9235TIP3    H149120   6.373   6.457   5.225 -0.7138 -0.5199  0.4464
 9235TIP3    H249121   6.393   6.309   5.200  0.9342 -0.3064  0.4321
 9236TIP3   OH249122   5.917   1.498   1.732 -0.2660 -0.7782 -0.4606
 9236TIP3    H149123   5.841   1.481   1.676 -0.0570 -0.8507 -0.7278
 9236TIP3    H249124   5.958   1.575   1.693 -0.8134 -0.0736  0.3304
 9237TIP3   OH249125   6.577   6.081   0.763  0.0809 -0.2529  0.1171
 9237TIP3    H149126   6.569   6.129   0.846 -0.3665  0.1192 -0.1346
 9237TIP3    H249127   6.668   6.052   0.761  0.0935 -0.2808  0.7490
 9238TIP3   OH249128   2.115   0.218   0.585  0.4301  0.5701  0.3992
 9238TIP3    H149129   2.111   0.236   0.678 -2.0609  0.3077  0.4198
 9238TIP3    H249130   2.138   0.125   0.579 -1.4967  0.0284  0.8734
 9239TIP3   OH249131   1.766   1.114  16.347 -0.2333 -0.3474  0.1139
 9239TIP3    H149132   1.732   1.172  16.279  0.6276  0.4898  0.3760
 9239TIP3    H249133   1.690   1.089  16.399 -0.6688  0.2059 -0.2532
 9240TIP3   OH249134   1.849   4.546  15.196 -0.4815  0.1743 -0.5056
 9240TIP3    H149135   1.907   4.618  15.169  0.4132  0.0403  0.9531
 9240TIP3    H249136   1.886   4.469  15.154 -0.1194  0.2264 -0.2848
 9241TIP3   OH249137   1.444   5.418  15.242 -0.2301  0.3140 -0.0512
 9241TIP3    H149138   1.449   5.380  15.329  1.0461  1.6550  0.5086
 9241TIP3    H249139   1.362   5.466  15.241  0.2955  1.2602  0.8546
 9242TIP3   OH249140   2.652   1.351  12.108 -0.2751  0.6754  0.6939
 9242TIP3    H149141   2.721   1.369  12.044  0.1588  0.2224  1.0299
 9242TIP3    H249142   2.678   1.399  12.186  0.1509 -0.2322  1.1262
 9243TIP3   OH249143   5.127   1.781  11.207 -0.4093  0.3209  0.3387
 9243TIP3    H149144   5.165   1.696  11.186  0.5691  0.7437  0.3086
 9243TIP3    H249145   5.203   1.840  11.213 -0.9359  0.9181  1.6938
 9244TIP3   OH249146   5.767   5.439  15.510  0.3814  0.2729 -0.3502
 9244TIP3    H149147   5.735   5.351  15.529 -1.2029  1.0051  0.5271
 9244TIP3    H249148   5.764   5.445  15.414 -1.2521 -0.0378 -0.3561
 9245TIP3   OH249149   4.679   1.877   1.427  0.6946  0.3783  0.1324
 9245TIP3    H149150   4.750   1.820   1.455  1.1193  1.4754  1.3595
 9245TIP3    H249151   4.605   1.853   1.483  0.4013  0.0033 -0.3964
 9246TIP3   OH249152   4.878   2.447   4.686  0.1857 -0.6675 -0.0376
 9246TIP3    H149153   4.834   2.472   4.767  0.3343  0.7033 -0.3576
 9246TIP3    H249154   4.814   2.467   4.617  1.2406  1.3219 -0.5043
 9247TIP3   OH249155   1.741   1.885  12.859  0.6777 -0.0875  0.6258
 9247TIP3    H149156   1.723   1.924  12.773 -0.8900  0.2476  1.0682
 9247TIP3    H249157   1.681   1.811  12.864  0.3653  0.2266  1.6439
 9248TIP3   OH249158   4.329   3.891   1.890  0.4047 -0.0557 -0.1178
 9248TIP3    H149159   4.392   3.887   1.818  0.5671  1.7747 -0.1302
 9248TIP3    H249160   4.381   3.885   1.969  0.3828 -0.4866 -0.1323
 9249TIP3   OH249161   4.489   5.537   1.102  0.2162 -0.3956 -0.3992
 9249TIP3    H149162   4.521   5.545   1.192 -0.2732 -0.2361 -0.2393
 9249TIP3    H249163   4.548   5.473   1.062  2.0887  1.4334 -0.7336
 9250TIP3   OH249164   0.798   4.651   1.535 -0.2086  0.1140 -0.9566
 9250TIP3    H149165   0.806   4.702   1.454 -1.1919  0.2246 -0.9896
 9250TIP3    H249166   0.704   4.640   1.547 -0.0416 -0.6185 -0.2718
 9251TIP3   OH249167   6.476   0.833   3.682 -0.5095 -0.5679  0.4321
 9251TIP3    H149168   6.540   0.857   3.749  0.5838 -0.3747 -0.6457
 9251TIP3    H249169   6.529   0.803   3.608 -1.6869 -0.7747 -0.3527
 9252TIP3   OH249170   6.654   0.813  15.715  0.3699 -0.3126 -0.1808
 9252TIP3    H149171   6.596   0.872  15.764  0.9385  0.3102 -0.2420
 9252TIP3    H249172   6.738   0.859  15.713  0.5474 -0.6665 -1.1099
 9253TIP3   OH249173   4.055   1.604  14.695 -0.2921 -0.1164 -0.0859
 9253TIP3    H149174   4.139   1.642  14.668 -0.4786 -0.2479 -0.8902
 9253TIP3    H249175   3.991   1.673  14.681 -0.1026  0.5904  2.2038
 9254TIP3   OH249176   1.014   3.688   4.341  0.5837  0.1881 -0.0714
 9254TIP3    H149177   0.936   3.633   4.351  0.7052  0.0179 -0.0504
 9254TIP3    H249178   1.081   3.629   4.305  1.3927 -0.2719  2.0474
 9255TIP3   OH249179   1.592   6.138   0.192  0.2480 -0.2688 -0.5591
 9255TIP3    H149180   1.577   6.057   0.143  0.2531 -1.0968  0.7642
 9255TIP3    H249181   1.687   6.153   0.185  0.3676 -0.8127 -0.1555
 9256TIP3   OH249182   0.612   3.902   0.335 -0.1278 -0.1957 -0.3553
 9256TIP3    H149183   0.704   3.929   0.333 -0.6356  1.6503 -1.5068
 9256TIP3    H249184   0.585   3.902   0.243 -1.9099  1.8365  0.0895
 9257TIP3   OH249185   6.305   2.221   1.617  0.1766  0.3183 -0.1384
 9257TIP3    H149186   6.255   2.207   1.536  0.3649 -1.7579  0.0393
 9257TIP3    H249187   6.238   2.236   1.684 -0.3143 -2.3179  0.0716
 9258TIP3   OH249188   5.009   5.351   0.385  0.6513  0.7442 -0.0347
 9258TIP3    H149189   5.102   5.366   0.368  0.4669  0.1597 -1.7476
 9258TIP3    H249190   4.967   5.360   0.300 -1.0683  2.2106  0.8720
 9259TIP3   OH249191   1.107   1.063  14.699 -0.1705  0.1655 -0.0329
 9259TIP3    H149192   1.086   1.101  14.614  2.0393  0.8751 -0.3353
 9259TIP3    H249193   1.053   1.111  14.761 -0.7628  0.6193 -0.8811
 9260TIP3   OH249194   2.000   6.022   4.366 -0.2031 -0.2149 -0.2988
 9260TIP3    H149195   1.954   6.054   4.443  2.0609 -1.4364  1.6952
 9260TIP3    H249196   2.034   6.101   4.323 -1.4054  0.4752 -0.0065
 9261TIP3   OH249197   4.965   5.533   2.745 -0.0874  0.2136 -0.2294
 9261TIP3    H149198   4.928   5.471   2.807  0.9210 -0.9019 -0.7170
 9261TIP3    H249199   4.993   5.608   2.798  0.9724 -0.8221  0.7062
 9262TIP3   OH249200   6.008   6.157   6.681  0.5605  0.0743 -0.1518
 9262TIP3    H149201   6.049   6.128   6.599  0.6735 -1.1414  0.3192
 9262TIP3    H249202   5.914   6.145   6.666  0.4535  1.4120 -0.6774
 9263TIP3   OH249203   3.698   4.029  16.767  0.4244 -0.1741  0.7680
 9263TIP3    H149204   3.760   4.064  16.702  1.2517 -1.8904  0.5752
 9263TIP3    H249205   3.612   4.061  16.737  0.9724  0.4260 -0.2364
 9264TIP3   OH249206   2.163   5.299   2.304 -0.6698  0.2503 -0.3125
 9264TIP3    H149207   2.092   5.346   2.259 -1.2033  0.3059  0.5711
 9264TIP3    H249208   2.118   5.246   2.370  0.0793 -0.0701 -0.0560
 9265TIP3   OH249209   3.261   4.889   4.509  0.3543 -0.1920  0.1798
 9265TIP3    H149210   3.326   4.948   4.472  0.6091  0.3809  1.4691
 9265TIP3    H249211   3.281   4.803   4.471  0.6515  0.3363 -0.8928
 9266TIP3   OH249212   2.230   5.873  16.389  0.2006  0.1403  0.1172
 9266TIP3    H149213   2.188   5.941  16.336 -1.2598 -1.2907 -0.6622
 9266TIP3    H249214   2.206   5.894  16.479 -1.0214  0.1506 -0.1959
 9267TIP3   OH249215   5.822   5.806  15.395  0.1074  0.5342 -0.1334
 9267TIP3    H149216   5.827   5.900  15.375 -1.2330  0.2030 -2.4688
 9267TIP3    H249217   5.731   5.783  15.375 -0.0489 -0.9802  2.0002
 9268TIP3   OH249218   4.264   4.882  17.133 -0.4867  0.0928  0.1750
 9268TIP3    H149219   4.279   4.802  17.082 -1.6526  1.4071 -2.3946
 9268TIP3    H249220   4.245   4.850  17.221 -0.1293 -2.4187 -0.5572
 9269TIP3   OH249221   0.021   5.784  16.463  0.2291  0.0963 -0.3419
 9269TIP3    H149222   0.078   5.774  16.387 -0.3035  0.8547 -0.8526
 9269TIP3    H249223  -0.052   5.837  16.431 -0.8733 -1.0214  0.2343
 9270TIP3   OH249224   2.119   2.242   3.646 -0.1514 -0.3154  0.2961
 9270TIP3    H149225   2.131   2.197   3.729 -0.3895  0.1540  0.5833
 9270TIP3    H249226   2.116   2.171   3.581 -2.3503 -0.8798  0.9256
 9271TIP3   OH249227   4.606   1.633   4.192  0.3192  0.2228  0.4722
 9271TIP3    H149228   4.517   1.606   4.216 -0.6793  0.1847 -2.7978
 9271TIP3    H249229   4.615   1.720   4.230 -1.5579  0.6835 -0.0219
 9272TIP3   OH249230   2.794   0.662   4.890  0.3796 -0.3595 -0.3435
 9272TIP3    H149231   2.878   0.634   4.853  0.4482 -0.9176  0.2197
 9272TIP3    H249232   2.746   0.581   4.907 -0.4899 -0.0274 -1.1237
 9273TIP3   OH249233   6.165   6.628   2.675  0.3474 -0.1411 -0.0748
 9273TIP3    H149234   6.101   6.624   2.746 -1.4789 -0.8666 -1.6694
 9273TIP3    H249235   6.140   6.557   2.616  3.1186 -0.9241 -0.4332
 9274TIP3   OH249236   5.212   1.027   4.897 -0.0427  1.0889 -0.4327
 9274TIP3    H149237   5.183   1.028   4.989 -1.6857  0.3810 -0.8993
 9274TIP3    H249238   5.154   1.090   4.853  1.1152  1.8569 -0.9092
 9275TIP3   OH249239   0.860   2.074  16.983  0.3330  1.0227 -0.0802
 9275TIP3    H149240   0.940   2.092  17.032  0.2889  1.1056 -0.0403
 9275TIP3    H249241   0.879   1.991  16.938  0.1163  0.5821  0.6320
 9276TIP3   OH249242   1.559   5.680   0.675  0.8741  0.3258  0.7021
 9276TIP3    H149243   1.581   5.660   0.584  3.0936 -1.1658  1.4971
 9276TIP3    H249244   1.629   5.740   0.703 -0.6436  2.0279  1.0461
 9277TIP3   OH249245   5.117   4.705   4.857  0.0871  0.0710  0.6080
 9277TIP3    H149246   5.179   4.633   4.842  0.3914  0.6865 -1.4539
 9277TIP3    H249247   5.143   4.742   4.942  1.9829 -0.2622  0.2319
 9278TIP3   OH249248   5.268   3.110  13.188 -0.5580  0.0848 -0.1558
 9278TIP3    H149249   5.243   3.076  13.274 -1.7332  1.1363 -0.0457
 9278TIP3    H249250   5.356   3.143  13.201 -0.5428 -0.1906  0.5275
 9279TIP3   OH249251   1.433   3.618  11.803  0.6280  0.2924 -0.3630
 9279TIP3    H149252   1.514   3.646  11.845 -0.0360  1.2555  0.3225
 9279TIP3    H249253   1.377   3.696  11.805 -0.5250 -0.5196 -0.2844
 9280TIP3   OH249254   1.159   1.682  11.366  0.0453 -0.1688 -0.2259
 9280TIP3    H149255   1.095   1.641  11.307  0.8575 -0.8194 -0.6696
 9280TIP3    H249256   1.208   1.609  11.402  1.1565  0.3694 -0.5979
 9281TIP3   OH249257   3.210   1.711  11.106 -0.7219 -0.2122  0.1351
 9281TIP3    H149258   3.118   1.731  11.124 -0.4730 -0.3521  1.7036
 9281TIP3    H249259   3.229   1.757  11.024 -2.1377 -0.0509 -0.1295
 9282TIP3   OH249260   3.481   2.565  12.156 -0.0337  0.1221 -0.3660
 9282TIP3    H149261   3.437   2.623  12.094 -2.8578  1.2421  2.4030
 9282TIP3    H249262   3.446   2.478  12.138 -1.4163  0.5670  0.0936
 9283TIP3   OH249263   1.439   4.946  16.022 -0.4625  0.2327  0.0305
 9283TIP3    H149264   1.492   4.984  16.092  2.1719 -0.1336 -1.6189
 9283TIP3    H249265   1.427   5.017  15.960 -0.7000 -0.0594 -0.2597
 9284TIP3   OH249266   4.708   4.857  11.169  0.3147  0.1477 -0.3324
 9284TIP3    H149267   4.639   4.924  11.171 -0.8521 -1.0277  0.7353
 9284TIP3    H249268   4.713   4.831  11.077 -0.1191  0.8028 -0.5463
 9285TIP3   OH249269   5.180   2.370  12.033 -0.2313 -0.1475  0.5548
 9285TIP3    H149270   5.131   2.429  12.091  0.1480 -1.7838  2.6450
 9285TIP3    H249271   5.115   2.306  12.004 -0.1765  0.0296  0.0290
 9286TIP3   OH249272   6.009   3.571  15.235  0.0841  0.4418 -0.5167
 9286TIP3    H149273   6.072   3.635  15.201  0.9716  0.7007  1.4726
 9286TIP3    H249274   5.967   3.535  15.156  0.4514  2.5300 -1.7570
 9287TIP3   OH249275   0.036   3.276  16.514 -0.5393 -0.5913 -0.4791
 9287TIP3    H149276   0.120   3.271  16.559  1.1369 -1.2551 -3.4159
 9287TIP3    H249277  -0.021   3.323  16.575  2.0766  0.3371  1.4518
 9288TIP3   OH249278   3.579   5.998  16.875  0.1651  0.0916 -0.1091
 9288TIP3    H149279   3.578   5.923  16.815  1.2371 -0.1111  0.1108
 9288TIP3    H249280   3.595   6.074  16.819  0.8430 -0.0591 -0.1263
 9289TIP3   OH249281   4.981   0.268   6.225  0.5959  0.5753 -0.1315
 9289TIP3    H149282   5.009   0.176   6.222 -0.0409  0.2817  1.8619
 9289TIP3    H249283   4.887   0.264   6.239  0.4277  1.5530 -0.9224
 9290TIP3   OH249284   4.246   2.624  11.217 -0.1421  0.2280  0.5352
 9290TIP3    H149285   4.181   2.642  11.285  0.0459 -0.7399  0.9820
 9290TIP3    H249286   4.264   2.710  11.178 -1.7747  0.4933  0.3093
 9291TIP3   OH249287   3.735   2.933   1.131  0.2467  0.2876 -0.0833
 9291TIP3    H149288   3.816   2.974   1.160  0.6132 -0.4950  0.0283
 9291TIP3    H249289   3.681   3.005   1.100  0.4725  0.9705  1.0483
 9292TIP3   OH249290   3.625   5.519  11.698  0.4818  0.4088  0.1736
 9292TIP3    H149291   3.595   5.440  11.653  1.0044 -0.4582  1.3028
 9292TIP3    H249292   3.588   5.591  11.646 -0.5979 -0.5712 -0.4744
 9293TIP3   OH249293   5.363   4.418   1.026 -0.1831 -0.1172  0.2294
 9293TIP3    H149294   5.408   4.377   0.952  1.8851  0.9129  0.8493
 9293TIP3    H249295   5.395   4.370   1.102 -2.0395 -0.9445  0.5412
 9294TIP3   OH249296   1.554   1.614  16.113  1.0867  0.7711  0.3296
 9294TIP3    H149297   1.465   1.637  16.086 -0.2020 -1.2574  2.4010
 9294TIP3    H249298   1.570   1.528  16.073  1.1370  0.0646  1.7963
 9295TIP3   OH249299   0.378   4.529  16.741 -0.1736  0.3311  0.6941
 9295TIP3    H149300   0.387   4.624  16.746  0.0309  0.3714 -0.1663
 9295TIP3    H249301   0.445   4.503  16.678  0.4927 -0.5102  1.7168
 9296TIP3   OH249302   2.143   6.153   5.040  0.2845 -0.2670 -0.4060
 9296TIP3    H149303   2.196   6.077   5.018 -0.3195 -0.3138 -1.7776
 9296TIP3    H249304   2.086   6.123   5.111 -1.6596 -1.8943 -2.5155
 9297TIP3   OH249305   4.895   0.950  13.400 -0.1884 -0.5449 -0.1037
 9297TIP3    H149306   4.810   0.909  13.410 -0.5147  0.3336  0.8911
 9297TIP3    H249307   4.949   0.884  13.357 -0.4780 -2.3351  2.0728
 9298TIP3   OH249308   3.805   5.990  16.253 -0.3913 -0.6678 -0.0437
 9298TIP3    H149309   3.876   5.926  16.252  0.0533 -0.2036  0.8102
 9298TIP3    H249310   3.835   6.058  16.313 -1.2482 -0.1050 -0.2390
 9299TIP3   OH249311   4.098   3.546  12.228  0.2816 -0.2292  0.4804
 9299TIP3    H149312   4.156   3.583  12.161 -1.8397  3.4158  0.3591
 9299TIP3    H249313   4.056   3.472  12.186  0.9764  0.3276 -1.2830
 9300TIP3   OH249314   6.522   6.081  11.769  0.2707  0.2509 -0.7371
 9300TIP3    H149315   6.526   6.172  11.740  0.0830 -0.1210 -1.9535
 9300TIP3    H249316   6.477   6.086  11.854  1.8238  1.4665  0.0756
 9301TIP3   OH249317   0.069   5.495  15.638  0.1379 -0.3338  0.3243
 9301TIP3    H149318   0.039   5.405  15.630  2.9775 -1.2512 -1.9367
 9301TIP3    H249319   0.142   5.490  15.699 -0.6387  0.7714  1.3821
 9302TIP3   OH249320   1.074   2.865   5.691 -0.1808  0.3428  0.7637
 9302TIP3    H149321   1.074   2.859   5.786 -0.9492  1.4160  0.8472
 9302TIP3    H249322   1.049   2.955   5.672  0.8305  0.4003 -0.4490
 9303TIP3   OH249323   5.086   0.341   3.631  0.1130  0.1984 -0.3236
 9303TIP3    H149324   5.136   0.381   3.702 -0.4127 -1.3871  1.0086
 9303TIP3    H249325   5.065   0.414   3.572  1.8708  1.2979  0.3329
 9304TIP3   OH249326   4.342   1.455   5.033 -0.1090 -0.3479 -0.0310
 9304TIP3    H149327   4.362   1.516   5.104 -4.1205 -1.4686  2.4171
 9304TIP3    H249328   4.265   1.492   4.990  0.0235 -1.5369 -1.3688
 9305TIP3   OH249329   0.514   4.406  15.345  0.1166  0.1382 -0.5636
 9305TIP3    H149330   0.561   4.489  15.342 -0.7719  0.7766  1.6891
 9305TIP3    H249331   0.492   4.388  15.253 -0.7373  3.0033 -1.0056
 9306TIP3   OH249332   3.052   6.477  15.765  0.3845 -0.0008 -0.2058
 9306TIP3    H149333   3.108   6.492  15.688 -2.3448  2.9549 -1.8139
 9306TIP3    H249334   3.011   6.392  15.747  1.0857 -0.1778 -1.1218
 9307TIP3   OH249335   5.640   4.147  16.358 -0.0195  0.4086 -0.5410
 9307TIP3    H149336   5.687   4.064  16.370  1.0446  0.8448 -1.5625
 9307TIP3    H249337   5.616   4.173  16.447  0.0105 -0.7756 -0.1680
 9308TIP3   OH249338   4.423   2.985   3.616 -0.6348  0.4082  0.2493
 9308TIP3    H149339   4.467   3.019   3.693 -0.2762  1.2378 -0.3113
 9308TIP3    H249340   4.433   2.890   3.622  1.9886  0.5890 -0.2925
 9309TIP3   OH249341   4.327   3.279   0.063  0.3890  0.2244 -0.6012
 9309TIP3    H149342   4.276   3.346   0.018 -0.6458 -0.3705 -0.3381
 9309TIP3    H249343   4.334   3.310   0.153 -0.1834 -0.0720 -0.4536
 9310TIP3   OH249344   0.719   6.641  15.115 -0.0668  0.2381 -0.0706
 9310TIP3    H149345   0.733   6.697  15.038  1.6020 -1.1482 -0.8558
 9310TIP3    H249346   0.679   6.562  15.080 -0.9043  0.2593  0.7847
 9311TIP3   OH249347   0.162   2.325  10.720  0.1179 -0.4592  0.6826
 9311TIP3    H149348   0.239   2.381  10.720 -1.1364  1.3726  1.2569
 9311TIP3    H249349   0.149   2.303  10.813 -2.5158  3.0177  1.3425
 9312TIP3   OH249350   1.479   2.290   3.441  0.2174  0.1626 -0.3865
 9312TIP3    H149351   1.565   2.331   3.438 -0.3185  1.4673  0.7457
 9312TIP3    H249352   1.497   2.196   3.441  1.8629  0.3382  2.9470
 9313TIP3   OH249353   0.551   4.367   2.281 -0.1844  0.1908  0.1618
 9313TIP3    H149354   0.490   4.295   2.301  1.4132 -1.4439 -0.5072
 9313TIP3    H249355   0.496   4.437   2.248 -1.6822 -1.3684 -0.8158
 9314TIP3   OH249356   5.005   4.585   5.586 -0.5041 -0.1724  0.6351
 9314TIP3    H149357   4.929   4.626   5.543 -0.0525  0.8680  0.7881
 9314TIP3    H249358   5.053   4.659   5.623  1.5953 -0.5979 -1.0606
 9315TIP3   OH249359   2.884   4.026   2.017  0.5521  0.8398  0.0232
 9315TIP3    H149360   2.972   3.989   2.010  0.1598  0.0737 -1.0599
 9315TIP3    H249361   2.827   3.957   1.984 -0.6392  0.6277  2.3752
 9316TIP3   OH249362   2.689   2.066   0.443 -0.5273  0.1481 -0.3197
 9316TIP3    H149363   2.781   2.040   0.434 -0.3373  1.0363 -1.1572
 9316TIP3    H249364   2.688   2.131   0.513 -0.6071 -0.2333  0.0389
 9317TIP3   OH249365   1.648   6.234   1.436  0.2249 -0.0117 -0.7129
 9317TIP3    H149366   1.673   6.245   1.527 -0.9756  2.1493 -0.5825
 9317TIP3    H249367   1.723   6.266   1.386 -0.4460  2.2376 -0.3850
 9318TIP3   OH249368   1.135   5.948  15.672 -0.3527  0.6037  0.6576
 9318TIP3    H149369   1.124   5.979  15.762 -2.0302 -0.4036  0.8474
 9318TIP3    H249370   1.106   5.857  15.675  0.8705  0.1548 -0.6427
 9319TIP3   OH249371   3.100   1.545   0.367 -0.6316 -0.3177 -0.7296
 9319TIP3    H149372   3.117   1.454   0.392 -1.5109 -0.0419  0.9200
 9319TIP3    H249373   3.005   1.553   0.365 -0.6321 -0.0321 -3.2565
 9320TIP3   OH249374   6.618   4.158   1.653 -0.7887  0.3780  0.4290
 9320TIP3    H149375   6.701   4.132   1.612  0.0815 -0.5959  2.6518
 9320TIP3    H249376   6.552   4.145   1.585  0.5323 -1.4981 -0.5761
 9321TIP3   OH249377   4.124   2.696  10.551  0.3855 -0.4207  0.3023
 9321TIP3    H149378   4.167   2.611  10.545  0.5755 -0.3231  0.2827
 9321TIP3    H249379   4.176   2.754  10.496  1.6064  0.2606  2.0865
 9322TIP3   OH249380   6.048   3.887  12.424  0.2470 -0.0548 -0.2936
 9322TIP3    H149381   6.035   3.952  12.356  0.4732 -1.5276 -1.8040
 9322TIP3    H249382   6.125   3.918  12.473  1.1325  0.1687 -1.7837
 9323TIP3   OH249383   1.071   1.814  15.071  0.4181 -0.7488 -0.0598
 9323TIP3    H149384   1.068   1.768  14.987 -2.0320 -2.0287  0.6308
 9323TIP3    H249385   1.107   1.751  15.132  1.6155 -0.0228  0.0294
 9324TIP3   OH249386   1.072   3.393   1.971  0.1548  0.2580 -0.2161
 9324TIP3    H149387   1.077   3.369   1.879  1.9646  1.1893 -0.3947
 9324TIP3    H249388   1.162   3.413   1.996 -0.2399 -0.3958  1.8823
 9325TIP3   OH249389   5.132   3.363  17.145  0.6864  0.5441  0.5663
 9325TIP3    H149390   5.106   3.270  17.141 -0.1888  0.7715  0.6723
 9325TIP3    H249391   5.189   3.368  17.222 -0.4518  0.3487  1.4646
 9326TIP3   OH249392   4.091   5.468   1.641 -0.3416 -0.0107 -0.0523
 9326TIP3    H149393   4.083   5.561   1.623  0.4552  0.1510  0.3855
 9326TIP3    H249394   4.004   5.442   1.671 -0.5477  0.6057 -0.1013
 9327TIP3   OH249395   1.178   2.617   4.528  0.1847 -0.2511  0.6804
 9327TIP3    H149396   1.130   2.578   4.455  0.0615  0.3115  0.4547
 9327TIP3    H249397   1.122   2.689   4.558  0.1430 -0.5926  1.4579
 9328TIP3   OH249398   2.443   3.226  14.499 -0.0679  0.3654  0.5509
 9328TIP3    H149399   2.461   3.135  14.520 -0.5273  0.2238  0.3509
 9328TIP3    H249400   2.375   3.222  14.432  0.8105  0.8295 -0.3886
 9329TIP3   OH249401   6.174   2.128   1.174  0.7222  0.1720 -0.0308
 9329TIP3    H149402   6.141   2.118   1.085  0.3905 -0.0232  0.1144
 9329TIP3    H249403   6.179   2.038   1.208 -2.5727  0.3743  1.3947
 9330TIP3   OH249404   3.146   3.143   1.821  0.0727 -0.2234 -0.5081
 9330TIP3    H149405   3.138   3.143   1.916 -0.8681  1.2694 -0.5519
 9330TIP3    H249406   3.237   3.167   1.804  0.3069 -0.7450  0.0171
 9331TIP3   OH249407   5.581   3.341   2.164 -0.1851 -0.4677 -0.0851
 9331TIP3    H149408   5.496   3.385   2.170 -0.8471 -1.7352  0.0729
 9331TIP3    H249409   5.644   3.413   2.165 -1.2537  0.5262 -0.5532
 9332TIP3   OH249410   6.718   4.506   3.676 -0.9282 -0.4028 -0.4762
 9332TIP3    H149411   6.677   4.421   3.659 -1.4058 -0.3064  0.1430
 9332TIP3    H249412   6.674   4.538   3.754 -0.3819  0.1809 -0.4013
 9333TIP3   OH249413   1.353   1.388  13.565 -0.9954 -0.5728 -0.2511
 9333TIP3    H149414   1.301   1.393  13.645 -0.8755 -0.3640 -0.1869
 9333TIP3    H249415   1.373   1.295  13.556 -2.4861 -0.8581 -0.9848
 9334TIP3   OH249416   6.607   0.845  14.185  0.2099 -0.0617 -0.1780
 9334TIP3    H149417   6.516   0.874  14.194 -0.0833 -1.3034  1.3306
 9334TIP3    H249418   6.659   0.924  14.194 -0.6002  0.2707  2.6094
 9335TIP3   OH249419   3.801   0.453   3.764  0.0057 -0.3498  0.4351
 9335TIP3    H149420   3.873   0.395   3.791 -0.2010 -0.6154  0.4230
 9335TIP3    H249421   3.731   0.436   3.827  0.0508  0.1147  0.6153
 9336TIP3   OH249422   6.211   0.051   4.032 -0.5242 -0.0440 -0.0310
 9336TIP3    H149423   6.263  -0.029   4.030  3.4242  2.1892  1.0210
 9336TIP3    H249424   6.222   0.089   3.945  0.0586  0.6929  0.3567
 9337TIP3   OH249425   4.498   0.020  17.276 -0.0671 -0.1284  0.4479
 9337TIP3    H149426   4.557   0.095  17.270  0.3669 -0.3330  1.8477
 9337TIP3    H249427   4.509  -0.026  17.193  0.5788  0.6846  0.0669
 9338TIP3   OH249428   2.513   5.383   0.845  0.2297  0.0582  0.0954
 9338TIP3    H149429   2.584   5.447   0.851  0.4027 -0.2489  1.5248
 9338TIP3    H249430   2.437   5.428   0.883 -0.0012 -0.1082 -0.1612
 9339TIP3   OH249431   3.765   5.260  16.308  0.3568 -0.1961  0.2232
 9339TIP3    H149432   3.712   5.181  16.295  0.1773 -0.0160 -0.1445
 9339TIP3    H249433   3.855   5.228  16.307  0.2577 -0.5357  1.0866
 9340TIP3   OH249434   1.031   0.820  15.803  0.3040  0.4313 -0.5493
 9340TIP3    H149435   1.021   0.767  15.882  0.5827  0.0094 -0.7936
 9340TIP3    H249436   0.970   0.781  15.740 -0.0928  0.9133 -0.4707
 9341TIP3   OH249437   6.015   1.464  13.517  0.2235 -0.2100 -0.2256
 9341TIP3    H149438   5.954   1.414  13.462 -0.7617 -1.8555  2.2126
 9341TIP3    H249439   6.101   1.450  13.477 -0.3396 -2.0273 -0.8851
 9342TIP3   OH249440   0.240   0.455  10.133  0.0609  0.6621 -0.2931
 9342TIP3    H149441   0.324   0.428  10.170 -0.0008  1.0067  0.1085
 9342TIP3    H249442   0.201   0.374  10.099  0.7346  0.5705 -0.8473
 9343TIP3   OH249443   6.586   3.722  17.114 -0.8226 -0.1032  0.2692
 9343TIP3    H149444   6.585   3.654  17.182 -1.6422 -0.2926  0.0802
 9343TIP3    H249445   6.494   3.745  17.102 -0.5538  1.1589  0.4361
 9344TIP3   OH249446   2.059   5.438  17.280 -0.0861 -0.4287  0.0034
 9344TIP3    H149447   1.996   5.507  17.263 -0.1725 -0.6304 -0.5235
 9344TIP3    H249448   2.043   5.373  17.212  1.1249 -0.1735 -0.5631
 9345TIP3   OH249449   0.048   6.211   5.486 -0.6308  0.0801  0.4596
 9345TIP3    H149450   0.044   6.153   5.410  1.0798  0.4378  0.0562
 9345TIP3    H249451   0.032   6.154   5.561  2.8154 -1.4220  0.2590
 9346TIP3   OH249452   0.189   1.387   0.221  0.1805  0.3572 -0.0382
 9346TIP3    H149453   0.123   1.377   0.290  0.9273 -0.8118  0.5589
 9346TIP3    H249454   0.169   1.318   0.158  1.5026 -0.8256  0.7637
 9347TIP3   OH249455   1.197   3.834  13.439  0.2710 -0.2887  0.0646
 9347TIP3    H149456   1.102   3.826  13.441  0.3595 -1.4367  0.1931
 9347TIP3    H249457   1.224   3.824  13.530  0.5200 -0.0025  0.0231
 9348TIP3   OH249458   0.337   5.776  11.355  0.1294  0.4159  0.6074
 9348TIP3    H149459   0.352   5.849  11.294  1.0831  0.0243  0.3432
 9348TIP3    H249460   0.406   5.785  11.420 -0.1517  0.1345  0.9459
 9349TIP3   OH249461   3.192   1.200  16.204  0.2037  0.0813  0.3999
 9349TIP3    H149462   3.112   1.242  16.234 -0.3791 -0.9346  0.3283
 9349TIP3    H249463   3.244   1.271  16.167 -0.1239  0.9639  1.5480
 9350TIP3   OH249464   1.107   6.452   4.983 -0.3283 -0.3317  0.0171
 9350TIP3    H149465   1.118   6.367   5.026  0.0478 -1.6341 -2.4942
 9350TIP3    H249466   1.190   6.497   4.997 -0.8053  0.0133  2.0494
 9351TIP3   OH249467   4.532   0.875  14.503 -0.2878  0.0089  0.0671
 9351TIP3    H149468   4.573   0.940  14.560 -0.7791  0.3977 -0.0155
 9351TIP3    H249469   4.599   0.807  14.492  0.7498  1.1302 -0.9313
 9352TIP3   OH249470   1.023   2.415  16.686 -0.7485  0.1993 -0.0269
 9352TIP3    H149471   1.069   2.415  16.602 -0.3496 -1.0907  0.1729
 9352TIP3    H249472   0.949   2.473  16.672  0.4519  1.6602 -0.6187
 9353TIP3   OH249473   3.270   0.181   0.742 -0.1459 -0.0126  0.1469
 9353TIP3    H149474   3.179   0.156   0.759  0.1706 -1.7524 -0.5341
 9353TIP3    H249475   3.269   0.215   0.652 -0.0086 -0.7196 -0.1266
 9354TIP3   OH249476   0.995   0.752   4.600 -0.1983  0.2493 -0.1428
 9354TIP3    H149477   0.956   0.667   4.616 -0.9591  0.7246  0.6211
 9354TIP3    H249478   0.922   0.809   4.577  0.3209  0.6615 -0.8304
 9355TIP3   OH249479   3.564   1.673   2.123 -0.4204  0.3471 -0.1619
 9355TIP3    H149480   3.514   1.748   2.093  0.0999  0.4643 -0.7553
 9355TIP3    H249481   3.591   1.628   2.043  1.7783  1.1904  0.0394
 9356TIP3   OH249482   2.843   1.611  16.342 -0.4578  0.1898 -0.1639
 9356TIP3    H149483   2.817   1.554  16.414  0.2038 -0.5546 -0.4988
 9356TIP3    H249484   2.787   1.688  16.351 -0.7264 -0.1057  0.8483
 9357TIP3   OH249485   5.927   1.971   0.522 -0.0171 -0.6405  0.0031
 9357TIP3    H149486   5.929   1.885   0.563  2.8686 -0.7420 -0.1364
 9357TIP3    H249487   5.871   2.024   0.578 -1.0300 -2.3422  0.6390
 9358TIP3   OH249488   1.697   3.001  13.623  0.1882  0.3966 -0.2060
 9358TIP3    H149489   1.772   2.978  13.567  0.0702  2.0353 -1.1068
 9358TIP3    H249490   1.673   2.919  13.666  0.5097 -0.8711 -2.3081
 9359TIP3   OH249491   5.687   6.750  12.948  0.0249  0.5981  0.0885
 9359TIP3    H149492   5.639   6.713  12.874  0.8603  0.5538 -0.4405
 9359TIP3    H249493   5.662   6.696  13.023 -0.4075  0.3089 -0.2665
 9360TIP3   OH249494   3.748   1.125   4.921 -0.3149 -0.1705  0.1303
 9360TIP3    H149495   3.683   1.141   4.989  0.8216  0.5016  1.0879
 9360TIP3    H249496   3.742   1.031   4.903 -1.8472 -0.0439 -0.1437
 9361TIP3   OH249497   6.408   5.460  12.914 -0.2506  0.2251  0.7317
 9361TIP3    H149498   6.488   5.484  12.961  1.2881 -2.0633 -0.5301
 9361TIP3    H249499   6.346   5.530  12.936  2.1146  2.2242  1.6025
 9362TIP3   OH249500   0.473   5.971   2.295  0.3647  0.0942 -0.0322
 9362TIP3    H149501   0.435   5.937   2.214  1.1116 -1.2271  0.1403
 9362TIP3    H249502   0.466   5.899   2.357 -1.1737  1.4394  1.4361
 9363TIP3   OH249503   5.453   3.964   2.650  0.8431  0.3857  0.7219
 9363TIP3    H149504   5.543   3.987   2.670  1.5849  0.2951 -2.1836
 9363TIP3    H249505   5.416   4.042   2.609  1.1107 -0.9754 -2.3755
 9364TIP3   OH249506   5.218   0.651   4.313 -0.1378  0.5922 -0.2397
 9364TIP3    H149507   5.157   0.578   4.314  1.7288 -1.1029  1.9323
 9364TIP3    H249508   5.165   0.728   4.334 -1.6035 -0.7524  1.2136
 9365TIP3   OH249509   2.795   5.702  14.671  0.5730 -0.0079  0.1929
 9365TIP3    H149510   2.882   5.667  14.690  0.3181 -0.1297  1.2196
 9365TIP3    H249511   2.756   5.639  14.611  1.3278  0.2539 -0.6006
 9366TIP3   OH249512   6.574   0.124  11.384  0.5105  0.6313  0.3680
 9366TIP3    H149513   6.601   0.158  11.469  2.0910  0.5942 -0.0882
 9366TIP3    H249514   6.550   0.203  11.334  1.2178  0.8052  0.3007
 9367TIP3   OH249515   6.455   0.603  15.131  0.1850  0.3546 -0.1310
 9367TIP3    H149516   6.526   0.539  15.135  0.6797  0.8509 -0.6945
 9367TIP3    H249517   6.435   0.624  15.223  0.4547 -0.1278  0.0371
 9368TIP3   OH249518   3.441   0.538  13.753  0.3280  0.4104 -0.2938
 9368TIP3    H149519   3.507   0.589  13.706  0.2650  0.7556 -0.0122
 9368TIP3    H249520   3.382   0.603  13.790  0.7838  0.1792  0.8782
 9369TIP3   OH249521   1.107   1.410  11.893  0.0787 -0.0255 -0.6256
 9369TIP3    H149522   1.134   1.494  11.928 -1.1017 -0.4659  1.5630
 9369TIP3    H249523   1.082   1.428  11.803 -1.4781  2.2957  0.1698
 9370TIP3   OH249524   2.235   6.126  13.960  0.4462 -0.0038  0.2303
 9370TIP3    H149525   2.285   6.104  14.038 -0.4091  0.3140  0.8797
 9370TIP3    H249526   2.287   6.193  13.916 -0.0924  1.4385  1.6824
 9371TIP3   OH249527   3.115   2.259  11.447 -0.5091 -0.3660 -0.2159
 9371TIP3    H149528   3.041   2.245  11.388  1.4233  0.5419 -3.1157
 9371TIP3    H249529   3.183   2.201  11.413  1.2804  1.5582 -0.1009
 9372TIP3   OH249530   3.142   5.048   1.086 -0.1068  0.3494 -0.4045
 9372TIP3    H149531   3.166   5.104   1.159 -0.6131 -0.5373  0.4670
 9372TIP3    H249532   3.059   5.084   1.054 -0.4685  0.0832  0.1994
 9373TIP3   OH249533   5.629   4.771   1.932  0.3769  0.7917  0.4066
 9373TIP3    H149534   5.572   4.723   1.992 -0.9714 -2.8673 -3.2822
 9373TIP3    H249535   5.570   4.826   1.881  0.2826 -1.1842 -1.8110
 9374TIP3   OH249536   4.226   6.462  14.115  0.0143  0.2461 -0.5389
 9374TIP3    H149537   4.300   6.467  14.176  0.2666 -0.5772 -0.7616
 9374TIP3    H249538   4.253   6.514  14.040  0.6984 -0.6481 -0.9360
 9375TIP3   OH249539   2.540   4.468   3.459  0.3323  0.4119  0.6295
 9375TIP3    H149540   2.466   4.446   3.515 -1.8986 -2.6308 -2.9812
 9375TIP3    H249541   2.596   4.391   3.462  1.4097  1.1703  0.4576
 9376TIP3   OH249542   5.748   5.632   1.616  0.5510 -0.3826 -0.5563
 9376TIP3    H149543   5.689   5.556   1.613  2.6107 -2.0965 -0.4415
 9376TIP3    H249544   5.815   5.607   1.680  0.4180  2.2624  0.7107
 9377TIP3   OH249545   0.887   2.163  10.977 -0.3643 -0.2281 -0.2916
 9377TIP3    H149546   0.938   2.167  10.896  1.6735  0.5567  0.9435
 9377TIP3    H249547   0.819   2.230  10.966  1.0687  1.2344 -0.6487
 9378TIP3   OH249548   5.115   3.557   5.379  0.3437  0.2534 -0.6890
 9378TIP3    H149549   5.185   3.591   5.323 -0.7641  1.5097 -1.3470
 9378TIP3    H249550   5.048   3.624   5.378 -0.9891 -1.0228 -0.2419
 9379TIP3   OH249551   2.999   4.296   2.440 -0.4477 -0.2667  0.2087
 9379TIP3    H149552   3.064   4.338   2.496 -0.7259 -1.0784  1.1567
 9379TIP3    H249553   3.012   4.337   2.354 -1.8132  2.9505  1.4174
 9380TIP3   OH249554   1.895   0.349   2.833  0.1285  0.2283  0.1305
 9380TIP3    H149555   1.849   0.410   2.891  0.5047  0.4759  0.1745
 9380TIP3    H249556   1.890   0.264   2.878  0.8517  0.5154  0.7846
 9381TIP3   OH249557   5.392   0.032  14.841  0.0456 -0.0678  0.6984
 9381TIP3    H149558   5.374   0.046  14.749  3.1698  0.5658  0.0576
 9381TIP3    H249559   5.375  -0.062  14.855 -0.4962 -0.1636 -0.5008
 9382TIP3   OH249560   5.395   0.809  13.288  0.0385 -0.2881 -0.6881
 9382TIP3    H149561   5.441   0.849  13.362 -0.8529  0.3958 -0.4881
 9382TIP3    H249562   5.422   0.861  13.212  0.6560 -0.7521 -0.7961
 9383TIP3   OH249563   0.741   2.514  17.266  0.7796 -0.2908 -0.1391
 9383TIP3    H149564   0.724   2.552  17.352  1.6384  0.0326 -0.1050
 9383TIP3    H249565   0.654   2.502  17.227  0.4059 -0.1283  0.6356
 9384TIP3   OH249566   5.532   1.444  11.466  0.0106  0.7110  0.5272
 9384TIP3    H149567   5.561   1.403  11.385  0.1746  1.0678  0.4046
 9384TIP3    H249568   5.440   1.466  11.451 -0.6730 -1.3203  1.2637
 9385TIP3   OH249569   1.435   5.719   2.759 -0.2379 -0.0773  1.1126
 9385TIP3    H149570   1.433   5.814   2.771  1.0591  0.2333 -0.6846
 9385TIP3    H249571   1.352   5.698   2.717  0.8499  0.8630 -1.7480
 9386TIP3   OH249572   5.740   6.530  17.066 -0.0787 -0.5397  0.1141
 9386TIP3    H149573   5.745   6.593  17.138  1.5274 -0.4556 -0.0260
 9386TIP3    H249574   5.705   6.581  16.993  0.7464  0.0813  0.1361
 9387TIP3   OH249575   5.531   1.233  16.005 -0.0780  0.8164 -0.3909
 9387TIP3    H149576   5.453   1.288  15.993 -0.3247  0.2358 -1.5450
 9387TIP3    H249577   5.508   1.150  15.964  0.4924  0.0113  0.8582
 9388TIP3   OH249578   1.925   6.385   3.617 -0.6898 -0.9274 -0.3931
 9388TIP3    H149579   1.995   6.420   3.562 -1.3747  0.9875 -0.1585
 9388TIP3    H249580   1.885   6.316   3.564 -0.1596 -0.3812 -1.5510
 9389TIP3   OH249581   1.409   3.470  14.066 -0.7053 -0.0944  0.4058
 9389TIP3    H149582   1.473   3.462  13.996  0.0094  1.3720  0.8431
 9389TIP3    H249583   1.456   3.443  14.145 -0.8799  0.1822  0.6080
 9390TIP3   OH249584   4.393   2.174   6.380  0.7125  0.5806  0.0034
 9390TIP3    H149585   4.488   2.166   6.389  0.4057 -2.1074  2.2635
 9390TIP3    H249586   4.370   2.112   6.310  0.5002 -0.1578  0.7110
 9391TIP3   OH249587   1.129   3.765  13.719  0.0330  0.2555 -0.0028
 9391TIP3    H149588   1.047   3.718  13.705  0.9625 -1.9773  1.4407
 9391TIP3    H249589   1.102   3.855  13.738 -2.0101 -0.2228 -0.3893
 9392TIP3   OH249590   0.424   3.474  13.176 -0.0056  1.1284  0.1279
 9392TIP3    H149591   0.370   3.545  13.211  0.5292  2.4204 -1.4894
 9392TIP3    H249592   0.385   3.394  13.211 -1.4995  2.1430  0.9047
 9393TIP3   OH249593   2.378   1.954   5.237 -0.2810  0.7191  0.6006
 9393TIP3    H149594   2.373   1.962   5.332 -2.7049  0.6441  0.5425
 9393TIP3    H249595   2.349   2.039   5.204 -1.4076  0.1259 -0.0250
 9394TIP3   OH249596   2.258   5.128   0.257  0.3669  0.2575 -0.2692
 9394TIP3    H149597   2.281   5.218   0.280 -0.9541  0.5197  0.1258
 9394TIP3    H249598   2.323   5.102   0.192  1.9246  0.8292  0.9960
 9395TIP3   OH249599   1.695   1.837   4.566 -0.1717  0.0278  0.0429
 9395TIP3    H149600   1.647   1.909   4.524  0.1448 -0.2493 -0.8193
 9395TIP3    H249601   1.672   1.844   4.658 -1.1763  0.4408 -0.2175
 9396TIP3   OH249602   5.608   1.594   3.333 -0.1243 -0.0429 -0.0735
 9396TIP3    H149603   5.642   1.514   3.374 -0.6450 -0.1727  0.1040
 9396TIP3    H249604   5.648   1.665   3.383 -1.3611 -0.1931  1.2006
 9397TIP3   OH249605   4.901   4.117  13.086 -0.1422  0.2819  0.3581
 9397TIP3    H149606   4.847   4.082  13.015  0.2882  1.0640 -0.3699
 9397TIP3    H249607   4.841   4.171  13.137 -0.2362  0.4777  0.0395
 9398TIP3   OH249608   5.567   1.694   1.642 -0.2850 -0.4510 -0.9417
 9398TIP3    H149609   5.565   1.628   1.711 -0.7578  1.6355  1.1998
 9398TIP3    H249610   5.480   1.690   1.603 -1.9763  1.6992  2.1830
 9399TIP3   OH249611   3.144   0.854   1.594 -0.0788 -0.3602 -0.1375
 9399TIP3    H149612   3.223   0.892   1.556  0.3082  0.0516  1.0339
 9399TIP3    H249613   3.083   0.928   1.599 -0.2504 -0.4924 -0.2908
 9400TIP3   OH249614   2.911   3.769   4.696  0.3717 -0.1710  0.0961
 9400TIP3    H149615   2.901   3.864   4.698 -0.0872 -0.2204  0.7367
 9400TIP3    H249616   2.873   3.742   4.613 -0.7776  0.0830  0.5196
 9401TIP3   OH249617   1.941   1.643   3.779  0.5344  0.2274  0.0393
 9401TIP3    H149618   1.913   1.649   3.688  1.1731 -1.1677 -0.2761
 9401TIP3    H249619   2.034   1.665   3.777  0.6715 -0.3213  0.2700
 9402TIP3   OH249620   2.705   4.243  10.949  0.3110  0.1775  0.4690
 9402TIP3    H149621   2.793   4.280  10.949 -0.1526  1.3737 -0.8019
 9402TIP3    H249622   2.701   4.190  10.869 -0.7350  1.7850 -0.6002
 9403TIP3   OH249623   3.096   3.822  13.555  0.1169 -0.3128 -0.2378
 9403TIP3    H149624   3.122   3.784  13.471 -2.7466 -0.9342 -0.9565
 9403TIP3    H249625   3.004   3.848  13.542 -0.2078  0.2044  2.5019
 9404TIP3   OH249626   5.298   3.148   1.445 -0.4461  0.2881  0.4340
 9404TIP3    H149627   5.220   3.092   1.442 -1.6053  1.8609 -0.1228
 9404TIP3    H249628   5.274   3.218   1.506  0.1685  1.2922 -0.4529
 9405TIP3   OH249629   5.943   1.797  10.949  0.0854  0.2273 -0.8342
 9405TIP3    H149630   5.941   1.889  10.923 -0.2368  0.7309  0.7986
 9405TIP3    H249631   5.922   1.748  10.870 -0.4958  1.6036 -1.5567
 9406TIP3   OH249632   3.913   4.947  13.913 -0.4548  0.4173 -0.1919
 9406TIP3    H149633   3.845   4.971  13.849 -0.9683  0.2038  0.2707
 9406TIP3    H249634   3.916   5.022  13.973  1.1388  1.3369 -1.3529
 9407TIP3   OH249635   5.503   3.680   2.216 -0.3686 -0.5863 -0.1850
 9407TIP3    H149636   5.442   3.624   2.167 -1.2392  0.3271 -0.1809
 9407TIP3    H249637   5.451   3.716   2.287  0.2650 -0.0360  0.0124
 9408TIP3   OH249638   1.225   1.030  11.570  0.5037 -0.2039  0.2012
 9408TIP3    H149639   1.258   1.087  11.639 -0.0889  0.2990  0.0733
 9408TIP3    H249640   1.297   1.025  11.507  1.3662 -1.3208  1.2154
 9409TIP3   OH249641   0.992   4.755   2.937  0.3769 -0.4635 -0.3728
 9409TIP3    H149642   1.042   4.701   2.998  2.0036  0.5375 -0.7366
 9409TIP3    H249643   1.030   4.734   2.851  2.5697  2.6422 -0.3360
 9410TIP3   OH249644   4.116   2.120  15.833 -0.7422  0.4171  0.3516
 9410TIP3    H149645   4.142   2.029  15.822  1.3381  0.8295  1.3396
 9410TIP3    H249646   4.136   2.161  15.749 -1.1289  0.0878  0.0976
 9411TIP3   OH249647   0.684   1.942  15.260 -0.1228  0.3582 -0.2312
 9411TIP3    H149648   0.602   1.938  15.309  0.1845  0.3327  0.2907
 9411TIP3    H249649   0.752   1.949  15.327  0.1943  2.3892 -0.6767
 9412TIP3   OH249650   0.696   4.177  14.720  0.4852  0.4824 -0.8952
 9412TIP3    H149651   0.764   4.177  14.652  0.8942  1.0502 -0.4999
 9412TIP3    H249652   0.627   4.121  14.685  1.0852  0.0344 -1.3809
 9413TIP3   OH249653   3.764   6.334  12.998  0.3089 -0.0539  0.2734
 9413TIP3    H149654   3.832   6.269  12.979 -0.2442  0.0097 -2.3183
 9413TIP3    H249655   3.710   6.293  13.066  0.8385 -1.6762 -0.2402
 9414TIP3   OH249656   0.280   6.337  13.959 -0.4788 -0.0984  0.1501
 9414TIP3    H149657   0.365   6.375  13.936 -0.6981  0.5222  0.3469
 9414TIP3    H249658   0.217   6.407  13.942 -1.0930 -0.9225 -1.1028
 9415TIP3   OH249659   5.563   3.794   0.983 -0.7776 -0.5051  0.0616
 9415TIP3    H149660   5.644   3.834   0.949 -1.1268 -0.5602 -0.8587
 9415TIP3    H249661   5.547   3.719   0.926 -1.2910 -0.7086  0.4639
 9416TIP3   OH249662   1.716   5.856   1.212  0.1535 -0.1368 -0.3349
 9416TIP3    H149663   1.770   5.862   1.134 -0.4203  2.1784 -0.6459
 9416TIP3    H249664   1.640   5.911   1.193 -0.4154 -0.2042  1.5099
 9417TIP3   OH249665   2.555   2.557   5.236  0.5603  0.2610 -0.2572
 9417TIP3    H149666   2.630   2.605   5.270  1.3224 -0.0266 -1.4855
 9417TIP3    H249667   2.589   2.469   5.217 -0.6600 -0.6089  1.3660
 9418TIP3   OH249668   1.861   0.818   0.696 -0.1587 -0.4707 -0.2688
 9418TIP3    H149669   1.860   0.847   0.604  0.2228  0.7537  0.0963
 9418TIP3    H249670   1.840   0.897   0.746  3.3538 -0.0924  0.9152
 9419TIP3   OH249671   4.002   2.590  13.434 -0.4492 -0.1173  0.8205
 9419TIP3    H149672   4.068   2.631  13.378 -1.4753 -0.0275 -0.3604
 9419TIP3    H249673   4.052   2.556  13.509  0.7850  0.8267  0.4567
 9420TIP3   OH249674   3.336   1.527   1.999  0.0979 -0.2300  0.4384
 9420TIP3    H149675   3.306   1.475   2.073 -0.4117 -0.1834  0.2672
 9420TIP3    H249676   3.421   1.488   1.975 -0.2523 -0.9531  0.3455
 9421TIP3   OH249677   0.254   2.786   4.674  0.5115 -0.3036  0.2263
 9421TIP3    H149678   0.340   2.744   4.681 -0.3169 -1.9356  1.3659
 9421TIP3    H249679   0.216   2.750   4.594 -0.7400 -2.9953  1.8806
 9422TIP3   OH249680   5.338   3.835   2.384  0.2039 -0.2664  0.2814
 9422TIP3    H149681   5.353   3.925   2.354 -0.8446 -0.1547  0.0622
 9422TIP3    H249682   5.243   3.827   2.390  0.3150 -0.9751  1.4990
 9423TIP3   OH249683   5.836   0.600   1.762  0.2524 -0.1789 -0.0974
 9423TIP3    H149684   5.829   0.650   1.680  0.8313  0.9481  0.5158
 9423TIP3    H249685   5.746   0.575   1.783  0.0876 -0.4396 -1.0347
 9424TIP3   OH249686   4.435   1.021   2.320  0.1374  0.1212  0.3026
 9424TIP3    H149687   4.393   1.067   2.393 -1.2796  0.3271 -0.6165
 9424TIP3    H249688   4.525   1.053   2.321 -0.3350  1.5153  0.8326
 9425TIP3   OH249689   4.968   3.534   2.911 -0.2197  0.1312  0.0878
 9425TIP3    H149690   4.926   3.450   2.931  0.7033  0.1960  2.5860
 9425TIP3    H249691   5.045   3.510   2.859 -1.0457 -0.3642 -0.9384
 9426TIP3   OH249692   5.779   0.228  16.291 -0.2982  0.4725 -0.2357
 9426TIP3    H149693   5.871   0.204  16.299  0.6190  3.8576  1.1937
 9426TIP3    H249694   5.738   0.190  16.368 -0.0106 -0.5241 -0.5522
 9427TIP3   OH249695   0.245   5.114  13.533  0.6491 -0.0082 -0.3242
 9427TIP3    H149696   0.271   5.111  13.441 -1.8262 -0.1114 -1.0835
 9427TIP3    H249697   0.257   5.024  13.564  1.4259  0.0117 -0.5362
 9428TIP3   OH249698   3.633   2.629   5.400  0.2926  0.2737  0.5889
 9428TIP3    H149699   3.586   2.663   5.323  2.5338 -1.8947 -1.9383
 9428TIP3    H249700   3.705   2.691   5.412  0.2972  0.2760  0.5512
 9429TIP3   OH249701   6.693   6.313  14.518  0.3300 -0.0111 -0.0127
 9429TIP3    H149702   6.650   6.347  14.596 -0.8806 -0.4432 -0.4752
 9429TIP3    H249703   6.759   6.252  14.551 -0.8687 -0.9779  0.6564
 9430TIP3   OH249704   3.567   0.828   1.193  0.0165  0.3022 -0.5691
 9430TIP3    H149705   3.537   0.915   1.220 -2.3068  0.0718 -2.1042
 9430TIP3    H249706   3.500   0.768   1.227  0.5014 -0.6533 -1.2532
 9431TIP3   OH249707   4.869   5.153  11.717  0.2333  0.2366  0.4827
 9431TIP3    H149708   4.868   5.246  11.742  2.9508  0.3786  0.3896
 9431TIP3    H249709   4.907   5.153  11.629  1.1328 -1.0121  0.8568
 9432TIP3   OH249710   4.078   4.150   6.516  0.0052 -0.3968 -0.0272
 9432TIP3    H149711   4.020   4.082   6.550  0.0624 -1.4160 -1.8543
 9432TIP3    H249712   4.127   4.180   6.593  0.0939 -2.5350  0.8261
 9433TIP3   OH249713   6.479   0.908   5.797 -0.3564 -0.4486 -0.0402
 9433TIP3    H149714   6.460   0.928   5.889 -1.0230 -1.2500  0.0052
 9433TIP3    H249715   6.572   0.926   5.788  0.3893 -2.9578  1.5355
 9434TIP3   OH249716   5.913   1.644   3.207 -0.6562  0.4729  0.0262
 9434TIP3    H149717   5.869   1.560   3.199  0.5692 -0.0804 -1.4635
 9434TIP3    H249718   5.908   1.682   3.120 -1.2924  2.0295  0.7018
 9435TIP3   OH249719   0.194   2.630   1.104  0.1157 -0.8136 -0.2732
 9435TIP3    H149720   0.161   2.562   1.045 -0.1671  1.5360 -3.0015
 9435TIP3    H249721   0.284   2.644   1.078  0.1810 -0.1452  0.2698
 9436TIP3   OH249722   4.373   6.073  10.375 -0.1036 -0.2630  0.0260
 9436TIP3    H149723   4.299   6.033  10.330 -2.0018  0.4398  2.3089
 9436TIP3    H249724   4.334   6.144  10.425  2.3443  0.9121  0.4057
 9437TIP3   OH249725   2.437   2.691  13.555  0.4703 -0.5485 -0.0583
 9437TIP3    H149726   2.415   2.653  13.470  1.8721 -1.3173 -0.1182
 9437TIP3    H249727   2.361   2.673  13.610 -0.1757 -0.6405 -0.9564
 9438TIP3   OH249728   5.851   1.657  14.579  0.1948  0.3648 -0.7630
 9438TIP3    H149729   5.943   1.681  14.582  0.2185  0.2684 -0.7125
 9438TIP3    H249730   5.850   1.562  14.590  0.0902  0.3644 -0.7696
 9439TIP3   OH249731   1.187   4.393   4.022 -0.3980  0.4574  0.2067
 9439TIP3    H149732   1.216   4.460   4.083 -0.5015 -1.5339  2.5679
 9439TIP3    H249733   1.108   4.356   4.061 -1.4405  0.1720 -1.9856
 9440TIP3   OH249734   4.114   4.905   2.801  0.0747  0.3152  0.1025
 9440TIP3    H149735   4.039   4.888   2.744  2.2278 -1.7788 -2.3638
 9440TIP3    H249736   4.154   4.985   2.766  1.0949 -0.6783 -1.0785
 9441TIP3   OH249737   1.855   0.403   4.115 -0.4272 -0.1312  0.0252
 9441TIP3    H149738   1.811   0.377   4.033 -1.0626 -0.4402  0.4568
 9441TIP3    H249739   1.787   0.448   4.165  0.3979  1.5447 -0.2986
 9442TIP3   OH249740   0.369   0.886   4.348 -0.1367 -0.0243 -0.5296
 9442TIP3    H149741   0.350   0.792   4.338  1.6603 -0.4450 -0.3566
 9442TIP3    H249742   0.341   0.925   4.266 -1.2917 -0.6249 -0.4524
 9443TIP3   OH249743   6.694   6.637   0.831  0.0460 -0.6926  0.1414
 9443TIP3    H149744   6.700   6.675   0.743  2.2500  0.2464  0.6264
 9443TIP3    H249745   6.771   6.581   0.839  1.6172  1.5471  2.4266
 9444TIP3   OH249746   6.088   4.868  11.102 -0.2341  0.5298 -0.2874
 9444TIP3    H149747   6.057   4.779  11.085  0.7355 -0.0031  0.5907
 9444TIP3    H249748   6.119   4.899  11.017 -1.3978  0.3738 -0.7853
 9445TIP3   OH249749   5.691   2.079  11.139 -0.8263 -0.3003  0.3609
 9445TIP3    H149750   5.676   2.173  11.148  1.0351 -0.1035  2.2836
 9445TIP3    H249751   5.701   2.065  11.045 -1.3173  1.3849  0.0253
 9446TIP3   OH249752   2.034   0.648  12.727  0.1892 -0.1270  0.0049
 9446TIP3    H149753   2.129   0.646  12.729  0.2360 -0.1959 -1.3617
 9446TIP3    H249754   2.008   0.662  12.818  1.5128  0.5374  0.2970
 9447TIP3   OH249755   1.996   0.048  12.800 -0.2151  0.0766 -0.2287
 9447TIP3    H149756   1.912   0.015  12.769  0.0042 -0.6490 -0.0711
 9447TIP3    H249757   2.061  -0.005  12.753  0.2046  1.7290 -1.6086
 9448TIP3   OH249758   6.304   5.240  16.702  0.0248 -0.8825  0.3109
 9448TIP3    H149759   6.287   5.163  16.648 -1.5629 -0.5281  0.2470
 9448TIP3    H249760   6.359   5.208  16.774  0.9014 -1.6714 -0.6808
 9449TIP3   OH249761   1.958   3.767   5.021 -0.0898 -0.4227  0.2835
 9449TIP3    H149762   2.016   3.831   4.980 -0.0383 -0.2002  0.6972
 9449TIP3    H249763   1.870   3.793   4.992  0.0415 -1.0319 -0.7094
 9450TIP3   OH249764   3.509   5.574  13.954  0.6270  0.0487  0.2949
 9450TIP3    H149765   3.574   5.604  13.890 -0.3431  1.3158 -0.1348
 9450TIP3    H249766   3.452   5.650  13.969 -0.9887 -1.1074  0.3626
 9451TIP3   OH249767   6.093   2.357  12.180 -0.0549  0.0625  0.0578
 9451TIP3    H149768   6.133   2.427  12.128  0.6904  1.5759  2.4886
 9451TIP3    H249769   6.166   2.298  12.201 -0.0268  0.3317  0.7165
 9452TIP3   OH249770   0.661   2.895  11.052  0.4197 -0.3235  0.0869
 9452TIP3    H149771   0.636   2.915  11.142  2.2923 -1.4104  0.9009
 9452TIP3    H249772   0.616   2.813  11.031  0.1900 -0.2054  0.1182
 9453TIP3   OH249773   3.262   5.449  14.931  0.0475  0.2622 -0.4439
 9453TIP3    H149774   3.324   5.520  14.946  0.4960 -0.2198  0.0395
 9453TIP3    H249775   3.307   5.389  14.872  0.1800 -0.2427  0.1524
 9454TIP3   OH249776   1.972   0.042   4.795 -0.1839 -0.0954  0.1236
 9454TIP3    H149777   2.039   0.105   4.820  0.1297 -0.4905  0.2990
 9454TIP3    H249778   1.899   0.095   4.763 -0.3015  0.3902  1.1775
 9455TIP3   OH249779   4.422   1.296  14.449  0.3790  0.0111  0.3275
 9455TIP3    H149780   4.475   1.287  14.370  0.6374 -0.8384  0.5856
 9455TIP3    H249781   4.356   1.362  14.427 -0.7594 -1.5464 -1.2672
 9456TIP3   OH249782   4.960   5.762   1.329 -0.0147  0.3741 -0.3412
 9456TIP3    H149783   4.928   5.813   1.254 -0.1489  0.7463 -0.0306
 9456TIP3    H249784   5.046   5.800   1.347 -0.5694  1.2279  0.5820
 9457TIP3   OH249785   2.889   3.356   1.190 -0.0455  0.0155 -0.1717
 9457TIP3    H149786   2.845   3.425   1.240  1.5444  0.4970  0.5963
 9457TIP3    H249787   2.912   3.290   1.255 -0.2380 -0.5716 -0.6853
 9458TIP3   OH249788   3.003   2.826  16.240 -0.1786  0.6186 -0.2946
 9458TIP3    H149789   2.918   2.782  16.241 -1.4479  2.7905 -1.7156
 9458TIP3    H249790   3.017   2.854  16.330  1.5533 -3.9361  1.1007
 9459TIP3   OH249791   5.329   3.461   2.121  0.0394  0.1543 -0.6124
 9459TIP3    H149792   5.269   3.388   2.137 -2.3803  1.7695 -1.7058
 9459TIP3    H249793   5.345   3.458   2.027  3.2554 -1.3058 -0.1272
 9460TIP3   OH249794   2.131   5.988  12.813  0.0852  0.0005  0.0766
 9460TIP3    H149795   2.040   5.961  12.805 -0.2747  1.2544 -0.3536
 9460TIP3    H249796   2.134   6.044  12.890  0.8369 -1.3002  1.0254
 9461TIP3   OH249797   5.855   6.664  16.419  0.0220 -0.3153  0.0673
 9461TIP3    H149798   5.833   6.731  16.483 -0.5010 -0.3626 -0.0581
 9461TIP3    H249799   5.773   6.648  16.372  0.5754  0.3108 -1.1686
 9462TIP3   OH249800   1.444   3.426  16.042  0.0597 -0.1511 -0.0268
 9462TIP3    H149801   1.476   3.421  16.132 -0.8037  0.6151  0.3398
 9462TIP3    H249802   1.479   3.508  16.008  0.1254 -0.2858 -0.2889
 9463TIP3   OH249803   0.202   1.587  16.794  0.5430 -0.6276  0.0978
 9463TIP3    H149804   0.110   1.567  16.780  0.6011 -1.0551  0.2940
 9463TIP3    H249805   0.204   1.631  16.879  0.3191  0.9891 -0.6922
 9464TIP3   OH249806   4.639   4.406  12.160  0.4891  0.4997 -0.6833
 9464TIP3    H149807   4.579   4.379  12.091 -0.8823  0.5337  0.4592
 9464TIP3    H249808   4.652   4.500  12.146 -0.6497  0.7340 -0.2891
 9465TIP3   OH249809   4.408   6.509  15.165  0.4785 -0.1788 -0.2261
 9465TIP3    H149810   4.418   6.455  15.087  0.4189  0.2409 -0.5252
 9465TIP3    H249811   4.323   6.552  15.153  0.1738 -0.5923  0.3668
 9466TIP3   OH249812   4.781   3.020  14.200 -0.0747  0.5189 -0.3499
 9466TIP3    H149813   4.785   2.944  14.142  0.8962  1.6760 -1.8949
 9466TIP3    H249814   4.690   3.050  14.194 -0.2267  0.0408 -0.4893
 9467TIP3   OH249815   4.434   2.493  14.130 -0.1627 -0.5112 -0.1597
 9467TIP3    H149816   4.513   2.522  14.086 -0.0311 -0.3292  0.1918
 9467TIP3    H249817   4.436   2.397  14.123  0.3136 -0.5306  0.2328
 9468TIP3   OH249818   6.670   3.922   0.941 -0.0496  0.8415  0.1122
 9468TIP3    H149819   6.671   3.831   0.970 -0.5643  0.8194  0.0680
 9468TIP3    H249820   6.699   3.919   0.850  1.6639  0.9187  0.6173
 9469TIP3   OH249821   4.645   0.631   4.453  0.3717  0.3095  0.1489
 9469TIP3    H149822   4.667   0.547   4.492  0.9913 -1.0095 -2.7925
 9469TIP3    H249823   4.725   0.683   4.461  0.4956  0.0562  0.5796
 9470TIP3   OH249824   2.243   0.852  10.824  0.1556 -0.2168 -0.2729
 9470TIP3    H149825   2.214   0.939  10.798  0.1487  0.4788  1.8595
 9470TIP3    H249826   2.317   0.832  10.766 -1.2090  0.2318 -2.2415
 9471TIP3   OH249827   5.399   1.798   6.053 -0.1715  0.4742  0.0543
 9471TIP3    H149828   5.339   1.762   5.988 -1.7297  2.2646  0.4298
 9471TIP3    H249829   5.347   1.804   6.133  0.7026  1.4566  0.5677
 9472TIP3   OH249830   5.069   5.450   3.052 -0.3449  0.3789 -0.2520
 9472TIP3    H149831   5.103   5.524   3.000  1.4910 -0.7970 -0.8152
 9472TIP3    H249832   5.005   5.408   2.995 -1.6557  1.6662  0.1933
 9473TIP3   OH249833   5.981   2.559  11.860  0.1227  0.1808  0.5119
 9473TIP3    H149834   5.980   2.652  11.840 -1.7115  0.1430  0.2117
 9473TIP3    H249835   6.073   2.536  11.865  0.6091  1.7857 -0.4455
 9474TIP3   OH249836   4.073   3.096  12.946  0.1917 -0.8055 -0.2099
 9474TIP3    H149837   4.078   3.037  13.021  3.1380 -2.5118 -1.5938
 9474TIP3    H249838   4.044   3.041  12.873  0.8772 -0.0340 -1.0955
 9475TIP3   OH249839   2.263   0.211   4.447  0.2480 -0.4511 -0.6918
 9475TIP3    H149840   2.181   0.232   4.402 -0.2155 -0.0580  0.2804
 9475TIP3    H249841   2.332   0.244   4.389 -0.3623  1.0247 -0.6350
 9476TIP3   OH249842   5.523   3.617  14.129 -0.4461 -0.9764 -0.3759
 9476TIP3    H149843   5.572   3.585  14.206 -0.8888 -0.3365  0.1811
 9476TIP3    H249844   5.523   3.712  14.138  0.4022 -0.8215 -1.7440
 9477TIP3   OH249845   5.040   5.889   3.101  0.3836  0.0109 -0.6251
 9477TIP3    H149846   5.085   5.894   3.186  1.3092  1.5836 -1.1569
 9477TIP3    H249847   4.960   5.840   3.119 -0.0545  1.3450  1.4426
 9478TIP3   OH249848   3.987   2.741   0.079 -0.6569  0.1455  0.2481
 9478TIP3    H149849   4.068   2.785   0.054  0.0733 -1.3922 -0.1565
 9478TIP3    H249850   4.015   2.666   0.132 -1.6370 -1.6141 -1.6156
 9479TIP3   OH249851   2.623   2.541   1.070  0.1349  0.4311  0.2107
 9479TIP3    H149852   2.589   2.483   1.002 -0.1160  1.2013 -0.3416
 9479TIP3    H249853   2.713   2.511   1.084  0.7995  1.3348 -1.7355
 9480TIP3   OH249854   2.726   5.113   2.407 -0.2595  0.1589 -0.3753
 9480TIP3    H149855   2.683   5.133   2.491  0.1072 -3.2075  0.7667
 9480TIP3    H249856   2.654   5.104   2.345 -0.7168  0.5795  0.0886
 9481TIP3   OH249857   0.827   3.076   0.833  0.5373  0.3521  0.2686
 9481TIP3    H149858   0.855   2.989   0.803 -0.4531  0.2274 -0.3539
 9481TIP3    H249859   0.810   3.065   0.926 -2.1176 -0.8500 -0.2653
 9482TIP3   OH249860   0.512   1.522   3.561  0.2378  0.3696  0.0150
 9482TIP3    H149861   0.421   1.491   3.569  0.9207 -1.8555 -0.3505
 9482TIP3    H249862   0.503   1.613   3.530 -1.8817  0.9823  2.1416
 9483TIP3   OH249863   3.100   5.908  11.519 -0.0551  0.5149  0.7088
 9483TIP3    H149864   3.142   5.826  11.545 -1.8936 -0.6117  0.3954
 9483TIP3    H249865   3.012   5.881  11.490 -0.1844  2.4171 -0.9051
 9484TIP3   OH249866   5.810   5.605  12.994 -0.4076  0.5431 -0.1186
 9484TIP3    H149867   5.886   5.648  13.032 -1.0126 -0.1236  1.9474
 9484TIP3    H249868   5.846   5.535  12.939  0.5583 -1.5231  2.9156
 9485TIP3   OH249869   4.725   5.583  16.928 -0.3436 -0.3560  0.2167
 9485TIP3    H149870   4.636   5.616  16.913  0.3784  1.1325 -1.0522
 9485TIP3    H249871   4.759   5.638  16.998  0.6555  1.3334 -1.4982
 9486TIP3   OH249872   6.235   3.974   0.758 -0.6467 -0.2839  0.0201
 9486TIP3    H149873   6.155   3.971   0.809 -0.0467 -1.5315  0.9614
 9486TIP3    H249874   6.220   4.042   0.692 -2.1726  0.0137  0.6406
 9487TIP3   OH249875   5.783   4.944  10.523  0.2341  0.1141 -0.0095
 9487TIP3    H149876   5.704   4.937  10.577 -0.2813 -0.1764 -0.7760
 9487TIP3    H249877   5.754   4.990  10.444  0.5060 -1.1341 -0.8795
 9488TIP3   OH249878   3.740   2.718   6.077 -0.2892 -0.5229  0.2303
 9488TIP3    H149879   3.798   2.642   6.070  0.3397  0.0874 -1.6484
 9488TIP3    H249880   3.799   2.793   6.088 -0.6942  0.0642 -1.3547
 9489TIP3   OH249881   5.787   3.836   5.403 -0.4630 -0.2416 -0.1497
 9489TIP3    H149882   5.863   3.826   5.459 -0.9489  0.4174  0.6528
 9489TIP3    H249883   5.823   3.840   5.314  0.2047 -2.6473 -0.0499
 9490TIP3   OH249884   6.712   4.124   3.656 -0.0951 -0.6752 -0.3715
 9490TIP3    H149885   6.800   4.158   3.670  0.4141 -0.6963 -3.0248
 9490TIP3    H249886   6.725   4.030   3.642 -0.9685 -1.2769  2.2864
 9491TIP3   OH249887   0.573   4.186   3.874  0.7927 -0.1070 -0.4446
 9491TIP3    H149888   0.525   4.246   3.817 -0.9617 -0.9759  0.0400
 9491TIP3    H249889   0.513   4.113   3.888  1.2058 -0.0287  2.3763
 9492TIP3   OH249890   5.927   6.649  15.801  0.5204  0.3395 -0.5421
 9492TIP3    H149891   5.888   6.709  15.864 -2.4104 -0.4516 -1.4682
 9492TIP3    H249892   5.983   6.592  15.854  2.1846  2.8173  0.5502
 9493TIP3   OH249893   4.840   5.675   1.541  0.0803 -0.0753 -0.0147
 9493TIP3    H149894   4.899   5.720   1.481 -0.6226 -0.3817 -0.9580
 9493TIP3    H249895   4.834   5.586   1.506 -2.3494  0.4220 -1.0386
 9494TIP3   OH249896   1.720   2.430  11.101 -0.3120 -0.1241  0.1717
 9494TIP3    H149897   1.713   2.356  11.041 -1.9096  1.6808 -2.0392
 9494TIP3    H249898   1.671   2.403  11.178  1.6717 -2.4555  0.7275
 9495TIP3   OH249899   2.626   6.362   3.994 -0.3234 -0.4365  0.5256
 9495TIP3    H149900   2.680   6.400   3.925 -1.5503  0.5052  0.0322
 9495TIP3    H249901   2.597   6.278   3.959 -0.7471 -0.0679 -0.0311
 9496TIP3   OH249902   1.738   3.766  15.269 -0.1800 -0.1487  0.4988
 9496TIP3    H149903   1.677   3.746  15.339 -0.5747 -0.6132  0.0335
 9496TIP3    H249904   1.707   3.715  15.194  0.3776  0.1375  0.0561
 9497TIP3   OH249905   5.684   6.737   5.648 -0.4129 -0.3857 -0.3659
 9497TIP3    H149906   5.635   6.815   5.678  0.6330  0.0592  0.2363
 9497TIP3    H249907   5.722   6.764   5.565 -0.2883 -0.3534 -0.2980
 9498TIP3   OH249908   3.314   0.885  10.804  0.0346  0.3955  0.4095
 9498TIP3    H149909   3.249   0.931  10.857  0.6644 -1.8449  3.3746
 9498TIP3    H249910   3.397   0.901  10.847  0.6227 -1.3350 -0.0019
 9499TIP3   OH249911   1.310   3.049   5.750 -0.5615 -0.0334 -0.1070
 9499TIP3    H149912   1.244   3.031   5.818 -1.0849 -1.6157 -0.9772
 9499TIP3    H249913   1.290   2.986   5.681  1.6981 -0.3592 -0.5249
 9500TIP3   OH249914   4.837   2.489   2.927 -0.0184 -0.3153 -0.3653
 9500TIP3    H149915   4.775   2.452   2.864 -0.4083  0.8829 -0.7020
 9500TIP3    H249916   4.895   2.543   2.874  0.3300 -0.1617  0.1689
 9501TIP3   OH249917   4.902   6.568   0.250 -0.1907 -0.8388 -0.0566
 9501TIP3    H149918   4.941   6.510   0.315 -0.3794  0.1759  1.0207
 9501TIP3    H249919   4.823   6.522   0.221  0.5629 -1.8666 -0.5282
 9502TIP3   OH249920   5.008   5.543   4.249 -0.1986 -0.4480 -0.0588
 9502TIP3    H149921   5.028   5.465   4.197  0.6708 -0.6955  0.6281
 9502TIP3    H249922   4.940   5.514   4.310  0.6675 -0.8963  0.7132
 9503TIP3   OH249923   5.090   0.866  11.608  0.3241 -0.0879  0.1720
 9503TIP3    H149924   5.018   0.824  11.655 -0.0524  1.5697  1.1840
 9503TIP3    H249925   5.079   0.960  11.627  3.3206  0.1453  1.2305
 9504TIP3   OH249926   6.048   1.709   6.461  0.1652  0.2292 -0.1990
 9504TIP3    H149927   5.960   1.727   6.429 -1.0651 -1.2860  2.0340
 9504TIP3    H249928   6.072   1.626   6.419  0.7084  0.7974 -1.0507
 9505TIP3   OH249929   3.883   1.280  15.334  0.6821  0.5032 -0.3342
 9505TIP3    H149930   3.968   1.324  15.330  0.5285  0.7091 -1.6110
 9505TIP3    H249931   3.827   1.329  15.275 -0.4535  0.5825  0.7687
 9506TIP3   OH249932   5.423   6.051   4.054 -0.2387 -0.2021 -0.5326
 9506TIP3    H149933   5.375   6.125   4.090  0.8882 -0.8242  2.5536
 9506TIP3    H249934   5.498   6.090   4.009 -2.0183  0.6321 -2.9839
 9507TIP3   OH249935   5.224   2.430   2.350 -0.2098  0.1158  0.5958
 9507TIP3    H149936   5.304   2.447   2.401 -0.3603  1.6302  0.3606
 9507TIP3    H249937   5.238   2.343   2.313  1.1534  0.1721  0.9037
 9508TIP3   OH249938   0.314   3.347   3.679 -0.4287  0.0114  0.1699
 9508TIP3    H149939   0.297   3.427   3.729 -2.2024 -1.0657  1.3980
 9508TIP3    H249940   0.337   3.281   3.746 -1.2900 -1.0659 -0.5623
 9509TIP3   OH249941   1.521   6.191   1.003  0.3742 -0.2454 -0.2490
 9509TIP3    H149942   1.558   6.119   1.052 -0.5729  0.0249  0.9085
 9509TIP3    H249943   1.546   6.174   0.912  3.2744 -0.0802  0.4353
 9510TIP3   OH249944   1.645   4.830   2.569 -0.6032 -0.6983 -0.1800
 9510TIP3    H149945   1.601   4.885   2.634  0.2679  0.3148 -0.4114
 9510TIP3    H249946   1.575   4.786   2.523 -1.4271  1.1106 -0.7601
 9511TIP3   OH249947   2.136   0.127   2.143 -0.2693 -0.1754  0.3614
 9511TIP3    H149948   2.204   0.151   2.207  0.7533  0.7412 -1.0045
 9511TIP3    H249949   2.169   0.047   2.103 -0.9430 -0.7869  1.0166
 9512TIP3   OH249950   2.264   5.129  12.584  0.4313 -0.3462  0.5193
 9512TIP3    H149951   2.198   5.182  12.628  0.2833 -0.3691  0.3306
 9512TIP3    H249952   2.279   5.055  12.643 -0.4032 -0.8339  0.1503
 9513TIP3   OH249953   6.065   0.247   5.728  0.2961 -0.1099 -0.1286
 9513TIP3    H149954   6.022   0.226   5.645  0.7761 -1.2175 -0.1172
 9513TIP3    H249955   6.041   0.337   5.745 -1.0608 -0.3391 -0.7073
 9514TIP3   OH249956   2.748   2.673  16.289  0.1678  0.7861  0.4307
 9514TIP3    H149957   2.663   2.638  16.263  0.7992 -1.3620  1.0473
 9514TIP3    H249958   2.728   2.740  16.355 -1.0226 -0.0100  0.8957
 9515TIP3   OH249959   0.547   2.517   3.904 -0.0140  0.4499 -0.1697
 9515TIP3    H149960   0.453   2.528   3.911 -0.1159 -0.2211 -0.4318
 9515TIP3    H249961   0.563   2.426   3.927  0.3268 -0.0300 -2.0926
 9516TIP3   OH249962   3.621   0.705  12.651 -0.0788  0.0458 -0.7128
 9516TIP3    H149963   3.582   0.688  12.737  1.4316  0.4581  0.0787
 9516TIP3    H249964   3.654   0.620  12.623 -1.1502 -0.2262 -1.2138
 9517TIP3   OH249965   2.890   2.916  16.510  0.5682 -0.6574  0.0539
 9517TIP3    H149966   2.799   2.890  16.498  0.3637 -0.2945  0.8299
 9517TIP3    H249967   2.887   2.998  16.558  1.3076 -0.6882  0.1731
 9518TIP3   OH249968   3.086   4.406  11.499  0.3563 -0.0574  0.5699
 9518TIP3    H149969   3.034   4.372  11.571 -1.7650  0.4702 -0.6186
 9518TIP3    H249970   3.081   4.338  11.432  0.4850  0.3648  0.1263
 9519TIP3   OH249971   4.497   5.927  12.454 -0.1049  0.6875  0.1846
 9519TIP3    H149972   4.488   5.873  12.375 -0.7112  0.6522  0.2750
 9519TIP3    H249973   4.477   6.016  12.425  0.2179  0.7605  0.1824
 9520TIP3   OH249974   0.741   2.533   5.961 -0.2802  0.1970  1.1413
 9520TIP3    H149975   0.680   2.607   5.959  0.6135  0.9658  1.4390
 9520TIP3    H249976   0.685   2.455   5.967 -1.3448  0.6605 -1.4179
 9521TIP3   OH249977   6.750   3.816  16.810 -0.0956  0.7044  0.2785
 9521TIP3    H149978   6.753   3.879  16.882  1.1614 -1.0343  1.8530
 9521TIP3    H249979   6.839   3.781  16.805 -1.4603 -3.6396  2.0470
 9522TIP3   OH249980   3.310   5.502  15.680 -0.6399 -0.2664  0.1458
 9522TIP3    H149981   3.217   5.484  15.667 -1.0309  1.1214  0.7977
 9522TIP3    H249982   3.312   5.582  15.732  0.9118 -1.0935  1.4530
 9523TIP3   OH249983   0.644   3.954  12.504  0.0426  0.0609 -0.0068
 9523TIP3    H149984   0.716   3.893  12.517  0.2247  0.0699 -0.9544
 9523TIP3    H249985   0.685   4.033  12.470 -0.2937  0.4402  0.4479
 9524TIP3   OH249986   0.952   3.380  16.693 -0.1997 -0.0355  0.0547
 9524TIP3    H149987   0.900   3.350  16.768  0.1525 -0.7008  0.0349
 9524TIP3    H249988   0.915   3.334  16.618  0.9701 -1.1826  0.1658
 9525TIP3   OH249989   5.271   5.673  12.109 -0.3838 -0.2472  0.5954
 9525TIP3    H149990   5.335   5.730  12.152  0.6892 -0.8759 -0.1086
 9525TIP3    H249991   5.294   5.677  12.016 -1.7480 -0.0335  0.2469
 9526TIP3   OH249992   3.015   0.439   4.261 -0.0870  1.0095  0.0856
 9526TIP3    H149993   2.979   0.513   4.212 -0.1254  0.7518 -0.2871
 9526TIP3    H249994   3.018   0.368   4.197 -1.5588  0.2311  0.8284
 9527TIP3   OH249995   4.790   3.000   1.213  0.8356  0.4059  0.0282
 9527TIP3    H149996   4.714   2.956   1.174 -0.7580  0.9228  2.3681
 9527TIP3    H249997   4.865   2.951   1.180 -0.6296 -1.5028 -0.6574
 9528TIP3   OH249998   5.563   6.727   1.994 -0.1176 -0.3673  0.1306
 9528TIP3    H149999   5.649   6.714   1.955 -0.1057  1.7689 -0.7027
 9528TIP3    H250000   5.580   6.776   2.075 -0.3576 -2.6284  1.6579
 9529TIP3   OH250001   5.917   3.139   0.248 -0.1059 -0.1474 -0.0973
 9529TIP3    H150002   5.949   3.209   0.191  1.8730  0.3036  1.4485
 9529TIP3    H250003   5.942   3.058   0.203 -0.3988  0.1665 -0.8316
 9530TIP3   OH250004   0.726   2.317  11.708 -0.4920 -0.6498 -0.5411
 9530TIP3    H150005   0.636   2.309  11.739  0.1128 -1.5534  1.0783
 9530TIP3    H250006   0.717   2.330  11.613 -2.3845  2.0520 -0.0863
 9531TIP3   OH250007   6.276   0.360  16.889 -0.0481 -0.3748 -0.3595
 9531TIP3    H150008   6.272   0.389  16.980  0.9769  1.3623 -0.8249
 9531TIP3    H250009   6.370   0.354  16.870 -0.2248 -2.3892 -0.8339
 9532TIP3   OH250010   1.158   0.483  12.724  0.1789  0.4346 -0.1342
 9532TIP3    H150011   1.140   0.542  12.797 -0.5085  0.7499 -0.5463
 9532TIP3    H250012   1.092   0.414  12.733 -0.5709  1.0113 -1.0234
 9533TIP3   OH250013   4.174   0.262   4.846  0.0073 -0.5996  0.4774
 9533TIP3    H150014   4.136   0.334   4.796 -2.2878  0.0617  2.9381
 9533TIP3    H250015   4.240   0.303   4.902 -0.6605 -0.5366  1.2306
 9534TIP3   OH250016   0.163   2.082  17.215  0.8769 -0.2444 -0.2804
 9534TIP3    H150017   0.216   2.072  17.294  1.3776 -2.5772 -0.8394
 9534TIP3    H250018   0.089   2.021  17.227 -0.8390  1.7334 -0.2375
 9535TIP3   OH250019   0.901   3.292   4.142  0.4510 -0.3013  0.2229
 9535TIP3    H150020   0.820   3.314   4.097  0.5068  1.3159  0.8065
 9535TIP3    H250021   0.904   3.197   4.143  0.0368 -0.3971 -2.3861
 9536TIP3   OH250022   4.365   6.362  13.038  0.0256 -0.1534  0.2897
 9536TIP3    H150023   4.448   6.324  13.070  0.1700  0.5786  0.8234
 9536TIP3    H250024   4.299   6.298  13.062  0.4244 -0.7252 -0.0943
 9537TIP3   OH250025   3.182   4.682  11.459 -0.2146 -0.4154 -0.6290
 9537TIP3    H150026   3.195   4.660  11.367 -3.5092 -0.6470 -1.1716
 9537TIP3    H250027   3.176   4.597  11.503 -1.5610 -0.4094 -0.7573
 9538TIP3   OH250028   4.652   5.317  15.166  0.2833  0.0545 -0.1681
 9538TIP3    H150029   4.559   5.298  15.160  0.4980 -1.2155  0.1382
 9538TIP3    H250030   4.669   5.329  15.259  0.7654 -1.8151  0.0329
 9539TIP3   OH250031   2.821   5.438   4.515  0.2046 -0.1296  0.0165
 9539TIP3    H150032   2.814   5.469   4.424  0.0008 -1.2495 -0.3598
 9539TIP3    H250033   2.913   5.411   4.524 -0.0514 -1.1226 -0.2343
 9540TIP3   OH250034   1.745   2.483  11.772 -0.1310 -0.4282 -0.7779
 9540TIP3    H150035   1.758   2.525  11.857  0.5781  0.7077 -1.4245
 9540TIP3    H250036   1.664   2.521  11.739 -2.3202 -3.3302  0.7793
 9541TIP3   OH250037   4.889   4.888  14.270  0.2314  0.1927 -0.3549
 9541TIP3    H150038   4.866   4.880  14.363 -0.5371  1.0390 -0.4576
 9541TIP3    H250039   4.960   4.953  14.269 -0.8267  1.3914 -0.4777
 9542TIP3   OH250040   4.589   5.775   3.940 -0.2854  0.5350 -0.2738
 9542TIP3    H150041   4.510   5.749   3.987  0.5789 -1.2548  0.2659
 9542TIP3    H250042   4.560   5.844   3.880 -1.9764  0.8374  0.8403
 9543TIP3   OH250043   4.924   1.414   0.838  0.2689 -0.2431 -0.3431
 9543TIP3    H150044   4.881   1.415   0.924 -1.1194 -0.7152 -1.0016
 9543TIP3    H250045   4.856   1.385   0.777  1.3925 -0.5096 -1.5273
 9544TIP3   OH250046   6.178   3.254   6.446 -0.2599 -0.1276 -0.2158
 9544TIP3    H150047   6.171   3.345   6.473 -1.2662 -0.2360 -0.0881
 9544TIP3    H250048   6.125   3.249   6.366  0.8081 -0.3305 -0.9421
 9545TIP3   OH250049   2.495   1.208  13.487 -0.4160 -0.2496 -0.9709
 9545TIP3    H150050   2.527   1.282  13.538 -0.4321 -1.3680  0.7249
 9545TIP3    H250051   2.573   1.174  13.442  0.5399 -1.8014  1.6583
 9546TIP3   OH250052   5.204   3.638  16.616  0.7335 -0.0895 -0.2660
 9546TIP3    H150053   5.256   3.623  16.537  0.8256 -0.5882 -0.1143
 9546TIP3    H250054   5.252   3.705  16.664  0.8097  0.0327 -0.5123
 9547TIP3   OH250055   3.525   6.133   4.776  0.1106  0.4951  0.5941
 9547TIP3    H150056   3.487   6.080   4.847 -0.5892  2.0998  1.4809
 9547TIP3    H250057   3.590   6.188   4.820  0.6123  0.5864 -0.2488
 9548TIP3   OH250058   2.356   3.964  16.842  0.0857  0.1660  0.0509
 9548TIP3    H150059   2.269   3.983  16.877  0.0185 -0.7716  0.4117
 9548TIP3    H250060   2.409   4.040  16.866 -1.1592  1.8574 -2.1526
 9549TIP3   OH250061   6.249   5.907  11.304 -0.4293  0.2372  0.2057
 9549TIP3    H150062   6.338   5.931  11.277 -0.9459  2.2981  0.1843
 9549TIP3    H250063   6.195   5.926  11.227 -1.0480  0.0974  0.6042
 9550TIP3   OH250064   5.818   2.421   3.812  0.0641  0.0436 -0.1364
 9550TIP3    H150065   5.825   2.470   3.730 -0.1031  0.7569  0.2739
 9550TIP3    H250066   5.875   2.468   3.873 -1.0200  0.4352  0.5945
 9551TIP3   OH250067   6.009   3.049   4.449  0.2336  0.1545 -0.1854
 9551TIP3    H150068   6.063   3.088   4.518 -1.2533  0.8845  0.6060
 9551TIP3    H250069   5.927   3.098   4.451 -0.3328 -0.6507 -1.6310
 9552TIP3   OH250070   4.659   4.923  11.529  0.1849  0.5760 -0.3436
 9552TIP3    H150071   4.666   4.967  11.614  3.0704  2.2021 -1.2733
 9552TIP3    H250072   4.647   4.994  11.466 -0.3492 -0.4647 -1.4658
 9553TIP3   OH250073   4.986   6.167   5.117  0.3359 -0.7041 -0.5203
 9553TIP3    H150074   5.021   6.214   5.193 -1.2838  0.7337 -0.5987
 9553TIP3    H250075   5.059   6.165   5.055  0.8971  0.4580  0.0579
 9554TIP3   OH250076   3.369   1.337  13.681  0.6685  0.0303  0.3916
 9554TIP3    H150077   3.457   1.359  13.712  0.4296  0.8639  0.4996
 9554TIP3    H250078   3.365   1.372  13.592 -0.4453  2.4578  1.3174
 9555TIP3   OH250079   5.708   5.174  12.716  0.1401 -0.3620  0.1862
 9555TIP3    H150080   5.687   5.124  12.795 -0.2780 -0.2357  0.1536
 9555TIP3    H250081   5.694   5.112  12.644 -1.7714  0.1904  0.0295
 9556TIP3   OH250082   4.609   3.663  12.558  0.4029 -0.3026 -0.3041
 9556TIP3    H150083   4.699   3.660  12.525  0.0588 -0.4361 -1.2384
 9556TIP3    H250084   4.603   3.748  12.602  1.6800 -1.2160  1.8184
 9557TIP3   OH250085   5.678   6.703   3.753 -0.0390  0.4492 -0.3249
 9557TIP3    H150086   5.583   6.713   3.752  0.0456  1.4802  0.0312
 9557TIP3    H250087   5.700   6.664   3.669 -0.8264 -0.3482 -0.1668
 9558TIP3   OH250088   6.606   1.262  12.202  0.0850 -0.3887  0.0540
 9558TIP3    H150089   6.677   1.201  12.183 -0.3857 -0.5656 -1.2849
 9558TIP3    H250090   6.570   1.284  12.116 -0.4862  0.9010  0.5992
 9559TIP3   OH250091   0.761   3.409   0.398  0.0006 -0.5876  0.0311
 9559TIP3    H150092   0.806   3.493   0.410  1.8550 -1.6073  0.5165
 9559TIP3    H250093   0.731   3.385   0.486 -2.1139  0.3713 -0.3789
 9560TIP3   OH250094   5.116   0.908  16.243 -0.3386  0.4054 -0.5907
 9560TIP3    H150095   5.198   0.906  16.194  1.5610  1.5992  2.2892
 9560TIP3    H250096   5.093   1.001  16.248 -1.0628  0.2116 -0.1245
 9561TIP3   OH250097   3.770   1.428  15.149 -0.0798  0.0301 -0.1427
 9561TIP3    H150098   3.697   1.445  15.089 -0.5912  0.9102  0.6945
 9561TIP3    H250099   3.828   1.503  15.138  0.3096 -0.2768 -0.2159
 9562TIP3   OH250100   5.714   2.648   2.538 -0.0128 -0.0229  0.4408
 9562TIP3    H150101   5.764   2.570   2.563  2.6606 -0.1460 -4.1709
 9562TIP3    H250102   5.639   2.614   2.489 -0.8516  0.3392  1.4240
 9563TIP3   OH250103   4.131   0.847  17.251 -0.1134 -0.1820 -0.3205
 9563TIP3    H150104   4.194   0.779  17.225 -0.4241 -0.2504 -0.9015
 9563TIP3    H250105   4.045   0.805  17.242 -0.2285 -0.3805  1.3219
 9564TIP3   OH250106   3.823   2.477  11.932  0.1519 -0.1253  0.3321
 9564TIP3    H150107   3.823   2.382  11.925 -0.9986 -0.0265 -2.2514
 9564TIP3    H250108   3.731   2.502  11.917  0.1748  1.3701  2.2664
 9565TIP3   OH250109   3.107   5.346   3.251  0.0793  0.3107  0.0177
 9565TIP3    H150110   3.048   5.273   3.272  0.1477  0.2139 -0.1232
 9565TIP3    H250111   3.186   5.328   3.302  0.7384 -0.6060 -1.2676
 9566TIP3   OH250112   4.608   4.368   0.758 -1.3410 -0.4520 -0.2663
 9566TIP3    H150113   4.567   4.428   0.820  0.6857 -0.1240  0.8394
 9566TIP3    H250114   4.589   4.281   0.793  0.1015 -0.2613  1.0887
 9567TIP3   OH250115   1.129   0.349   1.762  0.4004 -0.3630  0.8794
 9567TIP3    H150116   1.155   0.441   1.757  0.5307 -0.4351  0.0292
 9567TIP3    H250117   1.180   0.306   1.694 -0.2044 -0.9278  0.7709
 9568TIP3   OH250118   0.139   6.007  13.107 -0.2189  1.0356 -0.3541
 9568TIP3    H150119   0.215   6.037  13.157 -0.9204  0.4338  1.1345
 9568TIP3    H250120   0.098   6.088  13.076 -0.8331  1.5775  1.7133
 9569TIP3   OH250121   1.752   5.285  12.820  0.2686  0.4770  0.6238
 9569TIP3    H150122   1.744   5.357  12.757  1.4934 -2.1293 -2.8430
 9569TIP3    H250123   1.663   5.274  12.854 -0.6994  1.4749 -1.3900
 9570TIP3   OH250124   4.960   2.303  12.778  0.0586  0.0554 -0.1241
 9570TIP3    H150125   5.016   2.226  12.772 -0.2994 -0.2012 -0.1912
 9570TIP3    H250126   4.978   2.352  12.698 -0.9060 -0.7783 -0.8812
 9571TIP3   OH250127   0.133   0.651   1.007 -0.2744 -0.3257 -1.0207
 9571TIP3    H150128   0.207   0.609   1.051  0.5030  0.8047 -1.2044
 9571TIP3    H250129   0.173   0.714   0.947 -1.3968  1.5254  0.0930
 9572TIP3   OH250130   1.232   2.644  13.202  0.6091 -0.1738  1.3372
 9572TIP3    H150131   1.327   2.654  13.201  0.4651  1.4244  0.5823
 9572TIP3    H250132   1.200   2.727  13.238 -0.5491 -0.1822  0.3684
 9573TIP3   OH250133   6.171   0.104  16.827  0.3114  0.2814 -0.3153
 9573TIP3    H150134   6.266   0.096  16.837  0.1332  0.9938  3.2397
 9573TIP3    H250135   6.155   0.198  16.826 -0.3931  0.1649 -0.3410
 9574TIP3   OH250136   4.089   0.537  16.536 -1.0113 -0.7397  0.0349
 9574TIP3    H150137   4.006   0.531  16.489 -0.9996 -1.3451  0.0927
 9574TIP3    H250138   4.152   0.495  16.478 -0.7580 -0.3701  0.0358
 9575TIP3   OH250139   5.720   3.435   5.109  0.2123  0.6815 -0.0592
 9575TIP3    H150140   5.675   3.485   5.178 -0.9867 -0.2129 -0.1538
 9575TIP3    H250141   5.752   3.356   5.154  1.2400  1.0639 -0.1069
 9576TIP3   OH250142   1.825   5.615  15.449  0.2162 -0.4015 -0.0403
 9576TIP3    H150143   1.777   5.569  15.380 -0.9371  0.4396  0.1716
 9576TIP3    H250144   1.792   5.704  15.446  0.5834 -0.2038  1.2203
 9577TIP3   OH250145   0.667   1.047   0.779  0.5843 -0.2619  0.2915
 9577TIP3    H150146   0.606   1.116   0.802  0.8043  0.2700 -0.6809
 9577TIP3    H250147   0.634   0.969   0.824 -1.1206 -0.1208 -0.6625
 9578TIP3   OH250148   4.462   0.474   4.259  0.1012  0.5828 -0.3073
 9578TIP3    H150149   4.551   0.443   4.274  0.0683  0.9269  0.6656
 9578TIP3    H250150   4.471   0.569   4.248 -0.1214  0.5919 -0.4219
 9579TIP3   OH250151   2.138   1.933   2.354 -0.0245 -0.4751  0.5000
 9579TIP3    H150152   2.230   1.908   2.360 -0.7654 -3.3898  1.2747
 9579TIP3    H250153   2.134   2.020   2.395  2.7845  1.2026 -2.3240
 9580TIP3   OH250154   6.495   6.009  13.238 -0.1052  0.3393 -0.0176
 9580TIP3    H150155   6.406   6.008  13.272 -0.4187  0.9404 -0.7938
 9580TIP3    H250156   6.519   6.102  13.236  0.2704  0.2361 -0.4912
 9581TIP3   OH250157   0.940   0.922   2.371  0.4621 -0.5644  0.0980
 9581TIP3    H150158   0.938   0.977   2.450 -1.4024 -0.8637  0.3103
 9581TIP3    H250159   0.911   0.979   2.301  2.8235 -0.0940 -0.5777
 9582TIP3   OH250160   4.722   6.081   4.636  0.4235 -0.3659  0.1949
 9582TIP3    H150161   4.728   5.986   4.634  3.3233 -0.3138  1.4523
 9582TIP3    H250162   4.773   6.110   4.560 -0.0718  0.2019  0.0685
 9583TIP3   OH250163   6.087   5.195  17.357 -0.5547  0.5292  0.7271
 9583TIP3    H150164   6.075   5.106  17.391  0.3052 -0.0418 -0.4066
 9583TIP3    H250165   6.111   5.246  17.434  3.2022 -1.0922  0.8721
 9584TIP3   OH250166   4.112   0.205   4.224 -0.2252  1.0316 -0.0977
 9584TIP3    H150167   4.107   0.140   4.294  0.4796  0.4964 -0.5313
 9584TIP3    H250168   4.162   0.277   4.261  0.4143  0.6178 -0.1411
 9585TIP3   OH250169   5.454   1.000  14.079  0.5933 -0.3435  0.7794
 9585TIP3    H150170   5.361   1.025  14.075  0.5120 -0.6858 -3.0233
 9585TIP3    H250171   5.453   0.906  14.095  0.3316 -0.2450  1.3684
 9586TIP3   OH250172   0.897   2.286  14.396 -0.4900 -0.2620  0.1885
 9586TIP3    H150173   0.992   2.286  14.383 -0.2992 -1.8689  1.3626
 9586TIP3    H250174   0.865   2.352  14.334  1.3595  0.1771 -0.3683
 9587TIP3   OH250175   5.549   1.649  12.228 -0.3276  0.0262  0.2721
 9587TIP3    H150176   5.479   1.600  12.272 -1.2651  0.6772 -0.4798
 9587TIP3    H250177   5.549   1.616  12.138 -0.2202  0.6179  0.0537
 9588TIP3   OH250178   6.366   0.533   1.723  0.1478 -0.1601  0.9063
 9588TIP3    H150179   6.344   0.574   1.807  0.5469 -1.5027  1.7000
 9588TIP3    H250180   6.293   0.473   1.706  1.0091 -1.3687  1.3291
 9589TIP3   OH250181   2.642   3.036  13.170 -0.5389  0.4562 -0.1330
 9589TIP3    H150182   2.697   3.082  13.106  0.6622  2.9190  2.4249
 9589TIP3    H250183   2.690   2.956  13.190 -0.4131  0.1660 -1.4677
 9590TIP3   OH250184   5.662   6.180  15.980 -0.8785 -0.2703  0.3109
 9590TIP3    H150185   5.673   6.166  15.886 -2.2348  2.1646 -0.2962
 9590TIP3    H250186   5.598   6.115  16.007 -0.3860 -1.0748 -0.4056
 9591TIP3   OH250187   3.519   1.607   1.261 -0.9007 -0.1969  0.0307
 9591TIP3    H150188   3.460   1.660   1.206 -0.1771  0.2643 -0.3117
 9591TIP3    H250189   3.554   1.669   1.325  3.2205  0.8778 -2.9010
 9592TIP3   OH250190   3.104   1.152  14.594  0.1217 -1.1529 -0.3246
 9592TIP3    H150191   3.032   1.097  14.624 -1.0413 -0.2646 -1.3748
 9592TIP3    H250192   3.069   1.199  14.519  2.0500 -1.2546 -1.3683
 9593TIP3   OH250193   1.014   0.915   5.675 -0.0555  0.2506  0.3987
 9593TIP3    H150194   1.052   0.922   5.587 -1.9621 -0.5301 -0.5366
 9593TIP3    H250195   1.029   1.001   5.714  3.2871 -0.2061  0.4157
 9594TIP3   OH250196   3.055   3.861  11.405 -0.0958 -0.1757  0.3018
 9594TIP3    H150197   3.129   3.918  11.423 -0.2960  1.0297 -2.2340
 9594TIP3    H250198   2.978   3.912  11.431 -0.1610 -0.2937  0.3422
 9595TIP3   OH250199   5.436   5.955   2.774  0.3705  0.0748  0.3605
 9595TIP3    H150200   5.364   5.902   2.740  0.5602  0.6358 -1.0151
 9595TIP3    H250201   5.455   5.918   2.860 -1.6988  0.0608  0.8710
 9596TIP3   OH250202   5.590   0.048  15.113 -0.6030  0.3354 -0.0501
 9596TIP3    H150203   5.622   0.006  15.193 -1.9088 -0.6390  0.0033
 9596TIP3    H250204   5.631   0.134  15.113  0.6944 -0.2499  0.8249
 9597TIP3   OH250205   3.473   3.707  15.853  0.2119  0.1537  0.5242
 9597TIP3    H150206   3.403   3.692  15.916 -0.7243  0.1196 -0.4991
 9597TIP3    H250207   3.428   3.731  15.772  1.4294  1.7532  0.2637
 9598TIP3   OH250208   6.533   1.974   0.445 -0.2778 -0.4415 -0.2059
 9598TIP3    H150209   6.589   1.906   0.408  0.2645 -0.7139  1.0590
 9598TIP3    H250210   6.445   1.936   0.442 -0.1446 -0.7254 -0.5943
 9599TIP3   OH250211   2.944   6.625   2.879  0.0169 -0.3437  0.5786
 9599TIP3    H150212   2.930   6.671   2.961  1.5747  0.4072  0.4767
 9599TIP3    H250213   2.987   6.543   2.904 -0.2738 -0.4973  0.5730
 9600TIP3   OH250214   1.986   3.385   1.626  0.2984 -0.0730 -0.1910
 9600TIP3    H150215   1.938   3.404   1.707  0.6384 -0.2398  0.0496
 9600TIP3    H250216   1.955   3.451   1.564 -0.7244 -0.5681 -0.2348
 9601TIP3   OH250217   5.328   5.978   3.038  0.2226  0.2874  0.0025
 9601TIP3    H150218   5.378   5.983   3.120 -0.8660 -1.2853  0.8086
 9601TIP3    H250219   5.239   5.954   3.066  0.0399 -1.1941 -1.6893
 9602TIP3   OH250220   2.763   4.260   2.084  0.4642 -0.1498  0.2605
 9602TIP3    H150221   2.816   4.186   2.055 -0.3364 -0.4006 -0.6336
 9602TIP3    H250222   2.797   4.334   2.034 -0.0303 -0.3196 -0.3467
 9603TIP3   OH250223   3.507   3.842   1.842  0.1495 -0.1996 -0.1498
 9603TIP3    H150224   3.583   3.792   1.812 -0.0246 -0.2449 -0.5242
 9603TIP3    H250225   3.449   3.777   1.880  1.9721  0.2264  3.8714
 9604TIP3   OH250226   4.742   1.134  15.565  0.1714 -0.3349 -0.9629
 9604TIP3    H150227   4.749   1.148  15.471  3.3429 -0.2242 -0.7965
 9604TIP3    H250228   4.824   1.093  15.590 -0.5475 -0.3153  1.7940
 9605TIP3   OH250229   2.126   2.327   5.661  0.2138 -0.6218 -0.2169
 9605TIP3    H150230   2.120   2.392   5.732 -2.7795 -0.8217 -0.1369
 9605TIP3    H250231   2.205   2.351   5.613  0.3398  1.8201  1.0204
 9606TIP3   OH250232   4.724   6.404  14.013  0.0995 -0.0775  0.3338
 9606TIP3    H150233   4.737   6.437  14.102 -2.1629  0.1508  0.6362
 9606TIP3    H250234   4.797   6.441  13.963  0.6947  0.8565  1.8270
 9607TIP3   OH250235   6.326   4.313  15.488  0.5254  0.6150  0.2930
 9607TIP3    H150236   6.243   4.277  15.517  2.2504 -1.6062  2.9180
 9607TIP3    H250237   6.333   4.397  15.533 -0.0826  0.5887  0.4442
 9608TIP3   OH250238   3.974   5.634  14.574  0.1068  0.2608 -0.9507
 9608TIP3    H150239   3.934   5.550  14.594  0.2069  0.6195  1.0176
 9608TIP3    H250240   3.971   5.682  14.657  0.4951  2.0152 -1.8948
 9609TIP3   OH250241   4.569   2.364   6.127  0.2279  0.0423 -0.7525
 9609TIP3    H150242   4.519   2.396   6.202 -0.7505  0.2906 -1.4892
 9609TIP3    H250243   4.631   2.302   6.164 -0.9121 -0.6003  0.1426
 9610TIP3   OH250244   0.640   1.003   4.718  0.3378 -0.0430 -0.1710
 9610TIP3    H150245   0.720   0.976   4.763  0.0196 -1.6750 -0.5055
 9610TIP3    H250246   0.583   0.926   4.724  0.0979 -0.1958 -2.9206
 9611TIP3   OH250247   0.019   5.738  11.868  0.0005 -0.3533  0.2477
 9611TIP3    H150248   0.062   5.736  11.953  1.0541 -1.7579 -0.2753
 9611TIP3    H250249   0.041   5.654  11.828 -0.5454  0.2350 -1.3877
 9612TIP3   OH250250   4.590   3.091   0.856  0.1761 -0.2669  0.0198
 9612TIP3    H150251   4.633   3.058   0.777 -0.6509 -0.7892 -0.2269
 9612TIP3    H250252   4.518   3.029   0.872 -1.1978  1.1945 -0.2309
 9613TIP3   OH250253   2.847   4.436  14.388 -0.0209 -0.4461 -0.0537
 9613TIP3    H150254   2.773   4.470  14.339  0.2274  0.6359  0.3018
 9613TIP3    H250255   2.894   4.380  14.326 -1.6876 -1.9901  0.0033
 9614TIP3   OH250256   5.237   1.367   3.201 -0.1116 -0.4268  0.0996
 9614TIP3    H150257   5.172   1.365   3.131 -1.4735  3.2909  0.9900
 9614TIP3    H250258   5.320   1.385   3.156 -0.2231 -1.9030 -0.7774
 9615TIP3   OH250259   4.180   6.163   3.553  0.3134  0.0047  0.1154
 9615TIP3    H150260   4.166   6.255   3.532  1.1421 -0.2830 -1.9277
 9615TIP3    H250261   4.254   6.137   3.499 -0.1375 -1.9581  0.3598
 9616TIP3   OH250262   5.286   5.283   0.487 -1.1442  0.6816  0.2091
 9616TIP3    H150263   5.257   5.203   0.531 -1.3846  0.0370 -1.0927
 9616TIP3    H250264   5.299   5.345   0.559  0.7993 -1.0238  1.4489
 9617TIP3   OH250265   4.812   2.940   2.207 -0.1387  0.0630  0.3350
 9617TIP3    H150266   4.778   2.859   2.167  1.2040 -0.0483 -0.6517
 9617TIP3    H250267   4.737   2.976   2.254 -1.1510 -1.0419 -0.3521
 9618TIP3   OH250268   5.173   0.918   2.331  0.2429  0.0138 -0.2585
 9618TIP3    H150269   5.135   0.954   2.251  1.9221  0.2511 -0.9884
 9618TIP3    H250270   5.098   0.884   2.380 -1.0037  1.3386 -1.1629
 9619TIP3   OH250271   4.993   6.642   3.227 -0.6721  0.5208  0.1792
 9619TIP3    H150272   5.001   6.628   3.321 -0.9655  0.6640  0.2282
 9619TIP3    H250273   4.993   6.737   3.217 -1.0997  0.5152  0.0816
 9620TIP3   OH250274   5.372   5.710  12.445  0.7056  0.3062 -0.4090
 9620TIP3    H150275   5.412   5.783  12.397 -0.3596  0.6402 -0.8160
 9620TIP3    H250276   5.420   5.632  12.415  0.8651  0.6631 -1.0914
 9621TIP3   OH250277   0.775   0.281   2.229  0.1638  0.0547  0.2185
 9621TIP3    H150278   0.704   0.344   2.211  0.7939  0.5380 -0.6582
 9621TIP3    H250279   0.808   0.257   2.142 -0.7181 -2.2946  0.4518
 9622TIP3   OH250280   3.321   0.595  13.272  0.4774 -0.0939 -0.1345
 9622TIP3    H150281   3.229   0.595  13.301  0.0685  0.3718 -1.3970
 9622TIP3    H250282   3.363   0.661  13.327  0.3239 -1.0738  1.2131
 9623TIP3   OH250283   4.694   3.785   4.244 -0.1399  0.7203 -0.4135
 9623TIP3    H150284   4.728   3.829   4.166  0.7587 -0.9585 -1.0182
 9623TIP3    H250285   4.771   3.755   4.290 -0.7213  0.2383  0.2599
 9624TIP3   OH250286   3.312   6.391  13.031 -0.0560 -0.3553  0.7527
 9624TIP3    H150287   3.317   6.477  13.075  0.1779 -0.1776  0.3819
 9624TIP3    H250288   3.275   6.333  13.097 -0.4774  0.0939  0.9185
 9625TIP3   OH250289   0.385   4.583  14.065  0.2210 -0.1395  0.1836
 9625TIP3    H150290   0.343   4.567  14.149  1.3920  1.2487  1.0891
 9625TIP3    H250291   0.337   4.657  14.027 -0.2044 -0.6603 -0.3161
 9626TIP3   OH250292   0.703   6.519  17.143 -0.0675  0.6934  0.0996
 9626TIP3    H150293   0.774   6.464  17.176 -0.7494 -0.0723  0.3287
 9626TIP3    H250294   0.731   6.544  17.055  0.5339  0.4875  0.2303
 9627TIP3   OH250295   1.014   3.335  12.012 -0.0359  0.1534 -0.8658
 9627TIP3    H150296   0.979   3.280  12.082  0.7207 -0.8036 -1.2115
 9627TIP3    H250297   1.095   3.372  12.048 -0.3616  0.7597 -0.7555
 9628TIP3   OH250298   6.674   0.520  16.972  0.1909  0.0570 -0.0527
 9628TIP3    H150299   6.744   0.464  16.939 -0.3535 -0.3852 -0.4744
 9628TIP3    H250300   6.639   0.563  16.895 -2.2635 -2.3067 -0.4054
 9629TIP3   OH250301   6.529   6.741  15.034 -0.0274  0.6943 -0.0617
 9629TIP3    H150302   6.502   6.718  14.945  1.1040  0.3146 -0.3332
 9629TIP3    H250303   6.614   6.783  15.022 -0.2104  1.3148  0.7846
 9630TIP3   OH250304   5.205   5.970  11.931  0.1932 -0.3365 -0.5218
 9630TIP3    H150305   5.191   6.021  11.851  2.2656 -0.4033 -0.9817
 9630TIP3    H250306   5.169   5.883  11.911  0.9777 -0.4465 -1.5071
 9631TIP3   OH250307   2.778   4.886  14.000 -0.6030 -0.8089  0.4148
 9631TIP3    H150308   2.795   4.801  13.960 -1.1799 -1.1082  0.7979
 9631TIP3    H250309   2.751   4.866  14.090  0.9027 -0.1385  1.0468
 9632TIP3   OH250310   3.718   0.618  16.722  0.3631  0.6994 -0.5146
 9632TIP3    H150311   3.778   0.574  16.782 -0.6753 -0.2540 -0.1392
 9632TIP3    H250312   3.768   0.627  16.640  0.2153 -2.4598 -1.0807
 9633TIP3   OH250313   1.826   1.312   5.177 -0.2255  0.4051 -0.3218
 9633TIP3    H150314   1.911   1.356   5.180 -0.1749  0.3232  2.3043
 9633TIP3    H250315   1.770   1.371   5.127  0.7686  1.7099  0.0396
 9634TIP3   OH250316   2.575   3.169   4.039 -0.3982 -0.0228  0.0594
 9634TIP3    H150317   2.554   3.186   3.947 -1.8793 -0.0406  0.3725
 9634TIP3    H250318   2.507   3.215   4.088  0.6963  0.4519  1.1789
 9635TIP3   OH250319   4.891   6.700  14.767 -0.0709 -0.4121  0.1840
 9635TIP3    H150320   4.798   6.720  14.774 -0.2898 -1.2984 -0.0783
 9635TIP3    H250321   4.930   6.780  14.731 -0.7723 -0.1405  0.0106
 9636TIP3   OH250322   5.832   3.499  12.327  0.4918 -0.4118  0.0813
 9636TIP3    H150323   5.847   3.406  12.310  0.6806 -0.0245 -2.1553
 9636TIP3    H250324   5.737   3.507  12.330  0.4574 -0.5861 -0.4026
 9637TIP3   OH250325   1.792   3.567   1.796 -0.6787 -0.2251  0.3663
 9637TIP3    H150326   1.703   3.573   1.830 -0.0520 -0.2814  2.1234
 9637TIP3    H250327   1.821   3.658   1.786 -0.4726 -0.1866  1.1729
 9638TIP3   OH250328   0.099   2.521   4.758  0.6873 -0.1789  0.5015
 9638TIP3    H150329   0.023   2.565   4.720  2.9138  0.2365 -4.1605
 9638TIP3    H250330   0.112   2.444   4.703  1.5508 -2.4446  3.5681
 9639TIP3   OH250331   3.132   0.349  15.305  0.1335 -0.2744 -0.1326
 9639TIP3    H150332   3.038   0.362  15.294  0.4468  0.7645 -2.0791
 9639TIP3    H250333   3.171   0.432  15.276  1.6163 -0.0699  2.1925
 9640TIP3   OH250334   4.293   6.357   2.581 -0.6261 -0.4971  0.0385
 9640TIP3    H150335   4.373   6.304   2.583 -1.2078 -1.3784  1.4037
 9640TIP3    H250336   4.248   6.330   2.501 -0.3729 -1.2776  0.1492
 9641TIP3   OH250337   5.514   1.747   0.239 -0.6637 -0.5961  0.1103
 9641TIP3    H150338   5.511   1.666   0.188 -3.1183 -0.7819  0.4639
 9641TIP3    H250339   5.566   1.725   0.316  0.8823 -1.0470 -0.9929
 9642TIP3   OH250340   6.151   0.403   3.936 -0.5392 -0.1771  0.2678
 9642TIP3    H150341   6.244   0.393   3.956 -0.1873  1.9233 -0.0646
 9642TIP3    H250342   6.107   0.396   4.021 -0.4419 -3.7216  0.1810
 9643TIP3   OH250343   6.359   1.892  11.387  0.4417  0.0841  0.1333
 9643TIP3    H150344   6.382   1.909  11.478 -1.3508 -0.4789  0.7220
 9643TIP3    H250345   6.301   1.816  11.391 -0.5143  0.6937 -1.3738
 9644TIP3   OH250346   4.483   1.403  10.798  0.2824  0.0930  0.2342
 9644TIP3    H150347   4.443   1.318  10.782  0.1004  0.2307 -0.0425
 9644TIP3    H250348   4.459   1.456  10.722  1.9652 -0.1809 -0.5301
 9645TIP3   OH250349   0.091   5.858  17.341  0.0825  0.2120  0.5465
 9645TIP3    H150350   0.077   5.937  17.393  0.5373  1.2746 -0.8916
 9645TIP3    H250351   0.083   5.887  17.250 -1.6068 -1.7577 -0.0082
 9646TIP3   OH250352   1.865   1.611   1.494  0.6215 -0.0865  0.0962
 9646TIP3    H150353   1.794   1.664   1.458  0.9612  1.3465  1.4143
 9646TIP3    H250354   1.823   1.528   1.518 -0.0867 -0.1607 -1.2693
 9647TIP3   OH250355   4.612   3.318  12.550 -0.7011 -0.0392 -0.3555
 9647TIP3    H150356   4.694   3.364  12.531 -0.0418 -0.6835  0.8424
 9647TIP3    H250357   4.543   3.384  12.535  0.0983  0.7924 -0.4394
 9648TIP3   OH250358   0.910   3.776   2.521  0.5116  0.0807 -0.6574
 9648TIP3    H150359   1.003   3.752   2.528 -0.0599 -2.4384 -0.6340
 9648TIP3    H250360   0.902   3.816   2.434  1.6894  0.8162 -0.4495
 9649TIP3   OH250361   2.542   2.948   0.886 -0.3537  0.0106 -0.2066
 9649TIP3    H150362   2.609   3.014   0.870 -0.8100  0.9229  1.4126
 9649TIP3    H250363   2.465   2.979   0.837  0.5655 -1.4722 -2.7597
 9650TIP3   OH250364   6.738   2.764  11.489  0.0351  0.2137  0.6666
 9650TIP3    H150365   6.818   2.813  11.506  0.1595  0.5903 -0.8243
 9650TIP3    H250366   6.752   2.724  11.403 -0.1857 -2.2496  1.7117
 9651TIP3   OH250367   5.444   5.638   3.972 -0.3607  0.2839 -0.2910
 9651TIP3    H150368   5.516   5.649   3.909  0.2615 -0.7422  0.2004
 9651TIP3    H250369   5.382   5.707   3.950  0.1606  0.3744 -1.5886
 9652TIP3   OH250370   0.052   1.259  14.725  0.2990 -0.1942 -0.0778
 9652TIP3    H150371  -0.019   1.205  14.692  0.0980  0.7404 -1.2367
 9652TIP3    H250372   0.052   1.243  14.820 -0.2191 -1.6275 -0.2957
 9653TIP3   OH250373   6.145   4.660   2.807 -0.5677  0.4700  0.5101
 9653TIP3    H150374   6.234   4.635   2.779 -0.8185 -0.5504  0.5926
 9653TIP3    H250375   6.151   4.666   2.902 -0.4174  1.1197  0.4651
 9654TIP3   OH250376   6.041   5.734   0.086  0.2601  0.8963  0.0820
 9654TIP3    H150377   5.954   5.695   0.080  0.5166  0.3942 -0.4279
 9654TIP3    H250378   6.098   5.673   0.040  1.4719 -0.5518  3.2180
 9655TIP3   OH250379   3.614   4.560   3.521  0.2909 -0.1247 -0.2474
 9655TIP3    H150380   3.570   4.599   3.445 -1.2170 -0.6253  0.3247
 9655TIP3    H250381   3.707   4.571   3.503 -0.0520  0.9695 -1.5341
 9656TIP3   OH250382   4.703   1.021  17.019  0.4136 -0.2188  0.4789
 9656TIP3    H150383   4.776   0.982  16.971 -0.2071 -0.1362 -0.5803
 9656TIP3    H250384   4.698   1.111  16.986  1.0956  0.4182  2.0391
 9657TIP3   OH250385   6.244   3.268   3.835 -0.1880 -0.0575 -0.0874
 9657TIP3    H150386   6.243   3.306   3.747  0.8763 -0.6000 -0.3577
 9657TIP3    H250387   6.304   3.193   3.827 -0.2369 -0.2285  1.0557
 9658TIP3   OH250388   3.027   1.390   1.223 -0.2586  0.1077 -0.0072
 9658TIP3    H150389   3.087   1.320   1.248  0.8322  0.8464 -0.4700
 9658TIP3    H250390   3.036   1.397   1.128  1.1518  2.1506  0.2143
 9659TIP3   OH250391   1.960   2.134  13.259  0.1628 -0.0922  0.2421
 9659TIP3    H150392   1.879   2.166  13.218  1.2590  0.7013 -1.3828
 9659TIP3    H250393   2.012   2.100  13.187  1.1789 -0.8644  1.3074
 9660TIP3   OH250394   1.342   6.104  13.141  0.2364  0.1318 -0.0044
 9660TIP3    H150395   1.418   6.055  13.171  0.2886 -0.6150 -1.2587
 9660TIP3    H250396   1.267   6.050  13.167  0.1728  0.4952  0.5714
 9661TIP3   OH250397   2.470   0.651  13.517  0.0525 -0.2493 -0.1246
 9661TIP3    H150398   2.375   0.641  13.524  0.2216 -0.9387  1.6072
 9661TIP3    H250399   2.502   0.647  13.607  1.5850  1.6772 -0.5058
 9662TIP3   OH250400   5.654   0.519  13.446 -0.0313 -0.8881 -0.2289
 9662TIP3    H150401   5.668   0.611  13.422 -0.1316 -1.1030 -1.1305
 9662TIP3    H250402   5.709   0.506  13.523 -0.2217 -0.0015  0.0758
 9663TIP3   OH250403   0.634   0.802   0.935  0.4318  0.4900  0.5199
 9663TIP3    H150404   0.694   0.793   1.009 -1.2008  2.2636  2.1999
 9663TIP3    H250405   0.618   0.713   0.906  3.8397 -0.0629 -0.0700
 9664TIP3   OH250406   2.224   5.817   4.076  0.2794 -0.1309  0.3909
 9664TIP3    H150407   2.139   5.804   4.117  0.5191  0.8207  1.2371
 9664TIP3    H250408   2.206   5.875   4.002  0.0423 -0.8281 -0.1162
 9665TIP3   OH250409   3.825   1.754  12.389 -0.4689  0.2768  0.0616
 9665TIP3    H150410   3.835   1.746  12.295  1.9163  1.2410  0.1790
 9665TIP3    H250411   3.739   1.796  12.401 -0.6976  0.3488 -1.6610
 9666TIP3   OH250412   0.601   4.815   5.610  0.5253  0.0551  0.8465
 9666TIP3    H150413   0.578   4.799   5.701 -0.9874  0.2567  0.5374
 9666TIP3    H250414   0.603   4.728   5.570 -1.7011  0.1058  0.4812
 9667TIP3   OH250415   2.814   0.287  16.039  0.3118 -0.1837 -0.0907
 9667TIP3    H150416   2.746   0.353  16.052 -0.3585 -1.1464  1.4210
 9667TIP3    H250417   2.887   0.316  16.094  0.0412 -0.6645  0.5246
 9668TIP3   OH250418   3.561   2.334   2.970 -0.0313  0.0565 -0.0298
 9668TIP3    H150419   3.645   2.294   2.949  0.2677 -0.0492  1.2726
 9668TIP3    H250420   3.582   2.403   3.033 -0.9595 -0.3294  0.7364
 9669TIP3   OH250421   1.688   1.922   4.003  0.2855  0.1089  0.1001
 9669TIP3    H150422   1.627   1.992   3.980  1.1812  1.0892  0.6691
 9669TIP3    H250423   1.671   1.904   4.095 -0.1202 -0.6363 -0.1024
 9670TIP3   OH250424   3.624   5.133   5.459 -0.3037  0.0426  0.7476
 9670TIP3    H150425   3.645   5.061   5.398  0.4365 -0.0850  1.1391
 9670TIP3    H250426   3.698   5.193   5.451  0.1227 -0.2866  1.9788
 9671TIP3   OH250427   6.095   6.407   0.723  0.9403 -0.1773  0.3884
 9671TIP3    H150428   6.053   6.323   0.740 -0.5174  0.5147  0.3367
 9671TIP3    H250429   6.029   6.472   0.745  1.5500  0.9310 -0.9198
 9672TIP3   OH250430   3.468   4.946   0.531  0.2344 -0.4541  0.2761
 9672TIP3    H150431   3.399   4.901   0.483 -0.1751  0.5475 -0.1082
 9672TIP3    H250432   3.449   5.039   0.518  1.9081 -0.1482 -0.2136
 9673TIP3   OH250433   5.915   5.256   4.369 -0.3146 -0.6067  0.1064
 9673TIP3    H150434   5.982   5.188   4.363  2.4611  1.8370  0.6530
 9673TIP3    H250435   5.911   5.293   4.280 -2.4597 -1.9058 -0.4208
 9674TIP3   OH250436   5.196   5.790  15.976  0.4473 -0.2134 -0.8858
 9674TIP3    H150437   5.123   5.834  15.932  1.0917  1.8777  0.0327
 9674TIP3    H250438   5.179   5.697  15.961 -1.8231  0.2383 -1.6038
 9675TIP3   OH250439   1.126   3.753   0.392  0.5471  0.2587  0.3379
 9675TIP3    H150440   1.147   3.829   0.337  0.0480 -0.6652 -1.1698
 9675TIP3    H250441   1.211   3.727   0.429  1.2947 -0.3518 -1.6689
 9676TIP3   OH250442   2.403   2.780  15.833  0.2201  0.0440  0.0970
 9676TIP3    H150443   2.382   2.828  15.914  1.0870 -0.3066  0.5437
 9676TIP3    H250444   2.417   2.849  15.768 -0.7685  0.3236  0.1545
 9677TIP3   OH250445   4.135   5.809  13.795  0.2856 -0.1753 -0.5535
 9677TIP3    H150446   4.151   5.774  13.882  2.0882 -1.1625 -1.2234
 9677TIP3    H250447   4.136   5.904  13.806  0.4187 -0.2868  0.5017
 9678TIP3   OH250448   0.404   2.452  10.736 -0.2565  0.3594  0.0193
 9678TIP3    H150449   0.461   2.528  10.749  3.3510 -2.0948  0.1174
 9678TIP3    H250450   0.433   2.414  10.653 -0.0953 -2.2178  1.1373
 9679TIP3   OH250451   6.430   2.280  15.286 -0.3787  0.0125 -0.2657
 9679TIP3    H150452   6.418   2.349  15.220 -2.4594  0.7033  0.7471
 9679TIP3    H250453   6.352   2.224  15.277 -0.3517 -0.2832  1.1174
 9680TIP3   OH250454   1.989   4.227  12.845  0.6023 -0.2147 -0.1973
 9680TIP3    H150455   2.003   4.147  12.896  0.0954  0.2566  0.7100
 9680TIP3    H250456   2.077   4.263  12.832  0.6844  0.1168  1.1299
 9681TIP3   OH250457   6.306   6.145  16.493 -0.4739 -0.3182 -0.2977
 9681TIP3    H150458   6.355   6.216  16.534 -0.0065 -0.3543 -0.7773
 9681TIP3    H250459   6.253   6.187  16.425 -2.0560 -0.1169  1.0092
 9682TIP3   OH250460   0.726   6.735   5.767 -0.0505 -0.2592 -0.9084
 9682TIP3    H150461   0.669   6.806   5.738 -0.8201 -1.1834 -1.7056
 9682TIP3    H250462   0.689   6.656   5.728  0.3819 -1.2122  0.4990
 9683TIP3   OH250463   1.411   2.321  12.805 -1.1248 -0.0931  0.3617
 9683TIP3    H150464   1.348   2.334  12.875 -0.2490  1.7837  0.8779
 9683TIP3    H250465   1.469   2.398  12.811 -1.3884  0.4748 -2.8067
 9684TIP3   OH250466   2.290   1.756  16.097  0.0544 -0.2175  0.4742
 9684TIP3    H150467   2.300   1.675  16.046 -1.3605 -0.2608  0.2119
 9684TIP3    H250468   2.379   1.779  16.124  0.7754 -0.5871 -1.4251
 9685TIP3   OH250469   2.477   6.124  16.233 -0.3099 -0.6403  0.8152
 9685TIP3    H150470   2.453   6.184  16.304 -0.0873 -1.0612  1.2475
 9685TIP3    H250471   2.573   6.120  16.237 -0.2268  0.1125 -0.1502
 9686TIP3   OH250472   2.271   5.879   4.629 -0.3767  0.2151 -1.0769
 9686TIP3    H150473   2.179   5.878   4.653 -0.3219  0.2113 -0.8709
 9686TIP3    H250474   2.301   5.967   4.651  0.6027 -0.8276  2.3496
 9687TIP3   OH250475   6.503   6.008   4.290 -0.3005 -0.4154  0.0314
 9687TIP3    H150476   6.561   5.955   4.235 -0.0511  0.5243 -0.6338
 9687TIP3    H250477   6.545   6.007   4.376  0.8304  0.4037 -0.4836
 9688TIP3   OH250478   1.621   2.605  16.736 -0.6272 -0.3679 -0.0326
 9688TIP3    H150479   1.656   2.549  16.805 -0.7838 -1.7695 -1.0563
 9688TIP3    H250480   1.648   2.694  16.761 -2.9906 -0.4277  3.2482
 9689TIP3   OH250481   3.163   3.426  12.574 -0.0155 -0.0826 -0.2263
 9689TIP3    H150482   3.096   3.483  12.535  0.2737 -0.3667 -1.1604
 9689TIP3    H250483   3.242   3.442  12.521  1.3049  1.8259  2.1310
 9690TIP3   OH250484   0.232   5.034  11.179  0.5631  0.4016  0.2647
 9690TIP3    H150485   0.314   4.991  11.156  0.9811  1.4777 -0.3235
 9690TIP3    H250486   0.167   4.963  11.180  1.2189 -0.2323 -0.6878
 9691TIP3   OH250487   2.470   0.563  12.031  0.3345 -0.1268 -0.1078
 9691TIP3    H150488   2.495   0.499  11.964 -0.3930 -0.7715  0.2110
 9691TIP3    H250489   2.448   0.509  12.107 -1.1617  0.4425 -0.1082
 9692TIP3   OH250490   4.301   1.827  12.685  0.3299  0.0130 -0.0796
 9692TIP3    H150491   4.364   1.765  12.722  0.0961 -0.2105 -0.0520
 9692TIP3    H250492   4.218   1.780  12.685  0.3364 -0.0122 -0.9532
 9693TIP3   OH250493   6.319   4.526  12.302 -0.3735  0.0366  0.2604
 9693TIP3    H150494   6.352   4.543  12.391  0.0669 -1.0005  0.3068
 9693TIP3    H250495   6.237   4.575  12.297  1.2197  2.9108  0.0663
 9694TIP3   OH250496   3.866   2.517  13.041  0.0375  0.2983  0.2196
 9694TIP3    H150497   3.785   2.557  13.076 -0.5234 -0.6652  0.0568
 9694TIP3    H250498   3.920   2.592  13.017 -0.3079  0.9876  1.4509
 9695TIP3   OH250499   5.110   5.509  11.376  0.0201  0.6155  0.0399
 9695TIP3    H150500   5.145   5.466  11.297  0.1092  1.1449 -0.2130
 9695TIP3    H250501   5.145   5.457  11.448  0.1923  0.3069 -0.2597
 9696TIP3   OH250502   1.547   6.478  10.411 -0.2558  0.5808  0.3990
 9696TIP3    H150503   1.622   6.449  10.360 -1.1203  0.4383 -0.8483
 9696TIP3    H250504   1.481   6.502  10.346 -0.9361  1.6943  1.4439
 9697TIP3   OH250505   2.147   2.638  16.194  0.2253 -0.0207 -0.1473
 9697TIP3    H150506   2.226   2.661  16.144  0.3593  0.4592  0.2683
 9697TIP3    H250507   2.126   2.718  16.242 -0.2703 -0.2814  0.0740
 9698TIP3   OH250508   2.400   0.216  12.771 -0.0854 -0.1487 -0.0160
 9698TIP3    H150509   2.333   0.259  12.824  0.9109  0.2149  0.9832
 9698TIP3    H250510   2.402   0.265  12.689 -1.0335 -0.1682 -0.0595
 9699TIP3   OH250511   2.057   5.372  11.665  0.2375 -0.0342  0.0225
 9699TIP3    H150512   1.969   5.367  11.627  0.6831 -1.9943 -0.8890
 9699TIP3    H250513   2.107   5.427  11.604  0.0804 -0.3332 -0.3738
 9700TIP3   OH250514   0.858   2.566  12.224  0.1350  0.7400  0.3889
 9700TIP3    H150515   0.886   2.650  12.261 -0.0452  0.4266  1.2597
 9700TIP3    H250516   0.764   2.563  12.241  0.0224  0.6456 -0.2296
 9701TIP3   OH250517   1.851   6.284   1.210 -0.2509 -0.5300 -0.3293
 9701TIP3    H150518   1.807   6.358   1.253  0.5966 -0.5621  0.6175
 9701TIP3    H250519   1.825   6.292   1.118  0.3419  1.3678 -0.3972
 9702TIP3   OH250520   4.653   4.433  15.687  0.5066 -0.1084 -0.4453
 9702TIP3    H150521   4.659   4.362  15.622 -0.7263 -1.4254  0.8229
 9702TIP3    H250522   4.712   4.500  15.653  0.3909 -0.9978 -2.6131
 9703TIP3   OH250523   1.478   1.947  11.759  0.2398 -0.8741  0.3871
 9703TIP3    H150524   1.540   1.985  11.820  0.1239  0.0367 -0.0428
 9703TIP3    H250525   1.515   1.861  11.737 -0.3653 -1.7868  2.6857
 9704TIP3   OH250526   1.864   0.608  17.094 -0.5420  0.2071 -0.4733
 9704TIP3    H150527   1.889   0.531  17.145 -1.8050  0.1786  0.1532
 9704TIP3    H250528   1.925   0.677  17.123  0.5330 -0.5115 -0.9703
 9705TIP3   OH250529   3.512   3.234  12.366  0.2189 -0.0036 -0.6948
 9705TIP3    H150530   3.593   3.185  12.355  0.3369  0.7665 -4.4975
 9705TIP3    H250531   3.443   3.174  12.338 -0.5215 -0.2909  1.5105
 9706TIP3   OH250532   5.572   2.356  10.948 -0.4055 -0.4160  0.0585
 9706TIP3    H150533   5.543   2.338  10.858 -0.8742 -1.0678  0.3322
 9706TIP3    H250534   5.581   2.451  10.951  0.1595 -0.4248 -0.8415
 9707TIP3   OH250535   5.290   4.665  15.328  0.2868  0.0571  0.1345
 9707TIP3    H150536   5.281   4.592  15.390  0.6638 -0.0063  0.1170
 9707TIP3    H250537   5.224   4.728  15.356  0.7406  0.2160  0.8658
 9708TIP3   OH250538   2.316   3.850   5.823 -0.3225 -0.3434 -0.2493
 9708TIP3    H150539   2.304   3.845   5.729 -1.6698 -0.6404 -0.0714
 9708TIP3    H250540   2.287   3.938   5.847  2.0779  0.5658 -0.3630
 9709TIP3   OH250541   0.728   4.936  13.329 -0.8892 -0.2432  0.6856
 9709TIP3    H150542   0.805   4.900  13.373 -1.1195  0.0585  1.3395
 9709TIP3    H250543   0.737   4.906  13.238  0.3094  0.2888  0.6064
 9710TIP3   OH250544   4.402   3.459  12.496 -0.2261 -0.4419 -0.5107
 9710TIP3    H150545   4.414   3.518  12.422  0.4672  0.5471  0.3522
 9710TIP3    H250546   4.309   3.437  12.495 -0.2599 -0.2955 -1.5563
 9711TIP3   OH250547   2.196   3.773  12.060  0.1127  0.2846 -0.8132
 9711TIP3    H150548   2.197   3.715  12.136  0.7142  1.3834  0.0475
 9711TIP3    H250549   2.178   3.860  12.096  0.3381  0.8142 -1.9313
 9712TIP3   OH250550   2.221   3.839  10.696 -0.0254 -0.3970 -0.3414
 9712TIP3    H150551   2.286   3.799  10.638 -0.3289  0.0388 -0.9996
 9712TIP3    H250552   2.270   3.860  10.776  0.3471 -1.2050 -0.3499
 9713TIP3   OH250553   6.401   0.785   5.330 -0.1507  0.6203  0.1287
 9713TIP3    H150554   6.371   0.701   5.296  0.5327 -0.1886  1.4333
 9713TIP3    H250555   6.387   0.847   5.258  2.1162 -1.1248 -1.9709
 9714TIP3   OH250556   2.526   0.987   0.897  0.5957 -0.6360  0.0634
 9714TIP3    H150557   2.512   1.026   0.984 -0.1773  0.6888 -0.6196
 9714TIP3    H250558   2.544   1.062   0.840  1.6041 -1.5369 -0.8437
 9715TIP3   OH250559   5.973   2.199  16.557  0.0826 -0.5148  0.0907
 9715TIP3    H150560   5.997   2.288  16.532 -2.2083  0.1260 -0.0314
 9715TIP3    H250561   5.933   2.162  16.478 -0.0083 -1.2552  0.4764
 9716TIP3   OH250562   2.118   0.647   0.312 -0.0080 -0.5066 -0.1632
 9716TIP3    H150563   2.167   0.569   0.288  0.6939 -0.3119  0.5848
 9716TIP3    H250564   2.033   0.614   0.342 -1.0670 -0.7496 -3.0682
 9717TIP3   OH250565   4.456   2.641   0.802  0.2255 -0.4506 -0.0816
 9717TIP3    H150566   4.405   2.562   0.818 -0.3451  0.0577  0.6583
 9717TIP3    H250567   4.413   2.709   0.854  1.8137 -0.0584  0.7912
 9718TIP3   OH250568   3.754   4.155   4.391  0.2160 -0.2356 -0.0788
 9718TIP3    H150569   3.693   4.102   4.443 -0.2885 -0.7669 -1.1642
 9718TIP3    H250570   3.710   4.240   4.382  0.7449  0.1832  1.1472
 9719TIP3   OH250571   1.011   0.676   2.263  0.3063 -0.5776  0.4302
 9719TIP3    H150572   0.978   0.754   2.309  0.8869 -0.1844  0.2039
 9719TIP3    H250573   1.004   0.699   2.170 -0.1927 -1.0850  0.3418
 9720TIP3   OH250574   6.510   0.383   2.783 -0.5666 -0.5313  0.5000
 9720TIP3    H150575   6.475   0.446   2.846  1.9266  1.0026  0.4706
 9720TIP3    H250576   6.487   0.298   2.820 -2.1545  0.3448  1.6727
 9721TIP3   OH250577   4.516   1.637  17.066  0.0515  0.2233 -0.1867
 9721TIP3    H150578   4.536   1.611  17.156 -0.5177  0.0352 -0.1072
 9721TIP3    H250579   4.601   1.651  17.025  0.3189  0.1011  0.3203
 9722TIP3   OH250580   2.267   2.366   1.026 -0.3108 -0.1436 -0.3466
 9722TIP3    H150581   2.195   2.306   1.008  0.5695 -0.6573 -2.4625
 9722TIP3    H250582   2.343   2.309   1.038  0.0688  0.4544  0.1569
 9723TIP3   OH250583   5.800   2.058  17.260  0.3175  0.2670 -0.0332
 9723TIP3    H150584   5.782   2.032  17.350  2.9943 -1.4729  0.1062
 9723TIP3    H250585   5.731   2.014  17.209  1.4304 -2.7009  0.7833
 9724TIP3   OH250586   4.665   1.115   5.344 -0.2558 -0.8781 -0.2031
 9724TIP3    H150587   4.577   1.121   5.308 -0.0048  0.8723 -0.6059
 9724TIP3    H250588   4.658   1.048   5.413 -1.8339 -0.9098 -0.3515
 9725TIP3   OH250589   4.755   3.227   3.065 -0.3758 -0.3837  0.0979
 9725TIP3    H150590   4.849   3.243   3.072 -0.4859  0.0379  0.7233
 9725TIP3    H250591   4.731   3.190   3.150 -0.7668 -0.5113 -0.0681
 9726TIP3   OH250592   0.554   3.731  15.118 -0.0570  0.0171  0.0913
 9726TIP3    H150593   0.607   3.655  15.140 -0.7414 -0.9444 -1.3791
 9726TIP3    H250594   0.609   3.806  15.140  0.6661 -0.8754  1.5072
 9727TIP3   OH250595   2.198   5.491   5.015  0.5444 -0.4376 -0.6440
 9727TIP3    H150596   2.178   5.426   5.082  0.3652  1.3287  1.0843
 9727TIP3    H250597   2.119   5.545   5.009  0.8077 -0.1378 -1.7977
 9728TIP3   OH250598   5.612   4.347  15.514  0.2902 -0.1230  0.5577
 9728TIP3    H150599   5.600   4.439  15.492 -1.1344 -0.6551 -1.1050
 9728TIP3    H250600   5.703   4.341  15.541  0.0761  1.9970  1.9892
 9729TIP3   OH250601   0.917   5.386   2.099  0.1366 -0.3135 -0.0088
 9729TIP3    H150602   0.856   5.429   2.039 -0.3231 -0.7814  0.1203
 9729TIP3    H250603   0.943   5.305   2.055  0.1546 -0.4363  0.2235
 9730TIP3   OH250604   6.309   0.327   0.520  0.3343 -0.1476 -0.1420
 9730TIP3    H150605   6.250   0.261   0.482  1.1692 -1.7602  1.2018
 9730TIP3    H250606   6.355   0.364   0.445 -0.4894 -0.7497 -0.9796
 9731TIP3   OH250607   2.327   2.679   1.040 -0.0831 -0.2695 -0.0749
 9731TIP3    H150608   2.330   2.681   1.135  1.1855  1.4614 -0.0880
 9731TIP3    H250609   2.340   2.587   1.017 -0.7449 -0.7617  1.4120
 9732TIP3   OH250610   4.646   0.534  15.680 -0.0944  0.3004  0.8007
 9732TIP3    H150611   4.571   0.590  15.697  0.8154  1.5471  0.8067
 9732TIP3    H250612   4.619   0.478  15.607 -0.7826  1.2011  0.3545
 9733TIP3   OH250613   2.468   6.556  15.156  0.3110  0.4456  0.1643
 9733TIP3    H150614   2.412   6.633  15.152 -0.2595  0.0438  0.2836
 9733TIP3    H250615   2.506   6.557  15.244  1.2514  1.2348 -0.2320
 9734TIP3   OH250616   1.936   1.731  16.456 -0.5554 -0.2114  0.3465
 9734TIP3    H150617   1.889   1.725  16.373 -1.6987 -3.4207  1.0846
 9734TIP3    H250618   2.012   1.674  16.444 -0.8287 -0.8471  1.5229
 9735TIP3   OH250619   3.509   0.632   5.868  0.4884  0.1186  0.5485
 9735TIP3    H150620   3.572   0.570   5.905  0.6193 -0.4941 -0.6495
 9735TIP3    H250621   3.553   0.717   5.875  1.7647 -0.3807 -0.8802
 9736TIP3   OH250622   1.161   3.266   0.241  0.3334  0.4960 -0.4282
 9736TIP3    H150623   1.127   3.177   0.225  0.0058  0.4754  0.3405
 9736TIP3    H250624   1.131   3.317   0.166 -1.0709  0.3795  0.0224
 9737TIP3   OH250625   4.433   1.473   5.528  0.0676 -0.0802 -0.4584
 9737TIP3    H150626   4.378   1.513   5.461  1.2637  2.0513 -0.2369
 9737TIP3    H250627   4.518   1.459   5.484  1.0864  1.9861  0.7005
 9738TIP3   OH250628   3.977   6.667  14.961  0.4225  0.1797  0.2179
 9738TIP3    H150629   4.021   6.718  15.029  0.0805 -1.6520  1.9178
 9738TIP3    H250630   4.021   6.691  14.880  1.6335  1.5853  1.2503
 9739TIP3   OH250631   2.840   3.532   1.396  0.0336 -0.3942  0.2459
 9739TIP3    H150632   2.896   3.609   1.403  0.9351 -1.1011  1.1148
 9739TIP3    H250633   2.871   3.474   1.465 -1.5318 -0.9777  0.4804
 9740TIP3   OH250634   6.372   4.283  12.130 -0.2296  0.0005 -0.3922
 9740TIP3    H150635   6.341   4.371  12.152  0.5715  0.3505 -0.6296
 9740TIP3    H250636   6.467   4.291  12.125  0.0557 -1.3610  1.6629
 9741TIP3   OH250637   3.126   5.162   4.179 -0.5380 -0.1726 -0.0190
 9741TIP3    H150638   3.166   5.239   4.139 -0.2499 -0.4098 -0.1941
 9741TIP3    H250639   3.051   5.196   4.228  0.0450  0.3219  0.5514
 9742TIP3   OH250640   5.732   6.348   0.678 -0.6458  0.6613  0.0441
 9742TIP3    H150641   5.766   6.319   0.763 -1.4226  0.7838  0.4009
 9742TIP3    H250642   5.734   6.269   0.624  1.0164  0.8476 -0.2216
 9743TIP3   OH250643   2.244   3.455  13.157 -0.1862 -0.0883  0.6094
 9743TIP3    H150644   2.258   3.362  13.173 -0.3977 -0.4372 -1.0470
 9743TIP3    H250645   2.301   3.476  13.083 -1.0654  0.7907  0.1449
 9744TIP3   OH250646   2.050   2.945   4.464 -0.2087  0.0141 -0.6189
 9744TIP3    H150647   2.117   2.988   4.518  0.3119  0.5209 -1.6459
 9744TIP3    H250648   2.026   2.867   4.515 -0.3897  0.9358  0.7580
 9745TIP3   OH250649   1.134   4.701   0.301 -0.3716 -0.1109 -0.2278
 9745TIP3    H150650   1.192   4.633   0.334 -1.7954 -2.3360 -1.9565
 9745TIP3    H250651   1.053   4.690   0.351 -0.9965 -0.4966 -1.2865
 9746TIP3   OH250652   0.829   4.956   0.739 -0.7141  0.2428 -0.2056
 9746TIP3    H150653   0.849   5.045   0.768 -1.3772  1.7776 -3.9592
 9746TIP3    H250654   0.887   4.901   0.791  0.3745  2.9090  1.6397
 9747TIP3   OH250655   4.270   1.257  11.459  0.9314 -0.3256  0.0349
 9747TIP3    H150656   4.235   1.212  11.537  1.3254  0.6331  0.7853
 9747TIP3    H250657   4.333   1.195  11.423  1.7486 -0.2548  1.2666
 9748TIP3   OH250658   1.900   0.617  10.434 -0.0278 -0.4616 -0.7194
 9748TIP3    H150659   1.919   0.702  10.474 -0.3878 -1.1290  0.9921
 9748TIP3    H250660   1.815   0.593  10.470  0.3249 -1.7956 -0.7388
 9749TIP3   OH250661   5.547   4.001  11.711 -0.1579 -0.3855  0.4020
 9749TIP3    H150662   5.551   3.906  11.720  0.3739 -0.5923 -1.5062
 9749TIP3    H250663   5.638   4.028  11.709 -0.2947  0.0526 -0.0039
 9750TIP3   OH250664   0.614   2.599  16.215 -0.0571 -0.0973 -0.0159
 9750TIP3    H150665   0.549   2.587  16.146 -0.1812  0.1287  0.0605
 9750TIP3    H250666   0.697   2.579  16.174 -0.1876 -0.5027 -0.0862
 9751TIP3   OH250667   4.457   1.171  13.092  0.2959  0.3941 -0.1639
 9751TIP3    H150668   4.412   1.153  13.174  0.5588  0.9550  0.1068
 9751TIP3    H250669   4.549   1.155  13.111  0.3382  0.3503 -0.4000
 9752TIP3   OH250670   4.867   3.896  16.428  0.5728 -0.2476  0.2754
 9752TIP3    H150671   4.886   3.850  16.509  0.2034  1.4034  1.3329
 9752TIP3    H250672   4.804   3.840  16.383  1.4909 -1.6310  0.6522
 9753TIP3   OH250673   6.297   0.194  15.569 -0.8473  0.6252 -0.0622
 9753TIP3    H150674   6.222   0.139  15.593 -2.1575  2.6680  0.7859
 9753TIP3    H250675   6.299   0.191  15.473 -3.3640  2.1212 -0.2482
 9754TIP3   OH250676   3.112   0.000  16.160  0.2977 -0.0147 -0.2020
 9754TIP3    H150677   3.184   0.034  16.213 -0.1804  1.5766 -0.5060
 9754TIP3    H250678   3.034   0.011  16.215  0.1106 -0.5743 -0.3457
 9755TIP3   OH250679   3.315   0.157  15.192 -0.0621  0.0338 -0.3838
 9755TIP3    H150680   3.318   0.172  15.097 -0.3381 -2.3552 -0.8242
 9755TIP3    H250681   3.255   0.225  15.224 -1.0785  0.0388 -2.1322
 9756TIP3   OH250682   1.307   2.165   4.462  0.1702 -0.6346  0.3670
 9756TIP3    H150683   1.355   2.248   4.457  0.5239 -0.8524  0.0547
 9756TIP3    H250684   1.345   2.112   4.392 -0.3175 -0.9229  0.3192
 9757TIP3   OH250685   2.904   0.256  10.428  0.2589 -0.4185  1.3438
 9757TIP3    H150686   2.877   0.322  10.365  2.7326 -0.6428 -0.0998
 9757TIP3    H250687   2.861   0.176  10.399  1.1982 -0.4724 -0.0254
 9758TIP3   OH250688   0.695   1.199  16.700 -0.2591 -0.5345  0.4407
 9758TIP3    H150689   0.606   1.176  16.675 -0.3531  0.5720 -0.3543
 9758TIP3    H250690   0.693   1.295  16.708  0.5548 -0.6013  1.6474
 9759TIP3   OH250691   1.480   1.233   6.168  0.5087  0.0748 -0.1560
 9759TIP3    H150692   1.549   1.274   6.221 -2.0308  1.2179  2.5803
 9759TIP3    H250693   1.469   1.292   6.094  0.8999  1.1716  0.6262
 9760TIP3   OH250694   4.093   2.453  12.851 -0.2531 -0.6833 -0.0743
 9760TIP3    H150695   4.029   2.427  12.916 -0.6409  1.3446  0.4292
 9760TIP3    H250696   4.093   2.381  12.787 -1.0194 -1.9682  1.3101
 9761TIP3   OH250697   0.606   5.280   1.963 -0.1595  0.2332 -0.5050
 9761TIP3    H150698   0.566   5.277   1.876 -1.0728  1.7892 -0.1851
 9761TIP3    H250699   0.561   5.352   2.007  0.1092 -0.6923  1.3603
 9762TIP3   OH250700   3.961   3.192   3.184  0.3813 -0.0566 -0.2657
 9762TIP3    H150701   4.048   3.153   3.195  0.2109 -0.0612  1.3067
 9762TIP3    H250702   3.912   3.163   3.261 -0.8024  0.5245 -0.7740
 9763TIP3   OH250703   5.908   1.419   5.483 -0.1331 -0.2689 -0.1389
 9763TIP3    H150704   5.978   1.353   5.488 -0.0858 -0.2122 -0.0556
 9763TIP3    H250705   5.844   1.382   5.422  0.1871 -0.1173 -0.5705
 9764TIP3   OH250706   3.011   6.137   0.831  0.2727 -0.0295  0.1055
 9764TIP3    H150707   3.026   6.225   0.866  0.5619  0.4436 -1.1665
 9764TIP3    H250708   3.094   6.092   0.847  0.4178  0.1957  0.0001
 9765TIP3   OH250709   3.931   0.986   6.259  0.2185 -0.3362 -0.1605
 9765TIP3    H150710   3.930   0.890   6.255 -1.3781 -0.4225  1.3322
 9765TIP3    H250711   4.018   1.010   6.225  0.2485 -2.2239 -1.5711
 9766TIP3   OH250712   2.300   4.505   5.269 -0.1838 -0.2549 -0.1473
 9766TIP3    H150713   2.394   4.500   5.253  0.0604  1.1456  0.6035
 9766TIP3    H250714   2.261   4.446   5.205  1.1723 -0.4909 -0.7946
 9767TIP3   OH250715   1.986   0.737   4.863 -0.1966 -0.3786 -0.0331
 9767TIP3    H150716   1.914   0.752   4.925  0.9147 -1.2310  1.5261
 9767TIP3    H250717   2.024   0.824   4.850 -1.3981  0.0655 -0.7886
 9768TIP3   OH250718   0.455   2.760   0.197  0.5351  0.0416 -0.0438
 9768TIP3    H150719   0.361   2.758   0.219  0.1069 -4.2295 -1.2692
 9768TIP3    H250720   0.498   2.726   0.276  0.3660 -2.7461 -1.0231
 9769TIP3   OH250721   2.833   1.474  16.728 -0.3205  0.1795  0.1457
 9769TIP3    H150722   2.891   1.549  16.716 -0.3873  0.1790 -0.1805
 9769TIP3    H250723   2.885   1.411  16.777  0.9260 -0.9263 -2.4468
 9770TIP3   OH250724   0.218   0.387  13.867  0.6862  0.5025 -0.4878
 9770TIP3    H150725   0.305   0.347  13.867  0.4241 -0.3162  2.6110
 9770TIP3    H250726   0.233   0.477  13.897  0.7547  1.5357 -3.2831
 9771TIP3   OH250727   4.017   1.649  11.548 -0.1198  0.4415  0.3660
 9771TIP3    H150728   3.974   1.710  11.488 -1.0700 -0.0416  0.5453
 9771TIP3    H250729   4.101   1.691  11.567 -0.7831  1.7376  0.5632
 9772TIP3   OH250730   6.491   6.760  16.400  0.3546  0.0459 -0.0067
 9772TIP3    H150731   6.479   6.679  16.351  1.3263  0.5251 -1.0802
 9772TIP3    H250732   6.418   6.816  16.372  0.6722  0.1682 -0.6087
 9773TIP3   OH250733   0.126   4.527  16.602  0.0650  0.5876  0.0335
 9773TIP3    H150734   0.173   4.485  16.531 -0.6352 -1.4813  0.7144
 9773TIP3    H250735   0.186   4.523  16.677 -0.4218 -0.3175  0.4003
 9774TIP3   OH250736   2.803   2.288  12.728  0.2760  0.2053 -0.3357
 9774TIP3    H150737   2.882   2.341  12.721 -0.0864  0.6776 -1.0768
 9774TIP3    H250738   2.760   2.298  12.642 -0.2140 -0.6247 -0.2016
 9775TIP3   OH250739   3.240   0.418  11.115  0.5390  0.1498 -0.1611
 9775TIP3    H150740   3.301   0.396  11.044  1.2779 -5.0169  1.6475
 9775TIP3    H250741   3.296   0.440  11.189  0.1967 -1.6520  0.6851
 9776TIP3   OH250742   1.106   3.838  16.230 -0.9496  0.0047  0.2497
 9776TIP3    H150743   1.052   3.908  16.267 -0.4436  1.4152 -1.4999
 9776TIP3    H250744   1.054   3.759  16.239 -2.8297  1.1222 -0.3439
 9777TIP3   OH250745   5.387   6.171  10.939 -0.6211 -0.5768 -0.0835
 9777TIP3    H150746   5.296   6.147  10.956 -0.2370 -1.9482  0.1522
 9777TIP3    H250747   5.401   6.151  10.847 -0.7053  0.1740 -0.2672
 9778TIP3   OH250748   1.727   5.298  14.315 -0.3161 -0.2639 -0.1774
 9778TIP3    H150749   1.684   5.230  14.263 -1.0307 -1.1842  1.5082
 9778TIP3    H250750   1.657   5.361  14.334 -0.4738 -0.7524  0.9422
 9779TIP3   OH250751   0.688   5.993   2.503  0.3587  0.8295  0.7280
 9779TIP3    H150752   0.632   6.066   2.529 -2.7919 -1.2538  0.2697
 9779TIP3    H250753   0.689   5.996   2.408  0.1098  0.2140  0.7019
 9780TIP3   OH250754   4.762   1.127  11.480  0.5637  0.4629 -0.4397
 9780TIP3    H150755   4.852   1.131  11.512  0.3321 -0.7571  0.4279
 9780TIP3    H250756   4.753   1.038  11.445 -0.5271  0.2933  0.2112
 9781TIP3   OH250757   6.760   6.064   5.736 -0.2704  0.3382 -0.0127
 9781TIP3    H150758   6.771   5.978   5.697  0.8885  1.0299 -1.3060
 9781TIP3    H250759   6.693   6.052   5.804  0.1895 -1.6454  0.1297
 9782TIP3   OH250760   1.362   3.876  16.616 -0.5557  0.3203  0.1073
 9782TIP3    H150761   1.366   3.800  16.558 -1.0512 -0.2828  0.8543
 9782TIP3    H250762   1.451   3.884  16.651  0.2393  1.7688 -2.0559
 9783TIP3   OH250763   1.364   4.456  12.343  0.4757  0.2950  0.5901
 9783TIP3    H150764   1.344   4.506  12.264  2.0562 -0.4778 -0.3525
 9783TIP3    H250765   1.402   4.520  12.403 -2.1259  1.2025  1.3631
 9784TIP3   OH250766   3.705   2.997   5.513  0.1169 -0.5084  0.4011
 9784TIP3    H150767   3.742   2.908   5.515  3.1827  0.5930 -0.6762
 9784TIP3    H250768   3.686   3.013   5.421 -2.7562 -0.8217  0.8704
 9785TIP3   OH250769   4.202   1.633  16.548 -0.2269  0.1242  0.3756
 9785TIP3    H150770   4.297   1.621  16.548 -0.4129 -1.6613  1.1014
 9785TIP3    H250771   4.189   1.721  16.513  1.5712 -0.4524 -1.9746
 9786TIP3   OH250772   3.367   3.519   0.652  0.2924 -0.1104  0.2766
 9786TIP3    H150773   3.452   3.475   0.647  0.2295 -0.3229  0.9479
 9786TIP3    H250774   3.331   3.491   0.736 -0.2404  0.3470  0.2038
 9787TIP3   OH250775   4.727   4.305  13.633 -0.3090  0.1988 -0.3686
 9787TIP3    H150776   4.748   4.382  13.581 -1.7987  0.6290 -0.3711
 9787TIP3    H250777   4.744   4.332  13.724  1.3548 -0.2404 -0.5155
 9788TIP3   OH250778   1.888   4.180   2.275  0.2851  0.1614  0.3197
 9788TIP3    H150779   1.940   4.119   2.223  1.8963 -1.3672  3.4103
 9788TIP3    H250780   1.802   4.181   2.234  1.8929  0.6630 -3.4126
 9789TIP3   OH250781   0.820   2.368   2.719 -0.1008 -0.1732  0.4323
 9789TIP3    H150782   0.763   2.443   2.739 -1.8741 -1.0957 -0.8281
 9789TIP3    H250783   0.762   2.305   2.675  0.2201 -4.0774  4.8003
 9790TIP3   OH250784   1.754   3.826   1.050  0.1664  0.5188 -0.1125
 9790TIP3    H150785   1.830   3.772   1.025  0.2253  0.5302  0.0419
 9790TIP3    H250786   1.729   3.794   1.136  0.0176  0.5412 -0.1477
 9791TIP3   OH250787   6.112   4.205  12.110  0.4795  0.1672 -0.8285
 9791TIP3    H150788   6.206   4.223  12.117  0.7115 -0.7114 -1.5224
 9791TIP3    H250789   6.086   4.184  12.200  0.9540  0.3779 -0.6346
 9792TIP3   OH250790   0.192   4.026   1.178 -0.2259 -0.1363 -0.0671
 9792TIP3    H150791   0.201   4.039   1.084  3.6869  0.0936  0.1665
 9792TIP3    H250792   0.180   4.114   1.214  0.4065  0.0174 -0.2263
 9793TIP3   OH250793   2.233   4.884   4.342 -0.1200 -0.2178 -0.5683
 9793TIP3    H150794   2.163   4.858   4.401  0.5623 -1.7716 -0.4099
 9793TIP3    H250795   2.309   4.897   4.398 -0.0850  0.7750 -0.8244
 9794TIP3   OH250796   3.837   0.681   0.527  0.2363 -0.0423 -0.0726
 9794TIP3    H150797   3.771   0.670   0.595 -0.6942  0.4051 -0.8765
 9794TIP3    H250798   3.832   0.600   0.475  0.1329  0.0918 -0.2765
 9795TIP3   OH250799   5.783   6.417  12.559  0.3546 -0.4328  0.3453
 9795TIP3    H150800   5.847   6.348  12.542  0.5410 -0.6301  1.7385
 9795TIP3    H250801   5.831   6.499  12.542  0.3095 -0.6069 -0.7133
 9796TIP3   OH250802   3.763   3.398   5.719  0.0550 -0.2595  0.2793
 9796TIP3    H150803   3.743   3.306   5.704 -0.4320 -0.2303  0.7064
 9796TIP3    H250804   3.812   3.400   5.801  1.7087 -0.3083 -0.6649
 9797TIP3   OH250805   1.033   4.509  15.621 -0.3760  0.7009 -0.4751
 9797TIP3    H150806   0.962   4.446  15.608  0.3622 -0.6744  1.6241
 9797TIP3    H250807   0.988   4.593  15.631 -1.8604 -0.2567  1.6845
 9798TIP3   OH250808   0.036   2.365   2.663  0.4848 -0.0210 -0.1079
 9798TIP3    H150809  -0.057   2.346   2.654  0.4020 -1.0271  2.1939
 9798TIP3    H250810   0.060   2.408   2.581 -1.9212 -0.0115 -0.8761
 9799TIP3   OH250811   0.857   1.356  12.382 -0.2059 -0.0458  0.0553
 9799TIP3    H150812   0.808   1.406  12.448  1.2538  1.6928 -0.1080
 9799TIP3    H250813   0.817   1.269  12.383 -1.9758  0.7363  1.3048
 9800TIP3   OH250814   6.728   4.100   4.634  0.0089 -0.2396  0.2925
 9800TIP3    H150815   6.646   4.139   4.665  0.5946  2.0057 -0.7412
 9800TIP3    H250816   6.796   4.162   4.662  1.7114 -3.0062  2.9024
 9801TIP3   OH250817   4.311   3.425   2.772 -0.7324 -0.2868  0.1491
 9801TIP3    H150818   4.377   3.404   2.706 -0.2771  0.3929  0.3795
 9801TIP3    H250819   4.346   3.389   2.853 -0.9862 -0.5527  0.1415
 9802TIP3   OH250820   0.751   0.896  11.847 -0.1520  0.4874  0.7565
 9802TIP3    H150821   0.740   0.839  11.923 -2.8553  0.0392  0.1682
 9802TIP3    H250822   0.827   0.861  11.802  1.3021  0.5467  3.0170
 9803TIP3   OH250823   2.361   2.542  11.078 -0.1184  0.7284 -0.0374
 9803TIP3    H150824   2.327   2.525  10.991 -0.7410  1.1586  0.1126
 9803TIP3    H250825   2.455   2.558  11.065 -0.5002  2.5258 -0.8760
 9804TIP3   OH250826   5.283   0.238  15.734 -0.2874  0.2757 -0.0982
 9804TIP3    H150827   5.305   0.292  15.810 -1.5595  0.2590  0.2944
 9804TIP3    H250828   5.206   0.188  15.760 -1.3558  0.9800 -1.7024
 9805TIP3   OH250829   4.292   1.783   4.760 -0.2471 -0.5653  0.0384
 9805TIP3    H150830   4.367   1.725   4.757  0.8699  0.8450 -0.8333
 9805TIP3    H250831   4.327   1.868   4.733 -1.9097  0.4021  0.7792
 9806TIP3   OH250832   0.985   5.307  11.764  0.4327 -0.4178 -0.3437
 9806TIP3    H150833   0.976   5.281  11.672 -1.4846  0.5186 -0.4724
 9806TIP3    H250834   1.076   5.286  11.786  1.2135  0.1797 -2.7148
 9807TIP3   OH250835   5.844   4.060   4.751 -0.5415 -0.4767  0.4447
 9807TIP3    H150836   5.760   4.097   4.777 -1.4093 -2.5819  0.8124
 9807TIP3    H250837   5.909   4.111   4.800 -1.6767  0.3377  1.1534
 9808TIP3   OH250838   0.523   5.992  14.350  0.0532 -0.7101 -0.0512
 9808TIP3    H150839   0.583   6.048  14.400  0.4735 -0.5578 -0.7119
 9808TIP3    H250840   0.445   5.986  14.405 -0.0020  0.5329  0.0442
 9809TIP3   OH250841   3.261   3.514  15.406 -0.1003 -0.2647 -0.0811
 9809TIP3    H150842   3.336   3.489  15.353  0.0287  2.0770 -1.1468
 9809TIP3    H250843   3.185   3.488  15.355  0.0153  0.0908 -0.4375
 9810TIP3   OH250844   0.202   0.615   1.778 -0.2103  0.1521  0.1096
 9810TIP3    H150845   0.219   0.696   1.731 -1.0912  0.3030  0.0437
 9810TIP3    H250846   0.282   0.563   1.766 -0.1508  0.4734 -0.9507
 9811TIP3   OH250847   2.049   5.307   5.462 -0.2274 -0.0460  0.0372
 9811TIP3    H150848   1.986   5.240   5.489  0.4940 -0.6868  0.1662
 9811TIP3    H250849   2.086   5.338   5.545 -0.7547  0.7087 -0.0079
 9812TIP3   OH250850   3.423   2.265   6.444  0.2022 -0.4159  1.1279
 9812TIP3    H150851   3.500   2.219   6.478  0.5842  0.4128  1.4082
 9812TIP3    H250852   3.434   2.355   6.473 -0.6487 -0.1857  0.7736
 9813TIP3   OH250853   4.602   3.992  15.407 -0.4208 -0.3581 -0.1826
 9813TIP3    H150854   4.611   3.952  15.494  1.1832  0.3505  0.0159
 9813TIP3    H250855   4.525   3.950  15.369 -0.4351 -1.5717  1.1109
 9814TIP3   OH250856   4.605   0.178   6.785 -0.2738  0.4317  0.1972
 9814TIP3    H150857   4.688   0.164   6.740 -0.6516  1.1442 -0.7328
 9814TIP3    H250858   4.545   0.115   6.745 -1.0284  2.1145 -1.4744
 9815TIP3   OH250859   2.211   0.503   0.553 -0.5884  0.0087 -0.2559
 9815TIP3    H150860   2.259   0.427   0.522 -0.7044 -0.2014  0.0727
 9815TIP3    H250861   2.124   0.495   0.515 -0.6093 -0.0368 -0.1979
 9816TIP3   OH250862   6.059   5.078  14.202  0.6733 -0.4313  0.4901
 9816TIP3    H150863   6.133   5.018  14.193  0.4234 -0.5921 -0.6659
 9816TIP3    H250864   6.096   5.165  14.189  0.7400 -0.4709  0.4149
 9817TIP3   OH250865   3.938   1.983  14.821 -0.1272 -0.1456 -0.2672
 9817TIP3    H150866   3.870   2.018  14.764  0.7052  1.4699 -0.3279
 9817TIP3    H250867   3.890   1.937  14.890 -1.1603 -1.7499 -1.9636
 9818TIP3   OH250868   2.250   3.423   0.742  0.1738 -0.1796  0.6371
 9818TIP3    H150869   2.179   3.388   0.688  1.6833 -1.5742 -0.5322
 9818TIP3    H250870   2.212   3.427   0.830 -0.6392 -3.3232  0.5605
 9819TIP3   OH250871   2.406   6.435  12.661 -0.2532 -0.3729 -0.1431
 9819TIP3    H150872   2.482   6.492  12.675  1.1153 -2.1528  0.0798
 9819TIP3    H250873   2.331   6.489  12.685  1.0287  1.0373  0.9247
 9820TIP3   OH250874   1.143   3.481  16.517 -0.6219 -0.9252  0.5275
 9820TIP3    H150875   1.078   3.461  16.584 -2.9097 -2.0962 -1.8222
 9820TIP3    H250876   1.163   3.396  16.477  0.0544 -0.1881 -0.7734
 9821TIP3   OH250877   0.812   1.083   0.553  0.3230 -0.2249 -0.4893
 9821TIP3    H150878   0.755   1.065   0.629  1.5533 -1.3273  0.2083
 9821TIP3    H250879   0.751   1.098   0.481 -0.8897  1.1480  0.7672
 9822TIP3   OH250880   0.781   0.264  14.672 -0.6114  0.1370 -0.0078
 9822TIP3    H150881   0.871   0.251  14.703 -0.7396 -1.9576 -0.4272
 9822TIP3    H250882   0.727   0.212  14.732 -1.6088  1.5204  0.3570
 9823TIP3   OH250883   2.267   5.838   0.990  0.2275 -0.2465 -0.5728
 9823TIP3    H150884   2.224   5.755   0.972  0.5006 -0.2019 -1.4474
 9823TIP3    H250885   2.196   5.900   1.004  0.0108 -0.2916 -1.4646
 9824TIP3   OH250886   0.256   3.104   5.977  0.3900  0.1429 -0.0695
 9824TIP3    H150887   0.293   3.017   5.966 -0.2455 -0.5551  2.6331
 9824TIP3    H250888   0.319   3.163   5.934  1.3233 -1.5219 -1.0795
 9825TIP3   OH250889   4.310   3.813   0.565  0.1069  0.6268  0.0017
 9825TIP3    H150890   4.311   3.769   0.650 -0.1999 -0.3909 -0.5099
 9825TIP3    H250891   4.258   3.893   0.580 -2.4110 -0.9333  0.1310
 9826TIP3   OH250892   5.622   2.097  12.066  0.7330  0.0405 -0.0465
 9826TIP3    H150893   5.667   2.141  12.139 -0.0746 -0.6355  0.8853
 9826TIP3    H250894   5.691   2.045  12.024  0.9479 -0.6667  1.1123
 9827TIP3   OH250895   6.197   5.146   3.069 -0.3890  0.0339  0.0879
 9827TIP3    H150896   6.133   5.178   3.006  1.0362  0.5797 -1.1667
 9827TIP3    H250897   6.236   5.070   3.026 -0.6980 -0.7344  1.1482
 9828TIP3   OH250898   4.034   3.947   0.421 -0.2612  0.2353 -0.3211
 9828TIP3    H150899   4.057   4.001   0.496  0.0877 -0.0553 -0.2158
 9828TIP3    H250900   3.939   3.936   0.427 -0.4045  1.2519 -0.6255
 9829TIP3   OH250901   4.670   5.064  13.487  0.3585  0.5935  0.0116
 9829TIP3    H150902   4.735   5.040  13.553  0.9347  2.6159  0.2480
 9829TIP3    H250903   4.715   5.126  13.430 -1.1114  1.4311 -0.2968
 9830TIP3   OH250904   0.693   1.882   2.038  0.2801 -0.3189  0.0917
 9830TIP3    H150905   0.645   1.953   1.996  0.8706  1.0820  1.6677
 9830TIP3    H250906   0.779   1.919   2.057 -0.1051 -0.6269  2.9767
 9831TIP3   OH250907   0.342   3.268  17.232  0.3438 -0.5945 -0.5519
 9831TIP3    H150908   0.271   3.210  17.205 -1.1280  0.9055 -0.0818
 9831TIP3    H250909   0.312   3.305  17.316  0.9598  1.1992 -1.0681
 9832TIP3   OH250910   0.300   5.227  11.444 -0.8773  0.0462 -1.0206
 9832TIP3    H150911   0.382   5.265  11.413 -1.3047  1.7717 -0.2015
 9832TIP3    H250912   0.306   5.134  11.422  1.2639  0.1341 -1.0215
 9833TIP3   OH250913   1.742   4.822   4.011  0.1476  0.0703 -0.5574
 9833TIP3    H150914   1.824   4.774   4.003  1.0652  1.7566 -1.8841
 9833TIP3    H250915   1.744   4.885   3.939 -1.3096  1.5963  0.6600
 9834TIP3   OH250916   0.398   2.287   4.839 -0.8444  0.0847  0.3706
 9834TIP3    H150917   0.468   2.251   4.785  0.2240 -1.1272  2.4127
 9834TIP3    H250918   0.420   2.380   4.848 -0.8349  0.2200 -0.9057
 9835TIP3   OH250919   1.952   3.586  15.103 -0.0279 -0.2014  0.0682
 9835TIP3    H150920   1.864   3.556  15.083 -1.2339  2.0965  1.5357
 9835TIP3    H250921   1.949   3.613  15.195  1.4136  2.3732 -0.5284
 9836TIP3   OH250922   3.657   1.636  13.519  0.1502 -0.2304  0.2238
 9836TIP3    H150923   3.629   1.716  13.475 -1.5410  0.2124  1.9456
 9836TIP3    H250924   3.716   1.665  13.588  0.7850 -0.6552 -0.1277
 9837TIP3   OH250925   4.374   6.720   1.839  0.0168  0.1151 -0.2704
 9837TIP3    H150926   4.378   6.631   1.874 -0.4647  0.3217  0.3298
 9837TIP3    H250927   4.320   6.768   1.902  1.0466  1.0662 -0.0847
 9838TIP3   OH250928   5.988   1.978  14.445  0.5240 -0.6334  0.2793
 9838TIP3    H150929   5.903   1.995  14.483  0.0437  0.8726 -1.3071
 9838TIP3    H250930   6.010   1.889  14.473 -2.4140 -1.8131 -0.7667
 9839TIP3   OH250931   4.947   5.912  11.231  0.1960  0.0182 -0.2813
 9839TIP3    H150932   4.916   5.981  11.290 -1.0780  0.0216 -0.9058
 9839TIP3    H250933   4.884   5.913  11.159  0.1789 -1.7594 -0.3337
 9840TIP3   OH250934   3.434   6.019  13.830 -0.3794  0.7023  0.4818
 9840TIP3    H150935   3.472   5.940  13.792 -1.4793 -0.0639  0.8946
 9840TIP3    H250936   3.501   6.086  13.820  1.9845 -1.0497  3.0477
 9841TIP3   OH250937   4.553   1.829   4.983 -0.2587  0.5706  0.3507
 9841TIP3    H150938   4.568   1.912   4.937 -0.6957 -0.2142 -1.2497
 9841TIP3    H250939   4.641   1.798   5.005 -0.0165  0.7614 -0.3349
 9842TIP3   OH250940   0.100   3.263   0.141 -0.2377  0.4386  0.1048
 9842TIP3    H150941   0.042   3.331   0.107  0.4082  1.1057  0.3435
 9842TIP3    H250942   0.187   3.290   0.114  0.0354 -0.2502  0.2855
 9843TIP3   OH250943   3.035   3.764  12.960 -0.0260  0.3030  0.1172
 9843TIP3    H150944   3.104   3.705  12.990 -1.3275 -1.1727  0.3188
 9843TIP3    H250945   3.017   3.736  12.870 -1.4640 -0.4387  0.6085
 9844TIP3   OH250946   5.231   3.175  11.155 -0.1306 -0.8944  0.3532
 9844TIP3    H150947   5.199   3.135  11.236 -1.1328 -1.0304 -0.0889
 9844TIP3    H250948   5.182   3.257  11.148 -2.0730 -2.0847 -1.4131
 9845TIP3   OH250949   5.261   2.902  15.981  0.8226 -0.3109  0.1885
 9845TIP3    H150950   5.256   2.996  15.959 -1.8162 -0.0156  1.5981
 9845TIP3    H250951   5.184   2.864  15.939  1.8291 -1.8939 -0.3105
 9846TIP3   OH250952   6.569   6.072   1.745  0.1876 -0.3471  0.2742
 9846TIP3    H150953   6.586   6.033   1.659  2.3809  1.9629 -0.4828
 9846TIP3    H250954   6.545   5.999   1.801  1.6332 -2.3973 -1.6051
 9847TIP3   OH250955   0.576   3.823   0.936 -0.0872 -0.6498 -0.4680
 9847TIP3    H150956   0.552   3.749   0.993  1.0614 -1.0892 -0.5492
 9847TIP3    H250957   0.588   3.784   0.850  0.5210 -0.3690 -0.5103
 9848TIP3   OH250958   1.668   0.693  13.914 -0.3602  0.1614 -0.1161
 9848TIP3    H150959   1.701   0.782  13.905 -0.6858  0.3610  0.6026
 9848TIP3    H250960   1.593   0.689  13.854 -0.1590  0.2711 -0.3774
 9849TIP3   OH250961   5.981   6.308   0.409  0.3140 -0.1713 -0.3060
 9849TIP3    H150962   6.015   6.392   0.379  1.6215 -0.5687  0.0222
 9849TIP3    H250963   5.926   6.278   0.337  0.4764  0.5935 -0.7600
 9850TIP3   OH250964   2.398   2.200  15.198 -0.4174 -0.4688 -0.2879
 9850TIP3    H150965   2.483   2.190  15.155 -0.1610  2.2200 -0.6041
 9850TIP3    H250966   2.334   2.178  15.130  0.0195  0.7959 -1.1438
 9851TIP3   OH250967   3.580   0.782   4.521  0.3267  0.4323 -0.0841
 9851TIP3    H150968   3.563   0.689   4.537 -0.3180  0.4118 -0.8302
 9851TIP3    H250969   3.655   0.783   4.463  1.5715  0.4556  1.4580
 9852TIP3   OH250970   5.312   1.680   3.416 -0.1035  0.0291 -0.2353
 9852TIP3    H150971   5.359   1.616   3.362  1.3880  1.3847 -0.6196
 9852TIP3    H250972   5.380   1.735   3.454 -1.2061 -0.0319  2.0003
 9853TIP3   OH250973   4.242   6.084  11.977 -0.6017  0.3263 -0.1462
 9853TIP3    H150974   4.181   6.016  12.004 -0.8143 -0.6465 -2.7991
 9853TIP3    H250975   4.186   6.160  11.958 -0.5501  0.6872  1.0909
 9854TIP3   OH250976   6.627   6.599  12.757  0.4286  0.1896 -0.0275
 9854TIP3    H150977   6.707   6.577  12.806 -0.0182  0.4790  0.8669
 9854TIP3    H250978   6.559   6.601  12.824 -0.2918  0.1684 -0.7478
 9855TIP3   OH250979   6.139   3.549   2.303  0.2108  0.9641 -0.3848
 9855TIP3    H150980   6.186   3.632   2.297 -0.0780  1.1732  0.1884
 9855TIP3    H250981   6.100   3.549   2.390  1.3190 -0.3659  0.1570
 9856TIP3   OH250982   3.313   3.006   3.119 -0.1016 -0.6101  0.0898
 9856TIP3    H150983   3.322   2.914   3.146  1.1823 -0.6684 -0.4817
 9856TIP3    H250984   3.318   3.004   3.024  0.2994  0.0822  0.0872
 9857TIP3   OH250985   5.678   2.039   5.677 -0.0275 -0.4443 -0.6364
 9857TIP3    H150986   5.612   1.978   5.712  0.1485  0.3770  1.2146
 9857TIP3    H250987   5.761   2.006   5.710 -0.1896  2.9440  4.1020
 9858TIP3   OH250988   6.344   0.682  15.360 -0.0195  0.1676 -0.0704
 9858TIP3    H150989   6.328   0.588  15.370 -1.6019  0.5368  1.6091
 9858TIP3    H250990   6.364   0.712  15.449 -0.8147  1.6046 -0.3448
 9859TIP3   OH250991   4.436   5.080  17.251 -0.4264  0.3803  0.0409
 9859TIP3    H150992   4.371   5.041  17.192  0.1460 -0.6026  0.0299
 9859TIP3    H250993   4.520   5.058  17.210 -0.0628  3.0406 -0.8368
 9860TIP3   OH250994   0.968   5.746  15.637 -0.2859 -0.8020 -0.3417
 9860TIP3    H150995   0.997   5.707  15.554 -0.7504 -0.1852 -0.8027
 9860TIP3    H250996   0.965   5.673  15.698  0.7492 -1.1489 -0.6818
 9861TIP3   OH250997   3.049   0.194  13.078  0.2806  0.2788 -0.1445
 9861TIP3    H150998   3.006   0.279  13.070  0.3797  0.5993  2.0586
 9861TIP3    H250999   2.977   0.131  13.084  0.1828  0.3830 -0.2096
 9862TIP3   OH251000   2.911   0.450   0.705 -0.0448  0.7068  0.3605
 9862TIP3    H151001   2.887   0.498   0.626 -0.9327  1.4098  1.0275
 9862TIP3    H251002   2.851   0.483   0.772  1.9163  1.5302  1.7989
 9863TIP3   OH251003   6.754   1.096   4.522 -0.1095 -0.2565 -0.2134
 9863TIP3    H151004   6.813   1.169   4.499 -0.8105  0.1044 -0.9311
 9863TIP3    H251005   6.804   1.018   4.501  0.5956  0.0107  0.4101
 9864TIP3   OH251006   2.650   0.959   2.625  0.6441 -0.1355 -0.3308
 9864TIP3    H151007   2.668   1.026   2.692 -1.9664 -0.2694  0.6087
 9864TIP3    H251008   2.555   0.950   2.625  0.8671 -3.5123 -0.7908
 9865TIP3   OH251009   6.533   5.676   2.572 -0.1713  0.0828  0.4794
 9865TIP3    H151010   6.488   5.711   2.496  1.2535  0.0600 -0.4076
 9865TIP3    H251011   6.614   5.726   2.577  0.2152 -0.6112  1.3750
 9866TIP3   OH251012   6.299   3.435  16.293 -0.3506  0.1377  0.7728
 9866TIP3    H151013   6.356   3.431  16.370  0.1854  0.7413  0.4267
 9866TIP3    H251014   6.344   3.383  16.227 -0.3774  0.3165  0.6117
 9867TIP3   OH251015   2.885   3.504  15.877  0.0362  0.5216 -0.4264
 9867TIP3    H151016   2.908   3.596  15.865  1.8339  0.0092 -1.2327
 9867TIP3    H251017   2.789   3.504  15.885 -0.0548  2.3774 -1.0561
 9868TIP3   OH251018   1.985   0.316  12.780 -0.5054  0.2112  0.3086
 9868TIP3    H151019   1.990   0.223  12.801 -0.7731 -0.0241 -0.6012
 9868TIP3    H251020   1.898   0.343  12.810 -0.7560 -0.0427 -0.1649
 9869TIP3   OH251021   1.239   6.499   4.069  0.4255  0.1385 -0.1114
 9869TIP3    H151022   1.257   6.472   3.979  0.8879 -0.4387  0.1527
 9869TIP3    H251023   1.220   6.418   4.116  0.4966  0.4059  0.3882
 9870TIP3   OH251024   6.532   1.833   5.223  0.2046  0.2456  0.7120
 9870TIP3    H151025   6.473   1.882   5.165 -0.9590  1.1831  2.5917
 9870TIP3    H251026   6.573   1.899   5.278  3.9895 -0.2361 -1.1796
 9871TIP3   OH251027   1.593   2.099   4.491 -0.6308 -0.2624  0.2960
 9871TIP3    H151028   1.576   2.125   4.400 -0.2727 -0.3070  0.2145
 9871TIP3    H251029   1.635   2.175   4.531 -0.6565 -0.2952  0.3859
 9872TIP3   OH251030   2.052   2.813   5.735 -0.0598  0.7951 -0.1368
 9872TIP3    H151031   1.998   2.773   5.804  0.0748  2.1689  0.7974
 9872TIP3    H251032   2.002   2.798   5.655 -0.9706  0.4996  0.4582
 9873TIP3   OH251033   1.626   6.385  13.284 -0.4490  0.5037 -0.0552
 9873TIP3    H151034   1.706   6.399  13.334 -0.2440 -2.5710  0.6362
 9873TIP3    H251035   1.556   6.416  13.341  0.1322  3.2595 -0.6828
 9874TIP3   OH251036   3.695   3.841   2.645  0.5157 -0.0648 -0.0340
 9874TIP3    H151037   3.747   3.917   2.672  0.1946  0.9251 -2.0206
 9874TIP3    H251038   3.667   3.801   2.728  1.6922  1.2676  1.0708
 9875TIP3   OH251039   2.754   5.967   1.590 -0.9002  0.5606 -0.0825
 9875TIP3    H151040   2.801   6.051   1.595 -2.0886  1.2955 -0.8567
 9875TIP3    H251041   2.775   5.933   1.504  1.0985 -0.9132  0.8996
 9876TIP3   OH251042   1.832   5.323  15.881  0.4914  0.5429 -0.2045
 9876TIP3    H151043   1.908   5.373  15.911  0.2547  1.6001 -1.2873
 9876TIP3    H251044   1.796   5.375  15.810 -1.3849  0.1639  0.4273
 9877TIP3   OH251045   1.508   0.312   3.245 -0.2452 -0.3467 -0.2070
 9877TIP3    H151046   1.473   0.324   3.157  0.2797  1.1652 -0.2382
 9877TIP3    H251047   1.544   0.398   3.269 -2.0286 -0.1627  2.2158
 9878TIP3   OH251048   0.714   3.918   3.322 -0.3164 -0.1482 -0.3520
 9878TIP3    H151049   0.692   3.825   3.333 -1.6391  0.0057 -1.4425
 9878TIP3    H251050   0.644   3.965   3.367  0.7980  0.3377  0.9221
 9879TIP3   OH251051   4.067   3.025   5.221 -0.4889 -0.2757 -0.1640
 9879TIP3    H151052   3.997   3.049   5.282  0.1652 -1.8056  1.2892
 9879TIP3    H251053   4.043   2.937   5.192 -1.0579  0.6104 -2.6106
 9880TIP3   OH251054   1.145   0.748   3.007 -0.1285  0.1849  0.0743
 9880TIP3    H151055   1.142   0.797   2.925  2.1895  0.2172 -0.0583
 9880TIP3    H251056   1.122   0.812   3.075  1.8936  1.2802 -0.1954
 9881TIP3   OH251057   3.925   3.703  15.499 -0.0871 -0.1115  0.1881
 9881TIP3    H151058   3.842   3.713  15.452  0.5921 -0.8422 -1.2403
 9881TIP3    H251059   3.986   3.762  15.454  0.2619  0.1344  0.9731
 9882TIP3   OH251060   6.555   5.250  10.793  0.1577  0.3311 -0.0896
 9882TIP3    H151061   6.638   5.266  10.748  1.3663 -0.8586  1.6386
 9882TIP3    H251062   6.510   5.186  10.738  1.3218 -0.5999 -0.0013
 9883TIP3   OH251063   1.735   3.078   4.886  0.0478  0.0117 -0.5934
 9883TIP3    H151064   1.815   3.044   4.927 -0.0869  1.4923  0.9998
 9883TIP3    H251065   1.693   3.129   4.955 -0.5922  2.0197 -2.3802
 9884TIP3   OH251066   3.168   2.492   4.074  0.1713  0.1829 -0.1194
 9884TIP3    H151067   3.178   2.585   4.096  0.6944  0.0276  0.3311
 9884TIP3    H251068   3.210   2.446   4.146  0.6166 -0.3875 -0.7300
 9885TIP3   OH251069   5.480   5.731   1.820 -0.2826  0.4783 -0.1243
 9885TIP3    H151070   5.490   5.806   1.761 -0.0946 -0.1841 -0.9405
 9885TIP3    H251071   5.556   5.735   1.878  0.3039  0.3003 -0.8681
 9886TIP3   OH251072   1.124   5.999  14.942  0.3874  0.6851 -0.6503
 9886TIP3    H151073   1.211   5.971  14.968 -0.4179 -0.6198  0.7580
 9886TIP3    H251074   1.081   5.920  14.911 -0.5351  1.1652 -0.6506
 9887TIP3   OH251075   6.200   0.314   1.310  0.3193  0.3848  0.4838
 9887TIP3    H151076   6.252   0.268   1.244 -1.7698 -1.3062 -0.1053
 9887TIP3    H251077   6.201   0.405   1.281  0.1803 -0.1750 -1.4476
 9888TIP3   OH251078   5.335   5.425   6.118 -0.1830 -0.4930 -0.2346
 9888TIP3    H151079   5.361   5.457   6.031  1.2547 -1.3185 -0.1409
 9888TIP3    H251080   5.240   5.439   6.121  0.0663  1.7119 -1.0060
 9889TIP3   OH251081   4.469   3.608   1.269 -0.1681  0.0828  0.4488
 9889TIP3    H151082   4.421   3.550   1.210 -0.6943  0.2392  0.7144
 9889TIP3    H251083   4.526   3.550   1.319  0.2703 -0.0491 -0.2068
 9890TIP3   OH251084   4.977   3.882   0.428 -0.4009  1.0121 -0.0700
 9890TIP3    H151085   5.009   3.964   0.389 -2.7516  1.0059 -2.2268
 9890TIP3    H251086   4.918   3.911   0.497  0.1045  1.0749  0.3468
 9891TIP3   OH251087   2.372   3.217  15.105  0.2777  0.2545  0.5394
 9891TIP3    H151088   2.464   3.210  15.077  0.1596 -0.0215  0.2051
 9891TIP3    H251089   2.324   3.232  15.023  0.0833  0.9540  0.7786
 9892TIP3   OH251090   2.818   4.678   0.992  0.4463  0.3564  0.0678
 9892TIP3    H151091   2.826   4.585   0.968  0.3641  0.7685 -1.7065
 9892TIP3    H251092   2.729   4.687   1.026 -0.3224  0.1610 -1.7711
 9893TIP3   OH251093   5.687   0.476  12.917 -0.2888  0.1357  0.2597
 9893TIP3    H151094   5.672   0.443  12.828  2.1809  1.2081 -0.6616
 9893TIP3    H251095   5.750   0.414  12.955  0.1362  0.7186  0.5253
 9894TIP3   OH251096   3.766   4.463  14.242  0.2727 -0.1876  0.3382
 9894TIP3    H151097   3.780   4.497  14.331 -0.3838 -0.7234  0.6546
 9894TIP3    H251098   3.733   4.374  14.255 -2.4069  0.5974 -0.3200
 9895TIP3   OH251099   1.153   3.438   2.430  0.4636 -0.1259  0.7974
 9895TIP3    H151100   1.104   3.365   2.468 -1.8546  1.3085  0.6993
 9895TIP3    H251101   1.245   3.418   2.450 -0.1564 -2.6735  1.4000
 9896TIP3   OH251102   1.652   5.078  16.748  0.2992  0.1277 -0.0153
 9896TIP3    H151103   1.650   5.121  16.834  0.9612 -1.8955  1.0824
 9896TIP3    H251104   1.702   4.998  16.763 -1.1790 -1.2241 -1.8441
 9897TIP3   OH251105   0.751   4.095   0.845  0.0568 -0.0830  0.7159
 9897TIP3    H151106   0.695   4.066   0.773 -0.8556  0.2249  1.2812
 9897TIP3    H251107   0.840   4.090   0.810 -0.3709  0.1309 -0.4602
 9898TIP3   OH251108   5.500   5.862  13.481  0.4514 -0.8484 -0.2027
 9898TIP3    H151109   5.555   5.820  13.547 -0.8773 -3.0154 -0.3905
 9898TIP3    H251110   5.428   5.900  13.530 -1.4036 -3.8380 -0.3856
 9899TIP3   OH251111   5.324   2.102   2.633 -0.0887  0.2614 -0.2567
 9899TIP3    H151112   5.292   2.080   2.720 -0.6862  1.4646 -0.1427
 9899TIP3    H251113   5.294   2.031   2.577  1.3355 -1.1650  0.6860
 9900TIP3   OH251114   4.413   6.692   2.728  0.3465  0.1698 -0.2769
 9900TIP3    H151115   4.425   6.775   2.773  0.0346  1.0999 -1.8353
 9900TIP3    H251116   4.347   6.645   2.780  0.8337  0.7089  0.8418
 9901TIP3   OH251117   0.531   3.139   3.234 -0.2374 -0.1464  0.5143
 9901TIP3    H151118   0.484   3.164   3.154  1.6491  1.1082 -0.2794
 9901TIP3    H251119   0.466   3.144   3.303 -1.3521  1.1961 -0.5736
 9902TIP3   OH251120   0.322   4.112  15.686 -0.2278 -0.7121 -0.0999
 9902TIP3    H151121   0.333   4.196  15.642 -0.5898  0.0393  1.2011
 9902TIP3    H251122   0.275   4.058  15.623 -0.0911  0.0986 -0.9155
 9903TIP3   OH251123   5.839   2.516   1.564 -0.1839 -0.0534  0.8370
 9903TIP3    H151124   5.812   2.456   1.494  0.8426  1.2873 -0.7943
 9903TIP3    H251125   5.757   2.550   1.598 -0.7207  0.2296 -0.6332
 9904TIP3   OH251126   4.417   2.877  17.350 -0.0688 -0.5052 -0.3666
 9904TIP3    H151127   4.442   2.821  17.423 -0.5057 -1.1047 -0.6662
 9904TIP3    H251128   4.338   2.922  17.380 -0.1922 -0.6779 -0.4306
 9905TIP3   OH251129   6.449   4.466   3.402  0.0110 -0.2981  0.7603
 9905TIP3    H151130   6.460   4.432   3.491 -1.3750  0.9876  1.4604
 9905TIP3    H251131   6.538   4.468   3.366  0.8243  0.6774  2.6883
 9906TIP3   OH251132   4.208   1.815   0.835  0.1803 -0.5195 -0.2107
 9906TIP3    H151133   4.283   1.859   0.875  0.1219 -0.4159 -0.2152
 9906TIP3    H251134   4.135   1.835   0.892 -0.0861  0.3838 -0.8517
 9907TIP3   OH251135   4.348   6.431  11.016 -0.2623 -0.2212 -1.0063
 9907TIP3    H151136   4.350   6.449  10.922  0.0729 -0.4550 -1.0487
 9907TIP3    H251137   4.271   6.478  11.048  0.6401  1.3831 -1.0877
 9908TIP3   OH251138   0.158   5.663   2.539 -0.3382 -0.1378  0.0965
 9908TIP3    H151139   0.101   5.664   2.616 -1.3853  2.7689 -0.5621
 9908TIP3    H251140   0.101   5.633   2.468  0.7696 -3.3461  0.4308
 9909TIP3   OH251141   5.563   1.940  15.369 -0.0749  0.0281  0.0680
 9909TIP3    H151142   5.560   2.004  15.441  1.7577  0.5888 -0.3097
 9909TIP3    H251143   5.531   1.988  15.293  1.3356  0.5576 -0.2233
 9910TIP3   OH251144   3.779   6.339   3.697 -0.4478  0.8133 -0.4304
 9910TIP3    H151145   3.766   6.384   3.613 -1.1127  0.6467 -0.4255
 9910TIP3    H251146   3.740   6.252   3.684  1.3663 -0.0180 -0.6461
 9911TIP3   OH251147   0.573   1.399  14.198 -0.0920  0.2600  0.1008
 9911TIP3    H151148   0.612   1.414  14.284 -0.0717  0.6280  0.0287
 9911TIP3    H251149   0.500   1.340  14.214  0.1020  0.0827  0.3263
 9912TIP3   OH251150   4.505   6.002   5.502  0.0513  0.6224 -0.9471
 9912TIP3    H151151   4.492   5.908   5.516  0.2831  0.2686 -2.8448
 9912TIP3    H251152   4.492   6.041   5.588  0.2266 -1.1757 -0.0587
 9913TIP3   OH251153   6.738   6.556  10.981  0.1633  0.4915  0.1310
 9913TIP3    H151154   6.701   6.644  10.986  0.1204  0.4582  0.4847
 9913TIP3    H251155   6.675   6.506  10.930  0.8401  0.9874 -1.2398
 9914TIP3   OH251156   0.532   4.547  13.807  0.3100 -0.3859  0.3107
 9914TIP3    H151157   0.465   4.523  13.871 -1.2942  1.2914 -0.6390
 9914TIP3    H251158   0.574   4.464  13.783 -0.6953 -1.3418  1.7203
 9915TIP3   OH251159   6.075   5.010   2.502  0.4510  0.1704  0.2143
 9915TIP3    H151160   6.156   4.969   2.530  0.9573  2.1140  1.8260
 9915TIP3    H251161   6.103   5.087   2.452 -0.4558 -1.6899 -3.5099
 9916TIP3   OH251162   5.690   6.241  13.836  0.5842 -0.2790 -0.2536
 9916TIP3    H151163   5.704   6.214  13.927  0.5419 -1.3992 -0.5623
 9916TIP3    H251164   5.603   6.281  13.836  0.9871  0.6322  0.3796
 9917TIP3   OH251165   1.760   3.102  16.069 -0.2605  0.2809 -0.1861
 9917TIP3    H151166   1.723   3.130  15.985 -0.1904 -0.8151 -0.5983
 9917TIP3    H251167   1.690   3.051  16.110 -0.1933  0.5739  0.2950
 9918TIP3   OH251168   3.842   1.254  17.031 -0.2621 -0.2896  0.2832
 9918TIP3    H151169   3.914   1.200  16.998 -0.4888 -1.7215  1.9978
 9918TIP3    H251170   3.807   1.298  16.953 -0.0720 -2.6172 -1.2063
 9919TIP3   OH251171   3.134   5.409   0.841  0.0253  0.7974  0.3069
 9919TIP3    H151172   3.220   5.383   0.806 -0.2037  2.0600 -1.3334
 9919TIP3    H251173   3.154   5.477   0.906  0.2852  0.9247  0.0954
 9920TIP3   OH251174   0.314   1.045   3.013 -0.2515  1.0468  0.1234
 9920TIP3    H151175   0.305   0.993   2.933 -1.2072  2.5145 -0.7624
 9920TIP3    H251176   0.408   1.043   3.032 -0.0129  0.6106 -0.9939
 9921TIP3   OH251177   5.561   0.514  15.756  0.1989 -0.1039 -0.5253
 9921TIP3    H151178   5.636   0.574  15.750 -0.9528  1.3969 -0.4231
 9921TIP3    H251179   5.517   0.539  15.837 -1.8763  0.8264 -1.8568
 9922TIP3   OH251180   4.270   3.471  13.932  0.2093  0.3215  0.3393
 9922TIP3    H151181   4.180   3.486  13.903 -0.8287  0.4196  3.2920
 9922TIP3    H251182   4.300   3.557  13.963  0.4879 -0.1306  1.3801
 9923TIP3   OH251183   5.454   2.317  11.474  0.5987 -0.0342 -0.9713
 9923TIP3    H151184   5.517   2.246  11.487  1.0830  0.5670  0.1460
 9923TIP3    H251185   5.369   2.278  11.494  0.9672 -0.0697  0.7301
 9924TIP3   OH251186   1.836   1.810   5.954  0.4478  0.1827 -0.5442
 9924TIP3    H151187   1.870   1.741   6.010 -0.9165 -1.1693 -1.3046
 9924TIP3    H251188   1.768   1.767   5.901 -2.1426  2.5632  0.5893
 9925TIP3   OH251189   5.529   0.019  15.920  0.0644  0.0625 -0.0177
 9925TIP3    H151190   5.499  -0.027  15.998 -0.4452 -2.0825 -1.3753
 9925TIP3    H251191   5.481  -0.022  15.848  0.0525  2.3666 -1.4354
 9926TIP3   OH251192   5.064   2.023   5.451 -0.3031  0.1334 -0.1104
 9926TIP3    H151193   5.092   1.990   5.365  2.0154  0.1554  0.5709
 9926TIP3    H251194   5.040   2.114   5.435  0.6431  0.2940 -0.6460
 9927TIP3   OH251195   2.199   5.655   3.354 -0.1292 -0.0450 -0.8843
 9927TIP3    H151196   2.181   5.561   3.358 -0.4880 -0.0319 -1.9400
 9927TIP3    H251197   2.182   5.679   3.263  2.1281  0.6100 -1.2123
 9928TIP3   OH251198   1.458   5.815   5.315 -0.4140 -0.1661 -0.2210
 9928TIP3    H151199   1.525   5.770   5.265  0.5818  1.0083  0.0081
 9928TIP3    H251200   1.398   5.746   5.344 -0.5011 -0.9797 -2.2069
 9929TIP3   OH251201   2.931   2.644  15.785 -0.0111  0.2275  0.0547
 9929TIP3    H151202   2.896   2.579  15.724 -0.0005 -0.4890  0.7947
 9929TIP3    H251203   2.872   2.718  15.778 -1.6098 -0.8824  1.1461
 9930TIP3   OH251204   2.195   3.436   5.145  0.2114  0.3962 -0.0117
 9930TIP3    H151205   2.217   3.403   5.058 -0.1652 -0.5917  0.2597
 9930TIP3    H251206   2.221   3.366   5.205 -1.1469  0.3242  0.5298
 9931TIP3   OH251207   0.176   1.177   0.796  0.1146  0.2638 -0.2644
 9931TIP3    H151208   0.106   1.190   0.860  0.0982  0.6858 -0.3659
 9931TIP3    H251209   0.131   1.167   0.712  0.1569  0.1372 -0.2725
 9932TIP3   OH251210   0.801   0.222   0.104  0.6147 -0.8493 -0.0537
 9932TIP3    H151211   0.834   0.132   0.105 -1.7711 -1.7964  0.1817
 9932TIP3    H251212   0.843   0.262   0.028  2.3988 -1.8526  0.3483
 9933TIP3   OH251213   4.157   4.559  15.261  0.3290 -0.0536  0.2352
 9933TIP3    H151214   4.247   4.529  15.245  0.5590  0.5667  0.3576
 9933TIP3    H251215   4.105   4.514  15.195  0.7867 -0.1036 -0.0954
 9934TIP3   OH251216   6.244   0.009   2.310  0.0026 -0.3894 -0.3715
 9934TIP3    H151217   6.316   0.053   2.354 -0.4820  3.1623 -2.6366
 9934TIP3    H251218   6.190   0.081   2.276 -5.1936 -2.7383  1.8651
 9935TIP3   OH251219   0.419   4.653   3.483 -0.2057 -0.1242  0.5803
 9935TIP3    H151220   0.343   4.708   3.463 -0.4218 -0.7939 -0.4641
 9935TIP3    H251221   0.401   4.569   3.441  0.5593 -0.6969  1.3574
 9936TIP3   OH251222   4.424   0.197  15.773 -0.1817 -0.1210  0.0139
 9936TIP3    H151223   4.449   0.269  15.716 -0.4092  0.9245  1.1806
 9936TIP3    H251224   4.428   0.120  15.717 -0.8138  0.9023 -1.5273
 9937TIP3   OH251225   4.755   3.335   3.808 -0.3185  0.8359 -0.1314
 9937TIP3    H151226   4.737   3.242   3.823 -0.3959  0.7778 -0.5782
 9937TIP3    H251227   4.840   3.350   3.849  0.7566  0.0445 -1.9245
 9938TIP3   OH251228   5.553   5.543  17.282 -0.0718 -0.4851 -0.0725
 9938TIP3    H151229   5.474   5.511  17.237  1.1127 -1.7033 -1.3840
 9938TIP3    H251230   5.623   5.485  17.253  1.1415 -0.1319  1.9244
 9939TIP3   OH251231   0.311   4.935   5.359  0.0239  0.7375  0.0009
 9939TIP3    H151232   0.235   4.946   5.415 -0.0004 -0.5037  0.2595
 9939TIP3    H251233   0.386   4.954   5.416 -0.0244 -0.0306  0.3481
 9940TIP3   OH251234   2.157   6.098   1.037  0.4492  0.7552 -0.0454
 9940TIP3    H151235   2.195   6.078   1.123 -0.5189  0.2751  0.2876
 9940TIP3    H251236   2.231   6.125   0.983  1.4631 -1.3019  0.2220
 9941TIP3   OH251237   2.345   6.628   6.196  0.1060  0.3413  0.3804
 9941TIP3    H151238   2.264   6.660   6.235  0.1718  0.9347  0.0504
 9941TIP3    H251239   2.322   6.611   6.104 -0.1159 -1.2832  0.7026
 9942TIP3   OH251240   3.025   1.116  13.257  0.0430 -0.1927  0.3683
 9942TIP3    H151241   3.067   1.189  13.303  0.8436  0.0720 -0.7551
 9942TIP3    H251242   2.990   1.061  13.327 -0.8303  1.4017  1.2563
 9943TIP3   OH251243   6.194   0.960   0.463  0.1531 -0.0681  0.1139
 9943TIP3    H151244   6.196   1.054   0.446  0.7018  0.2913  1.9872
 9943TIP3    H251245   6.119   0.928   0.412  1.5124  0.8796 -2.6778
 9944TIP3   OH251246   4.366   0.722  10.727 -0.3318 -0.3251  0.3988
 9944TIP3    H151247   4.356   0.817  10.721 -1.7727 -0.2275  3.0248
 9944TIP3    H251248   4.289   0.692  10.774  1.1915 -2.5182  1.6672
 9945TIP3   OH251249   0.027   2.689  12.119  0.1617  0.5545  0.4043
 9945TIP3    H151250  -0.041   2.693  12.053 -0.9604  0.8312  1.5354
 9945TIP3    H251251   0.007   2.610  12.169  0.5104  0.7866  0.9211
 9946TIP3   OH251252   1.988   5.793   0.811 -0.1231 -0.1029 -0.3987
 9946TIP3    H151253   2.017   5.723   0.870 -2.4305 -0.1941  0.7423
 9946TIP3    H251254   2.051   5.793   0.740  0.2941 -2.9524 -0.1137
 9947TIP3   OH251255   2.990   4.492   5.762 -0.6658  0.0909 -0.0690
 9947TIP3    H151256   3.062   4.444   5.721 -0.0524  1.4309 -0.6524
 9947TIP3    H251257   3.024   4.581   5.772 -1.2864  0.1589  2.1151
 9948TIP3   OH251258   3.711   6.409  12.113 -0.3185 -0.5208  0.3077
 9948TIP3    H151259   3.777   6.344  12.091  0.1627 -0.3510  1.1965
 9948TIP3    H251260   3.740   6.488  12.067 -0.7538 -0.8395 -0.5456
 9949TIP3   OH251261   4.482   1.596  12.484 -1.3332 -0.2349 -0.4914
 9949TIP3    H151262   4.449   1.513  12.519 -0.6891  0.1121  1.0258
 9949TIP3    H251263   4.403   1.640  12.451 -2.4103  0.3242  2.5071
 9950TIP3   OH251264   1.805   2.035  11.512  0.8812 -0.3801  0.4451
 9950TIP3    H151265   1.760   1.952  11.498 -0.1402  0.0697  1.0038
 9950TIP3    H251266   1.742   2.102  11.485  0.8190  0.2943  2.1188
 9951TIP3   OH251267   0.787   3.744  16.089  0.3248 -0.3118 -0.5516
 9951TIP3    H151268   0.704   3.745  16.137 -0.1300  1.4037 -1.3045
 9951TIP3    H251269   0.772   3.800  16.013  2.1954  0.1087 -0.6655
 9952TIP3   OH251270   3.726   1.731   2.686  0.1201  0.2094  0.6889
 9952TIP3    H151271   3.668   1.732   2.761 -0.0905  0.6004  0.5252
 9952TIP3    H251272   3.684   1.789   2.622 -0.6689 -1.5486 -0.4729
 9953TIP3   OH251273   3.572   1.991   0.965  0.1291  0.2825 -0.2249
 9953TIP3    H151274   3.557   1.950   0.880 -2.5310  0.9818 -0.2002
 9953TIP3    H251275   3.556   2.084   0.949  0.8363  0.5887  0.7989
 9954TIP3   OH251276   4.564   6.412  16.762  0.4884  0.1638  0.8070
 9954TIP3    H151277   4.486   6.381  16.715  1.1187 -0.3311  0.0796
 9954TIP3    H251278   4.543   6.503  16.784 -0.0549  0.2259  0.0794
 9955TIP3   OH251279   3.247   4.645   4.279 -0.4311  0.1338  0.1923
 9955TIP3    H151280   3.220   4.560   4.247  1.2102 -0.8889  1.3577
 9955TIP3    H251281   3.317   4.672   4.220 -0.7026  0.5194  0.0412
 9956TIP3   OH251282   4.624   4.083  10.761 -0.0398 -0.0731 -0.2430
 9956TIP3    H151283   4.611   4.141  10.686  1.8231  0.1833 -0.4127
 9956TIP3    H251284   4.556   4.016  10.752  0.5073 -0.3915 -2.4937
 9957TIP3   OH251285   3.578   6.364  10.751 -0.0688 -0.0783  0.4388
 9957TIP3    H151286   3.662   6.380  10.707 -0.4486  1.4379  0.2002
 9957TIP3    H251287   3.516   6.348  10.680  0.0694 -1.6396  0.6331
 9958TIP3   OH251288   1.256   0.825   2.323  0.1819 -0.3708 -0.0268
 9958TIP3    H151289   1.309   0.773   2.383 -0.7649 -0.8083  0.4592
 9958TIP3    H251290   1.169   0.785   2.327 -0.0767  0.0406 -1.1535
 9959TIP3   OH251291   2.954   0.457   0.359  0.5250  0.3963 -0.0239
 9959TIP3    H151292   3.040   0.498   0.365  1.0331 -0.6064 -0.3088
 9959TIP3    H251293   2.952   0.416   0.273  0.1191 -0.3483  0.3255
 9960TIP3   OH251294   3.249   3.301   3.285 -0.0165  0.2655  0.6740
 9960TIP3    H151295   3.323   3.245   3.308 -0.6319 -0.8530  0.0224
 9960TIP3    H251296   3.181   3.240   3.255 -0.5520  1.3758 -0.4825
 9961TIP3   OH251297   5.357   5.496   1.717  0.1948 -0.1481 -0.3803
 9961TIP3    H151298   5.426   5.551   1.754 -0.2272  0.6437 -0.7235
 9961TIP3    H251299   5.324   5.445   1.791 -0.6392  1.4085  0.3766
 9962TIP3   OH251300   4.845   6.528  16.457 -0.1470 -0.3045 -0.1303
 9962TIP3    H151301   4.905   6.601  16.443  0.3849 -0.6485  0.2786
 9962TIP3    H251302   4.759   6.563  16.439 -0.3503  1.4920  3.3704
 9963TIP3   OH251303   5.270   6.428   5.016 -0.2912 -0.6440 -0.5296
 9963TIP3    H151304   5.196   6.416   5.075 -0.9219 -1.0713 -1.3923
 9963TIP3    H251305   5.231   6.460   4.935  0.5161 -0.5260 -0.8800
 9964TIP3   OH251306   0.548   5.876  10.335  0.1929  0.1417 -0.4258
 9964TIP3    H151307   0.603   5.954  10.331  0.6201 -0.1755 -0.7437
 9964TIP3    H251308   0.608   5.802  10.322 -0.4110 -0.1684 -1.7269
 9965TIP3   OH251309   3.337   0.872  15.232  0.3201 -0.2195  0.0136
 9965TIP3    H151310   3.306   0.931  15.164 -1.3574 -0.0885  0.8409
 9965TIP3    H251311   3.291   0.900  15.311  0.1049 -2.0953  0.6077
 9966TIP3   OH251312   2.918   2.982  11.554 -0.5436  0.3845  0.1053
 9966TIP3    H151313   2.847   2.949  11.608  1.0021  0.0894  2.1035
 9966TIP3    H251314   2.919   3.077  11.571 -1.0809  0.5447 -0.7226
 9967TIP3   OH251315   1.760   3.105   5.675 -0.3506 -0.2634  0.3968
 9967TIP3    H151316   1.718   3.165   5.615 -0.7804 -0.6920  0.2601
 9967TIP3    H251317   1.854   3.117   5.660 -0.4552 -0.9425 -0.9417
 9968TIP3   OH251318   2.539   1.637   4.819  0.3892 -0.1946 -0.2348
 9968TIP3    H151319   2.513   1.722   4.854  0.5438  0.0998 -0.8173
 9968TIP3    H251320   2.483   1.624   4.742  1.2453 -0.0290 -0.8944
 9969TIP3   OH251321   6.603   4.514  17.022  0.2368 -0.0292 -0.5375
 9969TIP3    H151322   6.597   4.486  17.113 -4.5882 -1.9996 -1.1560
 9969TIP3    H251323   6.651   4.444  16.979 -0.8031 -1.0992 -0.0296
 9970TIP3   OH251324   1.457   5.750  15.128  0.3959  0.4807 -1.1610
 9970TIP3    H151325   1.413   5.697  15.061  1.8985 -1.5074 -0.6558
 9970TIP3    H251326   1.519   5.804  15.079 -0.1994  0.8163 -1.5607
 9971TIP3   OH251327   0.713   0.927  16.086 -0.5892  0.7004  0.3610
 9971TIP3    H151328   0.662   0.989  16.033 -0.5456  1.4993  1.2367
 9971TIP3    H251329   0.655   0.853  16.099 -1.1041  1.1027  0.3672
 9972TIP3   OH251330   4.919   5.618   6.495  0.0351 -0.1609 -0.8340
 9972TIP3    H151331   4.977   5.692   6.514 -1.1665  0.9204 -1.3090
 9972TIP3    H251332   4.831   5.655   6.491 -0.5727 -1.5642 -1.3628
 9973TIP3   OH251333   6.121   1.839  17.387  0.1082 -0.5483 -0.5237
 9973TIP3    H151334   6.026   1.834  17.399 -0.0423 -0.0181 -1.4214
 9973TIP3    H251335   6.135   1.922  17.341  1.0398 -0.4670 -0.1172
 9974TIP3   OH251336   3.490   5.764   5.680  1.3007 -0.3295  0.3011
 9974TIP3    H151337   3.446   5.779   5.764  1.8285  1.2918  0.3236
 9974TIP3    H251338   3.421   5.777   5.615  1.0564 -0.8644  0.4488
 9975TIP3   OH251339   4.455   4.166  13.628 -0.8565 -0.5839 -0.2012
 9975TIP3    H151340   4.413   4.192  13.546 -0.2112  1.9688  0.1649
 9975TIP3    H251341   4.547   4.191  13.616 -0.9352  0.8096  1.5975
 9976TIP3   OH251342   0.399   1.074   1.156 -0.0590  0.2535  0.4289
 9976TIP3    H151343   0.430   1.154   1.200  1.9022  0.0890 -0.5142
 9976TIP3    H251344   0.310   1.063   1.186  0.6065  1.1281  2.9664
 9977TIP3   OH251345   1.326   2.720  13.830  0.4017  0.5198  1.2149
 9977TIP3    H151346   1.298   2.682  13.747  1.5835 -2.1011  1.9052
 9977TIP3    H251347   1.350   2.810  13.809  0.6036 -0.0571 -1.2778
 9978TIP3   OH251348   0.901   3.618   3.241  0.0116 -0.2161 -0.7887
 9978TIP3    H151349   0.954   3.568   3.179  2.1186  1.9133 -0.8264
 9978TIP3    H251350   0.891   3.704   3.200 -0.9055  0.3734  0.6070
 9979TIP3   OH251351   4.893   5.930  16.185  0.1874 -0.2672 -0.0064
 9979TIP3    H151352   4.936   5.905  16.267  0.6114  0.1113 -0.1098
 9979TIP3    H251353   4.923   6.020  16.169 -0.5961 -0.0215 -0.1098
 9980TIP3   OH251354   4.052   1.207   3.960 -0.4305  0.4048  0.2455
 9980TIP3    H151355   4.136   1.248   3.979 -0.2573 -0.0864  0.5511
 9980TIP3    H251356   3.987   1.274   3.983 -0.2445 -0.1927  2.7162
 9981TIP3   OH251357   0.625   1.975   5.849 -0.2285 -0.0496 -0.0308
 9981TIP3    H151358   0.604   2.068   5.835 -1.6868 -0.1947  0.9580
 9981TIP3    H251359   0.638   1.968   5.944  0.8303 -0.6863 -0.2129
 9982TIP3   OH251360   6.077   0.795   5.345  0.3620 -0.6809  0.0010
 9982TIP3    H151361   6.020   0.718   5.337 -1.1288  0.2767  0.8896
 9982TIP3    H251362   6.156   0.762   5.387  0.5480 -2.0770 -1.3649
 9983TIP3   OH251363   4.580   4.001   1.939  0.0060 -0.2056 -0.0367
 9983TIP3    H151364   4.653   3.966   1.990  0.8631  0.6062 -0.6831
 9983TIP3    H251365   4.597   3.973   1.849 -0.4916 -0.0265 -0.1943
 9984TIP3   OH251366   2.030   4.179   6.443 -0.2268  0.5643 -0.2847
 9984TIP3    H151367   2.069   4.255   6.487 -0.1472  0.0878  0.4838
 9984TIP3    H251368   1.987   4.130   6.513 -1.4079  0.5785 -0.9774
 9985TIP3   OH251369   3.638   2.392   5.267 -0.4269  0.1367 -0.5958
 9985TIP3    H151370   3.622   2.420   5.177 -0.9041  0.3213 -0.4572
 9985TIP3    H251371   3.654   2.473   5.315 -1.7038  0.1985 -0.2169
 9986TIP3   OH251372   0.832   6.182   5.855 -0.0617  0.4774 -0.3013
 9986TIP3    H151373   0.872   6.192   5.768 -0.3082  0.8092 -0.3758
 9986TIP3    H251374   0.877   6.247   5.910  1.3934 -0.9489  0.2853
 9987TIP3   OH251375   0.183   1.677   3.649 -0.0487  0.5438  0.2993
 9987TIP3    H151376   0.184   1.601   3.708  0.5253  0.4873  0.2197
 9987TIP3    H251377   0.096   1.676   3.610  0.1596 -0.4332 -0.1631
 9988TIP3   OH251378   4.468   3.459   5.852 -0.4323 -0.0861  0.4085
 9988TIP3    H151379   4.436   3.370   5.866  1.1361 -0.3141  3.3583
 9988TIP3    H251380   4.407   3.515   5.900 -0.5325  0.2851 -0.1392
 9989TIP3   OH251381   0.282   0.758   0.112  0.1184  0.1069  0.2731
 9989TIP3    H151382   0.324   0.758   0.026 -1.2599  0.1308 -0.4239
 9989TIP3    H251383   0.201   0.709   0.099  0.2086 -0.4896  1.7336
 9990TIP3   OH251384   1.126   2.150   3.590 -0.7175  0.1140  0.5181
 9990TIP3    H151385   1.154   2.241   3.596 -0.2391  0.1554 -1.4703
 9990TIP3    H251386   1.200   2.100   3.625 -1.4072  0.4753  2.6211
 9991TIP3   OH251387   2.032   3.396   4.585 -0.5253  0.1108 -0.1594
 9991TIP3    H151388   2.031   3.388   4.490 -0.7169 -3.3635  0.0194
 9991TIP3    H251389   2.123   3.416   4.606  0.1989 -2.0117 -1.0012
 9992TIP3   OH251390   4.221   3.898   5.529  0.3630  0.3803 -0.5626
 9992TIP3    H151391   4.296   3.957   5.540  1.5577 -1.0485 -0.7017
 9992TIP3    H251392   4.260   3.814   5.502 -1.2885 -0.4245 -0.5821
 9993TIP3   OH251393   4.443   5.835   3.659 -0.3743 -0.1145  0.0425
 9993TIP3    H151394   4.458   5.762   3.599 -0.8688 -0.4909  0.3642
 9993TIP3    H251395   4.365   5.810   3.709  0.8451 -0.4791  1.8718
 9994TIP3   OH251396   2.675   1.669  14.072  0.7953 -0.3663 -0.6654
 9994TIP3    H151397   2.634   1.743  14.027  1.1754  0.8289  0.8663
 9994TIP3    H251398   2.608   1.639  14.133  0.3325 -1.8888 -1.8523
 9995TIP3   OH251399   6.276   1.280  14.413  0.4560  0.0807 -0.2548
 9995TIP3    H151400   6.209   1.331  14.459 -1.1525 -1.4325 -0.8309
 9995TIP3    H251401   6.263   1.300  14.321  1.5832  0.6514 -0.3069
 9996TIP3   OH251402   5.531   4.227  11.555  0.3128 -0.4085 -0.1825
 9996TIP3    H151403   5.517   4.289  11.484 -3.5043  0.1217  0.8046
 9996TIP3    H251404   5.467   4.158  11.539 -1.2273  0.1135  3.0221
 9997TIP3   OH251405   0.601   0.664  16.230  0.2245 -0.0468 -0.0220
 9997TIP3    H151406   0.609   0.592  16.292  0.3514  0.7131  0.8771
 9997TIP3    H251407   0.537   0.634  16.165 -0.1368 -0.7388  0.6445
 9998TIP3   OH251408   2.130   6.278   4.455 -0.1999  0.1288 -0.2533
 9998TIP3    H151409   2.203   6.288   4.517  0.0690 -0.4033 -0.4763
 9998TIP3    H251410   2.168   6.298   4.370  0.4787 -2.8982 -0.7947
 9999TIP3   OH251411   3.163   4.564   3.759 -0.3008  0.1631  0.1388
 9999TIP3    H151412   3.128   4.526   3.840  1.0443  0.1109  0.7122
 9999TIP3    H251413   3.148   4.658   3.770  1.8160  0.4214  1.4902
10000TIP3   OH251414   2.943   6.760  14.486  0.3077 -0.3527 -0.1030
10000TIP3    H151415   2.966   6.806  14.566  3.6592  0.7070 -1.5028
10000TIP3    H251416   3.020   6.708  14.465 -1.2908 -2.3251 -1.5565
10001TIP3   OH251417   4.213   5.861  14.869 -0.8048 -0.5072 -0.1439
10001TIP3    H151418   4.285   5.919  14.844 -1.3648  0.1154 -0.3595
10001TIP3    H251419   4.164   5.911  14.934  0.6844 -2.1375  2.3747
10002TIP3   OH251420   6.165   5.940  17.151  0.0370  0.3769 -0.4092
10002TIP3    H151421   6.179   6.035  17.158  0.8714  0.2044  0.3463
10002TIP3    H251422   6.069   5.931  17.150 -0.1622  1.0467  2.6793
10003TIP3   OH251423   2.368   5.792   3.770  0.1947 -0.1396 -0.2291
10003TIP3    H151424   2.334   5.708   3.800 -0.3374  0.1395 -0.0376
10003TIP3    H251425   2.323   5.807   3.686 -1.7809  1.2081  0.9937
10004TIP3   OH251426   2.830   5.918   1.935 -0.9152 -0.4856 -0.6711
10004TIP3    H151427   2.867   5.892   1.851 -0.0683 -0.3807 -0.3476
10004TIP3    H251428   2.889   5.878   2.000 -0.5418  0.8388 -0.1584
10005TIP3   OH251429   2.853   0.639   4.138 -0.8770 -0.2664  0.2765
10005TIP3    H151430   2.825   0.730   4.145  0.2636  0.1847 -0.6887
10005TIP3    H251431   2.790   0.590   4.191 -0.3988  1.2840  2.3914
10006TIP3   OH251432   2.304   2.975  14.032 -0.2167  0.1691  0.3295
10006TIP3    H151433   2.328   3.029  13.957 -0.6508  0.8490  0.6628
10006TIP3    H251434   2.381   2.979  14.090  0.5674 -1.2853 -0.5603
10007TIP3   OH251435   0.750   6.048   1.674  0.3452 -0.5067  0.3269
10007TIP3    H151436   0.705   6.022   1.594 -3.3262 -0.9749  2.3262
10007TIP3    H251437   0.744   5.972   1.732  0.9520  0.5124  1.8035
10008TIP3   OH251438   2.522   1.275   3.491  0.1120  0.1381  0.3496
10008TIP3    H151439   2.519   1.363   3.529  0.2760  0.0617  0.5384
10008TIP3    H251440   2.582   1.227   3.547 -1.6882 -0.7462  1.6248
10009TIP3   OH251441   1.543   6.089  11.257 -0.4381  0.3063 -0.0309
10009TIP3    H151442   1.501   6.042  11.185 -0.5209  0.4981 -0.1070
10009TIP3    H251443   1.471   6.111  11.316 -0.5011  1.0114 -0.3696
10010TIP3   OH251444   3.108   6.663  16.612  0.1683 -0.4459 -0.3367
10010TIP3    H151445   3.048   6.631  16.679  0.1071  0.7698  0.2243
10010TIP3    H251446   3.193   6.664  16.656 -0.0891  1.6449  0.2227
10011TIP3   OH251447   3.592   5.129  13.042 -0.4037 -0.3883  0.0088
10011TIP3    H151448   3.500   5.104  13.054 -0.5588  0.3515  0.3483
10011TIP3    H251449   3.589   5.207  12.987 -0.0026 -0.0514  0.4605
10012TIP3   OH251450   1.722   5.911   3.645 -0.4508 -0.7973  0.1325
10012TIP3    H151451   1.658   5.980   3.660  0.1534 -0.1373 -0.2918
10012TIP3    H251452   1.762   5.895   3.731 -0.7193 -0.7470  0.2650
10013TIP3   OH251453   0.317   4.627   0.732  0.3766  0.2836  0.1806
10013TIP3    H151454   0.260   4.577   0.791 -0.7011  1.9519  0.6368
10013TIP3    H251455   0.321   4.576   0.652 -0.5303 -0.6010  0.6849
10014TIP3   OH251456   3.358   5.116   6.141 -0.7220  0.2125 -0.3715
10014TIP3    H151457   3.308   5.062   6.202  0.7926 -0.3933  0.3932
10014TIP3    H251458   3.389   5.189   6.194  0.8963 -0.4990 -0.2841
10015TIP3   OH251459   3.586   0.662  13.531  0.3484  0.5406 -0.1228
10015TIP3    H151460   3.664   0.670  13.477  0.0785  2.4762 -0.2921
10015TIP3    H251461   3.520   0.623  13.473  0.7878  0.1743 -0.3840
10016TIP3   OH251462   0.202   4.201  14.836 -0.1475 -0.1088  0.2852
10016TIP3    H151463   0.200   4.105  14.836 -2.3774 -0.1284 -0.1475
10016TIP3    H251464   0.124   4.227  14.884 -0.1408  1.4863 -0.4841
10017TIP3   OH251465   4.204   3.236   5.153 -0.3372 -0.2655  0.2865
10017TIP3    H151466   4.296   3.210   5.164 -0.3400 -0.0335  0.8648
10017TIP3    H251467   4.154   3.162   5.189 -0.3669 -0.1182  0.5506
10018TIP3   OH251468   6.289   5.111   3.507 -0.2511  0.1961  0.1753
10018TIP3    H151469   6.218   5.070   3.457 -0.8308  0.9143  0.3964
10018TIP3    H251470   6.265   5.203   3.513  0.9364  0.5414 -0.1365
10019TIP3   OH251471   2.537   6.339  16.849  0.3513  0.4445 -0.0322
10019TIP3    H151472   2.603   6.407  16.837 -0.5160  1.0812 -1.5456
10019TIP3    H251473   2.583   6.258  16.829  0.9931  0.7387  0.2068
10020TIP3   OH251474   4.002   1.063  16.862  0.3878 -0.2612  0.3801
10020TIP3    H151475   4.060   0.987  16.850  0.6099  0.3086 -3.3629
10020TIP3    H251476   4.060   1.138  16.858 -0.1983  0.2172  0.7145
10021TIP3   OH251477   2.978   1.471  14.654  0.0867  0.6477  0.5992
10021TIP3    H151478   2.963   1.403  14.588 -1.4536 -0.6239  2.1422
10021TIP3    H251479   2.928   1.547  14.622  0.6029  0.5670 -0.4232
10022TIP3   OH251480   3.206   2.250  12.721 -0.1943  0.2546 -0.3000
10022TIP3    H151481   3.174   2.318  12.661  1.0829  1.1439 -0.0052
10022TIP3    H251482   3.301   2.260  12.720 -0.0438 -0.9310  0.4770
10023TIP3   OH251483   5.209   1.439  12.108 -0.4854  0.1956  0.2948
10023TIP3    H151484   5.238   1.498  12.038 -1.9743  1.0513  0.3486
10023TIP3    H251485   5.287   1.389  12.131 -0.1396 -0.8057 -2.6099
10024TIP3   OH251486   4.921   3.361  13.209  0.0937  0.0208 -0.3954
10024TIP3    H151487   4.966   3.325  13.285 -0.8135  0.3321  0.3013
10024TIP3    H251488   4.852   3.417  13.246 -0.4217  0.0949 -1.4404
10025TIP3   OH251489   3.685   3.649   4.491  0.1408  0.4848 -0.5109
10025TIP3    H151490   3.632   3.648   4.571 -1.1738  2.2187 -1.3015
10025TIP3    H251491   3.634   3.596   4.429  1.1725 -0.8847 -0.2339
10026TIP3   OH251492   4.451   1.581  16.487  0.1397 -0.4097 -0.3539
10026TIP3    H151493   4.501   1.503  16.513 -0.6248 -1.3443 -1.5282
10026TIP3    H251494   4.517   1.642  16.455  0.7950 -0.3757  0.9977
10027TIP3   OH251495   6.372   4.693  11.161 -0.1414 -0.1157  0.0114
10027TIP3    H151496   6.336   4.781  11.149 -1.7481 -0.5712  1.0932
10027TIP3    H251497   6.344   4.645  11.083 -2.2759 -0.5257  0.9297
10028TIP3   OH251498   2.129   6.702   4.550 -0.3324  0.4667  0.2460
10028TIP3    H151499   2.158   6.791   4.569  1.1858  0.3093 -1.0907
10028TIP3    H251500   2.207   6.659   4.514 -1.4465 -0.9409 -0.5879
10029TIP3   OH251501   2.686   6.045   3.558  0.6937  0.0360  0.4378
10029TIP3    H151502   2.715   5.967   3.511 -1.5551 -0.1543 -0.7987
10029TIP3    H251503   2.734   6.117   3.519  1.6577 -0.5422  0.5270
10030TIP3   OH251504   0.052   4.651  15.926 -0.4721 -0.2825  0.1082
10030TIP3    H151505   0.098   4.685  16.003 -1.3176 -0.6121  0.7685
10030TIP3    H251506  -0.039   4.673  15.941 -0.6447 -0.3286 -0.8225
10031TIP3   OH251507   5.505   1.452   0.184  0.1477  0.2456 -0.2481
10031TIP3    H151508   5.469   1.389   0.247  0.1918  0.8925  0.4338
10031TIP3    H251509   5.599   1.437   0.186  0.3363  1.4238  1.1468
10032TIP3   OH251510   2.734   2.647   3.795 -0.4482  0.5845  0.1401
10032TIP3    H151511   2.660   2.689   3.750  0.2012  1.6080 -0.0094
10032TIP3    H251512   2.729   2.680   3.885 -0.0062  0.9083  0.0525
10033TIP3   OH251513   0.252   0.740  15.420  0.1186 -0.5068 -0.3391
10033TIP3    H151514   0.178   0.733  15.361  0.1864 -1.9341 -0.2906
10033TIP3    H251515   0.327   0.758  15.363 -0.4138  2.5068 -0.2661
10034TIP3   OH251516   1.813   1.752  11.014  0.1679  0.0497  0.2777
10034TIP3    H151517   1.742   1.782  11.071  1.9538  0.4735  2.4502
10034TIP3    H251518   1.836   1.828  10.960 -1.3126 -0.2483 -0.8221
10035TIP3   OH251519   4.440   4.423  15.371 -0.4398  0.4452  0.0557
10035TIP3    H151520   4.429   4.393  15.281 -0.8288 -1.1481  0.6082
10035TIP3    H251521   4.519   4.379  15.402  0.2362  1.7134  0.2301
10036TIP3   OH251522   6.379   1.401  17.355 -0.1400  0.4221 -0.0594
10036TIP3    H151523   6.432   1.402  17.276  0.0552  2.6261  0.0408
10036TIP3    H251524   6.316   1.471  17.342 -2.5443 -1.5583  0.2053
10037TIP3   OH251525   5.886   0.279   4.346  0.1941  0.5579  0.4371
10037TIP3    H151526   5.815   0.332   4.308 -0.4491 -0.9195 -0.5469
10037TIP3    H251527   5.929   0.240   4.270  0.8048 -0.1101  1.1134
10038TIP3   OH251528   2.476   0.968   4.470  0.4399 -0.4594  0.1330
10038TIP3    H151529   2.528   1.043   4.497  0.4444 -0.9597  1.6033
10038TIP3    H251530   2.489   0.903   4.539  0.2310 -1.7264 -0.9701
10039TIP3   OH251531   0.814   5.897  12.091 -0.1000  0.2210  0.1698
10039TIP3    H151532   0.907   5.889  12.069 -0.2256  1.9989 -1.2280
10039TIP3    H251533   0.813   5.931  12.180  0.6000  0.7536 -0.0211
10040TIP3   OH251534   2.612   3.081   2.858 -0.6662  0.2919  0.2053
10040TIP3    H151535   2.543   3.044   2.913  0.6902 -1.2416  0.9727
10040TIP3    H251536   2.668   3.129   2.919 -0.4067  0.5185 -0.2069
10041TIP3   OH251537   6.572   1.563  14.023  0.6972  0.6916  0.2644
10041TIP3    H151538   6.652   1.609  13.997  0.1751  1.6394  0.2865
10041TIP3    H251539   6.588   1.538  14.114  2.2992 -2.1264 -0.6664
10042TIP3   OH251540   1.789   4.577  13.171  0.1938  0.3886  0.2999
10042TIP3    H151541   1.799   4.506  13.234 -0.0242  0.8554  0.8654
10042TIP3    H251542   1.711   4.555  13.122  0.6833 -0.2698 -0.1989
10043TIP3   OH251543   1.749   5.554   1.168 -0.1785 -0.1050 -0.1365
10043TIP3    H151544   1.803   5.630   1.189  3.2717 -2.5486  0.7668
10043TIP3    H251545   1.755   5.545   1.073  0.2810  0.1462 -0.1328
10044TIP3   OH251546   3.214   6.697   1.986 -0.7121 -0.1047 -0.4702
10044TIP3    H151547   3.178   6.778   2.022 -0.5115  0.0307 -0.5721
10044TIP3    H251548   3.308   6.704   2.002 -0.6722 -0.2271 -0.6558
10045TIP3   OH251549   6.178   2.190  13.777 -0.0902 -0.3840  0.3894
10045TIP3    H151550   6.097   2.225  13.814 -0.0638  0.6576 -0.4954
10045TIP3    H251551   6.161   2.096  13.766 -0.9158 -0.2936  0.8423
10046TIP3   OH251552   5.130   0.246  11.254  0.1087 -0.2802 -0.2114
10046TIP3    H151553   5.186   0.282  11.323  1.7471  0.0831 -1.6459
10046TIP3    H251554   5.187   0.242  11.177 -1.9445  0.4278 -1.8646
10047TIP3   OH251555   5.849   3.616  11.863 -0.4124  0.2811  0.8291
10047TIP3    H151556   5.776   3.661  11.906 -0.2856  0.0954  1.2477
10047TIP3    H251557   5.825   3.612  11.771 -0.3702  1.3147  0.7678
10048TIP3   OH251558   4.474   5.961  15.816 -0.0214  0.0070  0.6239
10048TIP3    H151559   4.552   5.905  15.813  0.1962  0.2380  1.7087
10048TIP3    H251560   4.468   5.998  15.728  2.6755  2.0714  1.1606
10049TIP3   OH251561   4.139   0.625   3.127  0.1693 -0.5679 -0.2166
10049TIP3    H151562   4.152   0.716   3.101 -0.4360 -0.7626 -1.2555
10049TIP3    H251563   4.224   0.599   3.163 -0.1416  0.9109  1.7556
10050TIP3   OH251564   4.418   0.111   4.043 -0.0988  0.8083 -0.1161
10050TIP3    H151565   4.358   0.184   4.054 -1.5961 -0.4222  0.2345
10050TIP3    H251566   4.453   0.095   4.130 -1.7036 -0.4406  0.3466
10051TIP3   OH251567   1.257   1.973  13.628  0.5812 -0.8140 -0.0838
10051TIP3    H151568   1.251   1.881  13.603 -0.4925 -0.7201 -0.2192
10051TIP3    H251569   1.264   1.971  13.723 -0.7729 -1.0108  0.0305
10052TIP3   OH251570   5.575   0.360  14.680  0.0137  0.3452 -0.0532
10052TIP3    H151571   5.625   0.292  14.634 -0.1327 -0.5085  1.0284
10052TIP3    H251572   5.642   0.422  14.709  0.0064  1.6822 -2.5763
10053TIP3   OH251573   3.929   3.981  12.168  0.1027  0.1070  0.4258
10053TIP3    H151574   3.852   4.022  12.209  0.5774  1.3210  0.1638
10053TIP3    H251575   3.901   3.892  12.147 -0.8695  0.1807  1.3390
10054TIP3   OH251576   0.161   4.745   3.463  0.0229  0.0905  0.4735
10054TIP3    H151577   0.146   4.836   3.489 -2.3562  0.1122 -0.6970
10054TIP3    H251578   0.076   4.703   3.475  1.0297 -1.9693  0.8015
10055TIP3   OH251579   0.994   6.614   2.385 -0.2302  0.0270  0.2283
10055TIP3    H151580   1.049   6.601   2.461  2.2684  1.4894 -1.2021
10055TIP3    H251581   1.025   6.550   2.321  0.7590  1.6796 -1.0295
10056TIP3   OH251582   2.101   3.222  15.910  0.2239 -0.4355 -0.5374
10056TIP3    H151583   2.127   3.149  15.965 -1.0318  0.5769  1.5321
10056TIP3    H251584   2.006   3.226  15.919  0.2797  1.5698 -0.4025
10057TIP3   OH251585   1.054   5.894  14.406  0.3072  0.1582 -0.2313
10057TIP3    H151586   1.034   5.805  14.435  1.7227 -0.2848 -0.5192
10057TIP3    H251587   1.069   5.885  14.311  1.4362  0.5062 -0.0943
10058TIP3   OH251588   2.378   0.903   2.721 -0.7305 -0.0799 -0.2331
10058TIP3    H151589   2.345   0.890   2.632 -2.7790 -0.0889  0.4767
10058TIP3    H251590   2.302   0.931   2.771  0.4992  0.4814  1.4220
10059TIP3   OH251591   6.212   2.599  15.122  0.6464  0.5273  0.1203
10059TIP3    H151592   6.126   2.584  15.083  1.4466  0.7283 -1.8896
10059TIP3    H251593   6.273   2.563  15.057  2.0745 -0.0383  1.7043
10060TIP3   OH251594   4.704   5.330  13.555 -0.3955  0.3023 -0.0785
10060TIP3    H151595   4.711   5.312  13.462  1.1254 -1.6962  0.3375
10060TIP3    H251596   4.616   5.366  13.567 -1.1455 -0.7313 -2.0722
10061TIP3   OH251597   6.085   3.589  16.370 -0.1161  0.0194  0.2601
10061TIP3    H151598   6.110   3.667  16.421  1.9540  1.0389 -2.0737
10061TIP3    H251599   6.169   3.552  16.342 -1.0891 -0.1393 -2.7503
10062TIP3   OH251600   2.403   2.716  16.424 -0.2120 -0.3455 -0.1106
10062TIP3    H151601   2.341   2.783  16.395  0.5068 -0.2710 -1.5288
10062TIP3    H251602   2.350   2.637  16.432 -1.0234  0.2951  1.3608
10063TIP3   OH251603   3.248   0.757  15.676  0.2451  0.1570 -0.7680
10063TIP3    H151604   3.195   0.752  15.755  0.0127  0.9178 -0.8709
10063TIP3    H251605   3.336   0.777  15.708  0.0484  0.9803 -0.7304
10064TIP3   OH251606   0.187   3.289   2.249  0.0738  0.0073  0.1647
10064TIP3    H151607   0.186   3.380   2.221  2.9173  0.3563  0.8401
10064TIP3    H251608   0.154   3.291   2.339 -0.0494  0.3394  0.1115
10065TIP3   OH251609   5.244   1.424  14.280  0.8391 -0.4138  0.3633
10065TIP3    H151610   5.260   1.332  14.300  1.6697  0.0282  1.8512
10065TIP3    H251611   5.314   1.471  14.325  0.9907  0.8977 -1.1455
10066TIP3   OH251612   4.593   1.645  11.826  0.2804 -0.1362  0.1714
10066TIP3    H151613   4.519   1.637  11.766  0.9586 -0.1230 -0.6956
10066TIP3    H251614   4.559   1.697  11.899 -0.5477 -0.0786 -0.2398
10067TIP3   OH251615   6.377   2.563   3.497 -0.1102  0.7551 -0.7144
10067TIP3    H151616   6.349   2.477   3.466 -0.0333  0.5814 -0.3055
10067TIP3    H251617   6.405   2.549   3.587  0.0309  1.1835 -0.6859
10068TIP3   OH251618   3.706   4.162   1.217 -0.4621  0.1910 -0.0570
10068TIP3    H151619   3.735   4.221   1.148 -0.3985  0.7725  0.4571
10068TIP3    H251620   3.749   4.194   1.296  0.6156 -1.3437  0.0126
10069TIP3   OH251621   3.379   0.470  10.217  0.8000  0.6267 -0.7505
10069TIP3    H151622   3.444   0.438  10.280  2.0621  0.7267 -1.9550
10069TIP3    H251623   3.296   0.465  10.264  1.2588 -2.0557 -0.0158
10070TIP3   OH251624   4.370   3.144  15.475 -1.0570 -0.4846 -0.1218
10070TIP3    H151625   4.351   3.201  15.550  0.2620 -0.8948  0.5586
10070TIP3    H251626   4.362   3.055  15.509  0.4160 -0.6796 -0.1937
10071TIP3   OH251627   4.844   6.436  15.833  0.8213  0.4453  0.2092
10071TIP3    H151628   4.929   6.416  15.794 -0.0143 -0.5570 -1.1653
10071TIP3    H251629   4.854   6.411  15.925  2.0725  0.5402  0.1146
10072TIP3   OH251630   2.553   0.535   5.232 -0.3572  0.0322 -0.2717
10072TIP3    H151631   2.544   0.480   5.310  0.1823  0.7242  0.3004
10072TIP3    H251632   2.599   0.613   5.263  1.3053 -0.3519 -1.5844
10073TIP3   OH251633   6.274   6.313  12.279  0.1838  0.5666  0.0287
10073TIP3    H151634   6.277   6.287  12.187 -0.9232 -1.3919  0.4891
10073TIP3    H251635   6.366   6.320  12.304  0.6167 -2.2461 -0.4112
10074TIP3   OH251636   5.386   0.172  12.144 -0.2806 -0.4346 -0.4485
10074TIP3    H151637   5.339   0.092  12.170 -0.5557  0.6416  2.8507
10074TIP3    H251638   5.317   0.234  12.123 -0.1393 -0.3774 -0.7464
10075TIP3   OH251639   5.812   0.809  15.237  0.4659 -0.2135 -0.3138
10075TIP3    H151640   5.787   0.798  15.329  0.6144 -1.0842 -0.3724
10075TIP3    H251641   5.902   0.839  15.240  0.4595 -0.2060 -0.1762
10076TIP3   OH251642   5.452   3.766  13.106 -0.8223  0.0843  0.8137
10076TIP3    H151643   5.374   3.740  13.057 -1.3102  0.6972  1.2560
10076TIP3    H251644   5.419   3.809  13.184 -0.0823  2.1607  0.0726
10077TIP3   OH251645   4.700   4.643  14.130  0.6475  0.4196 -0.3387
10077TIP3    H151646   4.699   4.729  14.173  1.1498  1.0984 -1.6524
10077TIP3    H251647   4.758   4.654  14.055  0.2393 -0.9116 -0.8754
10078TIP3   OH251648   3.643   6.077  11.680  0.2408  0.8035  0.1533
10078TIP3    H151649   3.600   6.146  11.629 -4.7519 -2.0151 -0.0943
10078TIP3    H251650   3.642   6.110  11.770 -0.4766  1.7614 -0.1861
10079TIP3   OH251651   1.283   1.194  11.783  0.4265 -0.2573  0.0003
10079TIP3    H151652   1.356   1.251  11.761  1.1458 -1.0208  0.3337
10079TIP3    H251653   1.227   1.247  11.840 -0.6481  1.1930 -2.2989
10080TIP3   OH251654   6.675   4.944  13.385  1.0675 -0.3605  0.0668
10080TIP3    H151655   6.691   4.909  13.298 -0.1265  0.4681 -0.5163
10080TIP3    H251656   6.580   4.941  13.395  0.9135  2.2806  0.1063
10081TIP3   OH251657   2.681   2.365  15.531  0.2791 -0.6138 -1.0043
10081TIP3    H151658   2.630   2.361  15.612 -1.8567  1.3975 -2.1375
10081TIP3    H251659   2.668   2.280  15.490  0.1136 -1.1047  0.0343
10082TIP3   OH251660   4.174   4.433  15.810 -0.2703 -0.3539 -0.2308
10082TIP3    H151661   4.193   4.432  15.716 -0.6272 -0.1157 -0.3074
10082TIP3    H251662   4.164   4.341  15.834 -1.3672 -0.3702 -0.6755
10083TIP3   OH251663   5.456   6.068   1.795  0.0906 -0.4101 -0.4767
10083TIP3    H151664   5.443   6.068   1.890 -1.0208 -0.4381 -0.6140
10083TIP3    H251665   5.551   6.071   1.784  0.2436 -0.6144  0.6356
10084TIP3   OH251666   6.420   2.496  12.442  0.1463  0.1220 -0.4665
10084TIP3    H151667   6.363   2.436  12.393 -2.2723  2.3748 -0.6423
10084TIP3    H251668   6.438   2.567  12.380 -0.3997  1.5011  0.9038
10085TIP3   OH251669   3.853   4.190  10.643 -0.3382 -0.2993  0.1154
10085TIP3    H151670   3.875   4.103  10.608 -1.7292 -0.4443 -0.4671
10085TIP3    H251671   3.757   4.193  10.642 -0.3121  1.5361 -0.6063
10086TIP3   OH251672   2.880   1.713  14.268 -0.1118 -0.3716 -0.3220
10086TIP3    H151673   2.960   1.709  14.216 -0.4255 -2.5004 -0.7209
10086TIP3    H251674   2.812   1.677  14.211 -1.4756  1.6528 -0.1007
10087TIP3   OH251675   3.705   4.633   4.931 -0.1112  0.6968  0.7039
10087TIP3    H151676   3.679   4.723   4.949  0.6797  0.9454  0.6218
10087TIP3    H251677   3.646   4.580   4.986 -1.0977  1.2133  0.1821
10088TIP3   OH251678   6.048   4.478   3.472  0.1005 -0.1040  0.0185
10088TIP3    H151679   5.968   4.442   3.434  0.8147 -1.7892 -0.0062
10088TIP3    H251680   6.117   4.446   3.414  0.7960  1.4035 -0.0214
10089TIP3   OH251681   2.315   2.424   3.339  0.1708 -0.4458 -0.4245
10089TIP3    H151682   2.240   2.482   3.355 -1.1360 -2.0382 -0.5286
10089TIP3    H251683   2.348   2.451   3.253  0.3505  0.9151  0.0455
10090TIP3   OH251684   6.642   4.154  13.408  0.7330 -0.0685 -0.0646
10090TIP3    H151685   6.678   4.172  13.321  0.8770 -0.3512 -0.0625
10090TIP3    H251686   6.559   4.110  13.392  0.3165  0.6937 -0.0720
10091TIP3   OH251687   3.757   2.505  16.341  0.1975 -0.3627 -0.1174
10091TIP3    H151688   3.846   2.503  16.377  0.0299 -0.3310  0.3150
10091TIP3    H251689   3.728   2.595  16.356 -0.0727 -0.4968  0.1663
10092TIP3   OH251690   6.455   2.015   2.361  0.0771  0.2703 -0.5831
10092TIP3    H151691   6.377   2.065   2.337 -0.1033  0.1346 -0.2781
10092TIP3    H251692   6.424   1.925   2.370  0.3590  0.1378 -0.9137
10093TIP3   OH251693   2.368   3.587  15.523  0.1261 -0.1749  0.7045
10093TIP3    H151694   2.273   3.577  15.525  0.2390 -1.1737  1.6695
10093TIP3    H251695   2.384   3.644  15.447 -1.1193 -1.2186 -0.4033
10094TIP3   OH251696   2.202   4.917   2.490 -0.4021  0.0425 -0.2376
10094TIP3    H151697   2.138   4.878   2.431  1.4345 -1.1323 -1.5661
10094TIP3    H251698   2.278   4.858   2.485  1.0236  1.7082  0.7703
10095TIP3   OH251699   2.489   4.681   3.032 -0.2215 -0.4119 -0.0061
10095TIP3    H151700   2.478   4.660   3.125 -1.3663  1.4871  0.3397
10095TIP3    H251701   2.545   4.758   3.031  0.7169 -1.0695 -0.9961
10096TIP3   OH251702   4.707   0.342  15.335  0.4997  0.4888 -0.1127
10096TIP3    H151703   4.762   0.419  15.321 -0.4703  0.8455 -2.5553
10096TIP3    H251704   4.701   0.302  15.248 -0.6310 -1.2411  0.7206
10097TIP3   OH251705   5.185   0.421   5.183 -0.0219  0.4860  0.0586
10097TIP3    H151706   5.220   0.466   5.106 -0.3310 -0.0976 -0.4259
10097TIP3    H251707   5.189   0.328   5.161  1.0856  0.2164  1.2467
10098TIP3   OH251708   5.134   4.327  15.184 -0.2275 -0.8361 -0.1603
10098TIP3    H151709   5.209   4.337  15.243  0.5248 -0.1138 -1.2158
10098TIP3    H251710   5.119   4.414  15.149 -0.6467 -1.2534 -1.0542
10099TIP3   OH251711   1.068   2.169  11.484 -0.1605 -0.3753  0.0271
10099TIP3    H151712   1.121   2.182  11.563 -2.3334 -0.5063  1.5878
10099TIP3    H251713   1.114   2.099  11.436  1.7850  0.4513  0.5965
10100TIP3   OH251714   2.031   5.432   3.669 -0.1928 -0.7099  0.6612
10100TIP3    H151715   1.991   5.493   3.731 -0.3215  1.9470 -1.8161
10100TIP3    H251716   1.957   5.394   3.621 -0.0560 -2.0689  1.4758
10101TIP3   OH251717   2.351   4.937   0.873  0.4710 -0.4367 -0.2780
10101TIP3    H151718   2.376   4.924   0.965  1.4328 -0.3270 -0.5152
10101TIP3    H251719   2.426   4.905   0.823  0.1364 -0.0793 -1.0189
10102TIP3   OH251720   1.405   2.603   2.790 -0.2128  0.3797  0.2342
10102TIP3    H151721   1.494   2.569   2.793  0.4155  2.0036  1.2378
10102TIP3    H251722   1.359   2.545   2.730  1.5123 -0.4988 -0.2973
10103TIP3   OH251723   0.447   5.878  12.901  0.2943 -1.0221 -0.1477
10103TIP3    H151724   0.535   5.841  12.893 -0.0739 -1.9775  0.0365
10103TIP3    H251725   0.461   5.970  12.921  1.2859 -1.4638  1.3709
10104TIP3   OH251726   2.182   2.571   2.777  0.9793 -0.6244  0.3855
10104TIP3    H151727   2.206   2.538   2.691  1.5594 -2.2793  1.1427
10104TIP3    H251728   2.108   2.516   2.805 -0.3473  1.0026  0.2755
10105TIP3   OH251729   0.267   4.986   3.922  0.5696 -0.3099  1.1190
10105TIP3    H151730   0.342   4.952   3.972  0.0031 -1.6496  1.1043
10105TIP3    H251731   0.302   4.999   3.834  1.0488  0.0978  1.3626
10106TIP3   OH251732   0.680   3.822   2.682  0.1906  0.1878  0.1257
10106TIP3    H151733   0.658   3.915   2.680  1.8464  0.6792  1.9144
10106TIP3    H251734   0.753   3.813   2.621 -0.5711 -0.1600 -0.7650
10107TIP3   OH251735   2.319   5.749   0.051 -0.0572 -0.1295  0.1173
10107TIP3    H151736   2.357   5.808  -0.013  0.4594 -0.4252  0.1440
10107TIP3    H251737   2.388   5.737   0.116  0.1353 -1.3656 -0.2867
10108TIP3   OH251738   3.373   3.844   4.524 -0.2560 -0.5315  0.6001
10108TIP3    H151739   3.382   3.751   4.547 -0.1989 -0.5942  0.3278
10108TIP3    H251740   3.278   3.858   4.518 -0.3241 -1.3800 -2.5017
10109TIP3   OH251741   2.246   2.124   3.032  0.1707 -0.0986  0.3808
10109TIP3    H151742   2.206   2.102   3.116 -1.4399  0.3494 -0.2359
10109TIP3    H251743   2.312   2.190   3.053  0.4188 -0.6435  1.3903
10110TIP3   OH251744   3.005   2.040  13.908 -0.5723  0.6358 -0.4932
10110TIP3    H151745   3.079   2.056  13.966 -0.4980 -1.3864  0.0752
10110TIP3    H251746   3.011   1.946  13.888 -1.5701  0.9317 -2.4217
10111TIP3   OH251747   3.304   5.400   1.281 -0.4609  0.1312  0.6211
10111TIP3    H151748   3.335   5.389   1.371  0.4519 -2.3958  0.0771
10111TIP3    H251749   3.211   5.419   1.289 -0.4728 -0.4331  2.0814
10112TIP3   OH251750   0.126   0.609   3.670  0.5362  0.1260  0.1580
10112TIP3    H151751   0.184   0.540   3.638  0.2468 -0.5595  1.0671
10112TIP3    H251752   0.043   0.595   3.625  0.9881  0.9759 -0.9817
10113TIP3   OH251753   2.696   2.302   3.808 -0.6588  0.7734  0.2606
10113TIP3    H151754   2.605   2.299   3.780 -0.8412  0.5917  0.8690
10113TIP3    H251755   2.693   2.296   3.903  0.0874 -3.4145  0.2207
10114TIP3   OH251756   4.754   2.492  16.060 -0.2103 -0.4158 -0.8073
10114TIP3    H151757   4.815   2.560  16.088 -0.7752 -0.6430  1.1222
10114TIP3    H251758   4.781   2.415  16.110  0.1003 -1.5046 -2.5803
10115TIP3   OH251759   5.716   1.733   5.239  0.5179  0.2365  0.0049
10115TIP3    H151760   5.675   1.770   5.317  0.2983  0.8524 -0.3963
10115TIP3    H251761   5.801   1.701   5.269  1.4758  2.6447  0.0545
10116TIP3   OH251762   5.476   3.678   1.889  0.0727 -0.2729  0.3482
10116TIP3    H151763   5.392   3.675   1.843  0.0699  1.2154  0.1966
10116TIP3    H251764   5.512   3.590   1.879 -0.8106 -0.5262 -0.8441
10117TIP3   OH251765   5.579   3.684  16.897 -0.6890 -0.5046 -0.1326
10117TIP3    H151766   5.537   3.657  16.978  1.7396  0.3663  1.5053
10117TIP3    H251767   5.521   3.752  16.862 -1.8449 -0.9919  0.7548
10118TIP3   OH251768   5.915   2.993  14.599 -0.2722  0.2156  0.3286
10118TIP3    H151769   5.825   2.980  14.569  0.0026 -0.0982 -0.3705
10118TIP3    H251770   5.907   3.058  14.670 -1.1282 -0.3835  0.7978
10119TIP3   OH251771   4.257   4.112  11.796 -0.3133 -0.0019  0.1347
10119TIP3    H151772   4.211   4.029  11.807 -1.6718  0.8649  1.2770
10119TIP3    H251773   4.189   4.174  11.772  0.4825  1.0313  0.5036
10120TIP3   OH251774   6.255   6.597   1.091 -0.0624  0.2330 -0.5325
10120TIP3    H151775   6.316   6.560   1.028 -0.9688 -1.9516 -0.2269
10120TIP3    H251776   6.170   6.560   1.067 -0.8185  1.1426  0.6044
10121TIP3   OH251777   4.573   6.194  13.109  0.0060  0.3328 -0.3360
10121TIP3    H151778   4.601   6.107  13.078  0.8267  0.1868  0.7577
10121TIP3    H251779   4.650   6.250  13.093 -0.6031  0.9346 -1.2649
10122TIP3   OH251780   5.859   1.662  12.010 -0.0981  0.0743 -0.3072
10122TIP3    H151781   5.942   1.634  12.049 -1.0205 -0.6848  1.2139
10122TIP3    H251782   5.852   1.755  12.030  0.4057  0.1533 -0.4961
10123TIP3   OH251783   3.197   3.420   3.625 -0.2919 -0.0975  0.3291
10123TIP3    H151784   3.251   3.474   3.566 -0.4247  2.1509  2.1148
10123TIP3    H251785   3.244   3.423   3.709 -1.9141 -0.1722  1.2728
10124TIP3   OH251786   6.528   3.821   3.990  0.1909  0.4855  0.1912
10124TIP3    H151787   6.521   3.915   3.972  1.1654  0.5522  0.1075
10124TIP3    H251788   6.621   3.807   4.007 -0.0510 -0.3496  0.8820
10125TIP3   OH251789   4.630   4.787  15.733  0.6326  0.0885 -0.2254
10125TIP3    H151790   4.614   4.779  15.827 -0.5081  0.6772 -0.3546
10125TIP3    H251791   4.560   4.735  15.693  1.1373 -0.1920 -0.7521
10126TIP3   OH251792   6.713   5.053  16.312 -0.6926 -0.0496 -0.2764
10126TIP3    H151793   6.671   5.114  16.252 -0.6195  0.8788  0.5930
10126TIP3    H251794   6.803   5.046  16.279  0.2036  2.7033  1.3056
10127TIP3   OH251795   6.594   3.768  15.866  0.0520 -0.1419 -0.3633
10127TIP3    H151796   6.523   3.830  15.850  1.5713  2.6669  2.5559
10127TIP3    H251797   6.666   3.800  15.812  0.9156  0.8856  1.3224
10128TIP3   OH251798   6.505   4.261  14.408  0.0490 -0.8100  0.2860
10128TIP3    H151799   6.498   4.175  14.449 -0.6654 -0.0617  1.7770
10128TIP3    H251800   6.415   4.294  14.405  0.1621 -0.5485 -1.2868
10129TIP3   OH251801   2.889   2.607   0.302  0.1623 -0.2090 -0.2327
10129TIP3    H151802   2.887   2.644   0.390 -0.5633  0.8676 -0.6729
10129TIP3    H251803   2.798   2.615   0.271  0.4827 -0.2323 -1.2118
10130TIP3   OH251804   1.137   0.897  16.216 -0.0807 -0.5758  0.1681
10130TIP3    H151805   1.185   0.823  16.178 -0.8902 -1.4356  0.7721
10130TIP3    H251806   1.124   0.957  16.143  0.9677 -0.8221 -0.2398
10131TIP3   OH251807   2.937   2.708  11.141  0.0213 -0.3177 -0.2088
10131TIP3    H151808   2.920   2.793  11.181  1.1933 -0.3078  0.3173
10131TIP3    H251809   2.920   2.722  11.048 -0.3415  0.3394 -0.0531
10132TIP3   OH251810   6.462   0.259  12.721 -0.3256 -0.3879 -0.2224
10132TIP3    H151811   6.367   0.245  12.718 -0.2896 -0.5479 -0.8427
10132TIP3    H251812   6.478   0.326  12.654  0.1969 -1.6283 -1.3978
10133TIP3   OH251813   6.462   4.504  16.154 -1.1537 -0.0217  0.0124
10133TIP3    H151814   6.551   4.473  16.174 -0.7844  1.2826  0.4811
10133TIP3    H251815   6.443   4.465  16.068 -0.6294 -1.3158  0.4580
10134TIP3   OH251816   1.892   0.361   5.844 -0.4378 -0.1627  0.6201
10134TIP3    H151817   1.926   0.271   5.841  1.2581  0.4544 -0.1128
10134TIP3    H251818   1.966   0.413   5.876 -0.8717  1.1796 -0.4667
10135TIP3   OH251819   6.618   0.757   5.618  0.0235  0.4074  0.2299
10135TIP3    H151820   6.625   0.685   5.556  0.7441  0.1654  0.5814
10135TIP3    H251821   6.709   0.787   5.630 -0.1269  0.5747  1.0126
10136TIP3   OH251822   2.534   5.659  17.238  0.0504  0.1992  0.1365
10136TIP3    H151823   2.471   5.588  17.244 -0.7717  0.7916 -1.1127
10136TIP3    H251824   2.481   5.739  17.237  0.8291  0.7235 -0.5338
10137TIP3   OH251825   1.550   4.238   3.272 -0.4216  0.0662  0.4598
10137TIP3    H151826   1.626   4.279   3.313 -0.7516  1.3771 -0.1946
10137TIP3    H251827   1.484   4.235   3.341 -0.3126  0.4317  0.5801
10138TIP3   OH251828   4.244   3.351  13.122 -0.0695  0.6226 -0.0488
10138TIP3    H151829   4.151   3.369  13.110  0.2593  1.7582 -1.0117
10138TIP3    H251830   4.286   3.437  13.120  0.9977  0.1392  0.5332
10139TIP3   OH251831   4.386   3.098  11.193 -0.2927  0.5541  0.3626
10139TIP3    H151832   4.319   3.054  11.141 -0.4564 -1.5654  2.2404
10139TIP3    H251833   4.337   3.160  11.247 -0.2344  1.9577 -1.1160
10140TIP3   OH251834   0.898   3.002   5.288 -0.0066 -0.2649  0.0014
10140TIP3    H151835   0.961   2.983   5.218  0.4251 -1.9034  0.7680
10140TIP3    H251836   0.920   3.090   5.316  1.7819 -0.6681  0.0218
10141TIP3   OH251837   5.404   3.651   4.700  0.0506 -0.1843 -0.3365
10141TIP3    H151838   5.486   3.683   4.663  2.0903 -1.6981  2.4505
10141TIP3    H251839   5.398   3.561   4.668  0.3237 -0.5650  0.6520
10142TIP3   OH251840   3.899   0.081  12.185 -0.0832  0.3754 -0.1388
10142TIP3    H151841   3.826   0.139  12.207  0.2895  0.8292 -0.0639
10142TIP3    H251842   3.916   0.032  12.266  0.0674  0.6921  0.0265
10143TIP3   OH251843   1.404   4.690  13.152 -0.2411 -0.0401  0.1996
10143TIP3    H151844   1.414   4.605  13.194  0.7109  0.9547  2.0976
10143TIP3    H251845   1.480   4.698  13.095 -1.8018 -1.6168 -2.2821
10144TIP3   OH251846   5.767   3.682  14.765 -0.3072 -0.6256 -0.0532
10144TIP3    H151847   5.745   3.615  14.701 -0.5206 -1.0555  0.4699
10144TIP3    H251848   5.778   3.762  14.713 -0.0433 -1.0620 -0.6731
10145TIP3   OH251849   2.751   1.912  13.872  0.6884 -0.3345  0.0272
10145TIP3    H151850   2.817   1.969  13.833  0.8571 -1.0137 -0.7064
10145TIP3    H251851   2.802   1.846  13.920  0.5040 -0.0885  0.5731
10146TIP3   OH251852   5.000   6.522  11.928  0.0658 -0.2433  0.2730
10146TIP3    H151853   4.944   6.445  11.927  0.7349 -0.7545  0.9824
10146TIP3    H251854   5.047   6.519  11.845 -0.7031  0.0128 -0.1827
10147TIP3   OH251855   3.553   1.582  10.702  0.3838  0.1819  0.6227
10147TIP3    H151856   3.515   1.668  10.685 -2.6767 -0.8472  1.5779
10147TIP3    H251857   3.524   1.560  10.791  0.8755 -1.9329  0.3175
10148TIP3   OH251858   4.011   4.393   6.957 -0.5558 -0.1835  1.2867
10148TIP3    H151859   4.061   4.472   6.975  0.7374 -0.9285  1.1413
10148TIP3    H251860   3.921   4.415   6.980  0.0210  0.8333  2.7078
10149TIP3   OH251861   2.585   6.033  10.939 -0.4833  0.0967 -0.0149
10149TIP3    H151862   2.531   5.954  10.933  0.6070 -0.6724 -0.0169
10149TIP3    H251863   2.560   6.085  10.863  0.4966 -1.3818 -1.4209
10150TIP3   OH251864   3.761   6.459  14.840  0.6000  0.0111  0.0991
10150TIP3    H151865   3.795   6.392  14.899 -2.5290  1.4151  3.9776
10150TIP3    H251866   3.802   6.540  14.870  0.5306  0.5310 -1.1474
10151TIP3   OH251867   2.766   2.737   2.848 -0.5932  0.0278  0.0454
10151TIP3    H151868   2.822   2.663   2.871  0.6236  0.3004 -1.8238
10151TIP3    H251869   2.718   2.757   2.928  1.5899 -0.5661  1.5874
10152TIP3   OH251870   0.231   4.715  17.389  0.2052  0.0909  0.2646
10152TIP3    H151871   0.182   4.698  17.469  0.5460 -0.3746  0.3835
10152TIP3    H251872   0.187   4.663  17.322 -1.4660  2.2234 -0.3778
10153TIP3   OH251873   4.426   4.201  17.076 -0.4982  0.1706  0.1775
10153TIP3    H151874   4.333   4.221  17.085 -0.5676  0.5783 -1.1697
10153TIP3    H251875   4.432   4.107  17.094 -1.6887 -0.5524 -2.5476
10154TIP3   OH251876   1.978   0.340  13.528  0.2817  0.3020  0.3747
10154TIP3    H151877   2.042   0.411  13.527  1.6686 -0.8995  0.8590
10154TIP3    H251878   1.916   0.366  13.596 -0.1531  1.7930 -0.5418
10155TIP3   OH251879   5.957   2.593  13.228 -0.0248  0.4503 -0.2382
10155TIP3    H151880   5.914   2.549  13.302 -1.1822  1.7571 -0.0929
10155TIP3    H251881   5.899   2.577  13.153 -0.1594  1.2106 -0.3084
10156TIP3   OH251882   4.447   3.270   4.113  0.1711 -0.6084  0.5666
10156TIP3    H151883   4.412   3.269   4.024 -0.9538  0.5200  0.9682
10156TIP3    H251884   4.526   3.216   4.108 -1.3492 -2.9146 -0.4663
10157TIP3   OH251885   4.005   3.143   2.255 -0.7908 -0.2552 -0.6876
10157TIP3    H151886   4.066   3.069   2.265 -1.3054 -0.6838 -0.6558
10157TIP3    H251887   4.061   3.218   2.234  0.0688  0.0466  2.2957
10158TIP3   OH251888   0.141   5.245  16.169 -0.2863 -0.1770  0.1219
10158TIP3    H151889   0.185   5.324  16.137  1.0613 -1.1078 -0.4106
10158TIP3    H251890   0.141   5.254  16.264 -0.4640  0.6224  0.0557
10159TIP3   OH251891   1.043   2.383  11.101  0.1669  0.4678 -0.1730
10159TIP3    H151892   1.024   2.299  11.059 -0.4848 -0.1133  1.2537
10159TIP3    H251893   1.029   2.448  11.032 -0.3834 -0.5025 -0.9918
10160TIP3   OH251894   2.733   2.939   0.014  0.5594  0.1717  0.3527
10160TIP3    H151895   2.772   3.020   0.046  0.3941  0.1260  0.6667
10160TIP3    H251896   2.649   2.932   0.059 -1.3362  1.8594 -2.5723
10161TIP3   OH251897   5.625   4.689  11.624  0.2737  0.0459 -0.4180
10161TIP3    H151898   5.695   4.745  11.590  0.5704 -0.9397 -1.5305
10161TIP3    H251899   5.671   4.614  11.662 -0.1522 -0.2756 -0.5296
10162TIP3   OH251900   1.076   5.264  12.326  0.3577 -0.1992 -0.1363
10162TIP3    H151901   1.163   5.225  12.312  0.5392  0.2253 -0.2025
10162TIP3    H251902   1.091   5.331  12.393  0.2276  0.3908 -0.6880
10163TIP3   OH251903   6.732   3.553   4.124  0.4031 -0.2413 -0.3171
10163TIP3    H151904   6.704   3.644   4.131  0.6129  0.0925 -2.7567
10163TIP3    H251905   6.650   3.504   4.112  0.2439 -0.4823  1.5805
10164TIP3   OH251906   6.053   0.458  15.373  0.0925 -0.0595 -0.1554
10164TIP3    H151907   6.072   0.502  15.290 -0.7857 -2.6255 -1.8756
10164TIP3    H251908   5.960   0.434  15.366  0.0820 -0.6033  1.4441
10165TIP3   OH251909   4.337   2.894  15.621  0.4981  0.5394  0.3559
10165TIP3    H151910   4.242   2.891  15.618  0.5239  0.2849 -1.4671
10165TIP3    H251911   4.364   2.804  15.639  0.4245  0.8950  2.6118
10166TIP3   OH251912   0.296   5.462  16.891  0.0551  0.5116  0.0060
10166TIP3    H151913   0.298   5.378  16.845 -0.7995  0.0939  0.6977
10166TIP3    H251914   0.306   5.439  16.983  0.8982  1.2673  0.1129
10167TIP3   OH251915   5.517   4.073   3.876  0.0619 -0.0966 -0.3657
10167TIP3    H151916   5.504   4.162   3.909  0.1730 -0.0475 -0.4529
10167TIP3    H251917   5.571   4.084   3.798 -0.2011 -0.2112 -0.5674
10168TIP3   OH251918   4.762   5.788  12.175 -0.0932  0.2710 -0.1303
10168TIP3    H151919   4.746   5.719  12.111  1.2570 -0.5983  0.4256
10168TIP3    H251920   4.857   5.789  12.188 -0.3536 -0.2885  2.5712
10169TIP3   OH251921   6.511   3.701   0.102  0.4112  0.2539  0.4381
10169TIP3    H151922   6.460   3.629   0.066  0.7677  0.7156 -1.0579
10169TIP3    H251923   6.449   3.752   0.154  0.1480 -1.0851  1.4807
10170TIP3   OH251924   2.659   4.926   2.997 -0.1637 -0.0888  0.2526
10170TIP3    H151925   2.612   5.001   2.962  1.5573  2.4647  2.9682
10170TIP3    H251926   2.737   4.919   2.942 -0.5779 -0.2590 -0.3251
10171TIP3   OH251927   4.703   3.101  15.927 -0.4247  0.7168  0.0017
10171TIP3    H151928   4.659   3.136  16.004 -2.1899  0.1040 -0.6754
10171TIP3    H251929   4.632   3.079  15.866  0.8872  0.8188 -1.6471
10172TIP3   OH251930   1.371   1.123   2.041  0.2636  0.1746 -0.2892
10172TIP3    H151931   1.298   1.073   2.077 -0.3497 -1.0031 -2.8825
10172TIP3    H251932   1.416   1.061   1.983  1.8315  1.5815 -0.6634
10173TIP3   OH251933   2.905   4.368  13.865 -0.2004 -0.6169  0.3641
10173TIP3    H151934   2.989   4.362  13.819 -0.2113  1.1748  0.0425
10173TIP3    H251935   2.871   4.278  13.864  2.3982 -1.7454  1.8815
10174TIP3   OH251936   0.645   2.307  11.429  0.0610  0.2786  0.5721
10174TIP3    H151937   0.581   2.236  11.420 -1.3272  1.4971  0.3964
10174TIP3    H251938   0.707   2.292  11.358  0.3820 -1.2992  1.1312
10175TIP3   OH251939   1.594   0.486   4.163  0.0360  0.1133 -0.3696
10175TIP3    H151940   1.591   0.427   4.239  1.1787 -1.4833 -1.5107
10175TIP3    H251941   1.570   0.572   4.199 -1.2982 -0.9333  1.4302
10176TIP3   OH251942   0.962   4.413   4.915 -0.2871  0.2715 -0.1244
10176TIP3    H151943   0.927   4.423   5.003 -1.0275 -0.8331 -0.2807
10176TIP3    H251944   1.022   4.487   4.905  0.5944 -0.1439  1.6705
10177TIP3   OH251945   6.210   5.382   4.989  0.1138 -0.1424  0.2474
10177TIP3    H151946   6.165   5.412   4.910 -0.8057 -0.1786  0.7398
10177TIP3    H251947   6.303   5.397   4.971 -0.1843  1.2768 -0.2428
10178TIP3   OH251948   1.049   0.870  17.204 -0.4145  0.2647  0.6544
10178TIP3    H151949   1.077   0.956  17.235 -0.6361  0.6711 -0.2363
10178TIP3    H251950   1.055   0.814  17.281 -1.7122  1.4125  1.6393
10179TIP3   OH251951   6.563   5.634  17.332 -0.3701 -0.0595 -0.0432
10179TIP3    H151952   6.648   5.617  17.291 -0.5604 -1.7074  0.1475
10179TIP3    H251953   6.529   5.711  17.287  1.0686  0.4242 -0.3625
10180TIP3   OH251954   6.304   3.275  13.910  0.1606 -0.6229  0.0021
10180TIP3    H151955   6.343   3.340  13.969  0.6432  0.1516 -1.1354
10180TIP3    H251956   6.278   3.204  13.967  0.8509 -0.0043  1.1275
10181TIP3   OH251957   4.802   5.856   2.822 -0.6876  0.6706 -0.0571
10181TIP3    H151958   4.806   5.775   2.872 -0.3742  0.4377 -0.4541
10181TIP3    H251959   4.745   5.913   2.874 -3.0020 -0.6398 -0.9774
10182TIP3   OH251960   2.792   0.680   2.201  0.6241  0.1446  0.1973
10182TIP3    H151961   2.767   0.589   2.184  1.5087 -0.0955  0.1302
10182TIP3    H251962   2.740   0.706   2.276 -0.0681 -0.2276 -0.1431
10183TIP3   OH251963   4.388   1.128  17.089  0.0752 -0.0981 -0.6204
10183TIP3    H151964   4.422   1.126  17.178 -0.6016  0.0367 -0.3588
10183TIP3    H251965   4.332   1.206  17.086 -2.2154 -1.6359 -0.3053
10184TIP3   OH251966   1.577   2.079  11.993 -0.2105  0.0752 -0.3751
10184TIP3    H151967   1.577   2.152  11.932 -0.3091 -1.5732 -2.4592
10184TIP3    H251968   1.669   2.068  12.018 -0.3053  1.4341  0.7106
10185TIP3   OH251969   2.977   1.150  13.840  0.1371 -0.6453 -0.0210
10185TIP3    H151970   3.025   1.215  13.891  2.1357 -2.3175  0.3348
10185TIP3    H251971   3.020   1.150  13.755 -1.0141 -0.2580 -0.6181
10186TIP3   OH251972   5.629   2.170   5.440  0.0938  0.0533 -0.0947
10186TIP3    H151973   5.540   2.183   5.473 -0.4284 -0.9761 -1.0377
10186TIP3    H251974   5.672   2.120   5.510 -0.5253 -0.7201 -0.2417
10187TIP3   OH251975   1.253   3.739   0.677 -0.1583 -0.6361 -0.3252
10187TIP3    H151976   1.166   3.700   0.678 -0.0618 -0.9688  2.1109
10187TIP3    H251977   1.237   3.834   0.684 -0.3484 -0.6660 -0.3559
10188TIP3   OH251978   5.953   2.030   2.952 -0.3127  0.6861 -0.1792
10188TIP3    H151979   6.042   2.004   2.973 -0.7435 -0.9075 -0.1913
10188TIP3    H251980   5.952   2.125   2.965  0.7251  0.4473  2.3556
10189TIP3   OH251981   3.808   2.366   0.256 -0.4369  0.1249 -0.1686
10189TIP3    H151982   3.735   2.327   0.305  0.2844  0.8579  1.5681
10189TIP3    H251983   3.771   2.445   0.217 -1.1453 -0.7175 -1.2859
10190TIP3   OH251984   6.536   4.862   1.355 -0.3400 -0.2208 -0.6536
10190TIP3    H151985   6.480   4.784   1.353 -1.3834  0.4499  0.4428
10190TIP3    H251986   6.504   4.917   1.284 -1.2077  0.2286  0.0679
10191TIP3   OH251987   5.165   2.294   4.745  0.5532 -0.4636  1.0330
10191TIP3    H151988   5.252   2.324   4.770  0.2959  0.6235  0.6924
10191TIP3    H251989   5.112   2.375   4.740  0.3821 -0.6520 -2.1310
10192TIP3   OH251990   0.172   0.902   3.202 -0.1360  0.0740 -0.3585
10192TIP3    H151991   0.084   0.939   3.203 -0.0193  0.3513  0.3357
10192TIP3    H251992   0.217   0.948   3.131 -0.8381 -0.7737 -1.3803
10193TIP3   OH251993   4.180   1.136   2.158  0.1325  0.2095 -0.4254
10193TIP3    H151994   4.262   1.116   2.112  1.8620  2.0926  1.6025
10193TIP3    H251995   4.150   1.218   2.119  1.7943  2.0050  1.8261
10194TIP3   OH251996   4.817   0.829  15.396 -0.1265  0.0223 -0.0150
10194TIP3    H151997   4.873   0.754  15.418 -0.7009 -0.4171 -0.0258
10194TIP3    H251998   4.815   0.829  15.300  1.8098  1.5161 -0.1302
10195TIP3   OH251999   2.137   1.891   1.981  0.6671  0.0264  0.4341
10195TIP3    H152000   2.223   1.925   1.956  0.7801  0.4802  1.3779
10195TIP3    H252001   2.084   1.969   1.996 -0.2488 -0.2461 -1.1855
10196TIP3   OH252002   5.954   6.621   4.609 -0.5258 -0.3103  0.0174
10196TIP3    H152003   5.971   6.708   4.646 -0.9917  0.2169 -0.9402
10196TIP3    H252004   5.924   6.640   4.520 -1.1449 -1.4365 -0.0240
10197TIP3   OH252005   1.815   0.165  13.985 -0.7854  0.6172 -0.8989
10197TIP3    H152006   1.781   0.132  13.902 -1.0453 -1.5562  0.0020
10197TIP3    H252007   1.763   0.121  14.052  0.1627  1.4447  0.4359
10198TIP3   OH252008   2.609   1.847   1.569  0.7043  0.1468 -0.0265
10198TIP3    H152009   2.533   1.883   1.522 -0.2624 -0.4624  1.0207
10198TIP3    H252010   2.648   1.785   1.507  1.2272  1.5008 -1.1098
10199TIP3   OH252011   1.416   1.543   4.950  0.4207  0.6896  0.3914
10199TIP3    H152012   1.338   1.489   4.934 -0.2338  1.1242  1.8981
10199TIP3    H252013   1.408   1.616   4.888  2.2209 -1.6667 -2.9430
10200TIP3   OH252014   3.837   0.684  13.415 -0.1163 -0.3511 -0.6784
10200TIP3    H152015   3.867   0.769  13.445  0.5170 -0.2509 -1.5545
10200TIP3    H252016   3.913   0.627  13.425  0.3405 -0.1610 -2.6531
10201TIP3   OH252017   0.424   6.343   4.699  0.3731  0.0391  0.3189
10201TIP3    H152018   0.388   6.276   4.757  0.3460 -0.1594  0.0705
10201TIP3    H252019   0.412   6.309   4.611  1.8794 -0.4099  0.2554
10202TIP3   OH252020   5.883   3.600  11.518  0.4138  0.6819  1.0827
10202TIP3    H152021   5.972   3.631  11.506  0.4012  1.0309  1.8494
10202TIP3    H252022   5.830   3.654  11.459  0.6415  0.7889  0.9753
10203TIP3   OH252023   1.950   6.525  13.974 -0.1589 -0.0264  0.2531
10203TIP3    H152024   1.900   6.462  13.922 -0.8274  0.0943  0.7376
10203TIP3    H252025   2.000   6.471  14.036  0.1577 -0.1365 -0.0980
10204TIP3   OH252026   0.104   0.793   5.669  0.1010  0.1330  0.3497
10204TIP3    H152027   0.168   0.864   5.666 -0.8367  0.9883  0.0420
10204TIP3    H252028   0.105   0.763   5.760 -1.0675  2.0567  1.0625
10205TIP3   OH252029   2.903   5.207  12.196 -0.1140  0.2942  0.1042
10205TIP3    H152030   2.937   5.275  12.254 -0.3608  0.5014  0.0086
10205TIP3    H252031   2.830   5.169  12.245 -0.7215  0.8870 -0.3120
10206TIP3   OH252032   2.770   0.145  13.998  0.0067  0.0184  0.1134
10206TIP3    H152033   2.707   0.175  13.932 -0.9748 -2.0724  0.0067
10206TIP3    H252034   2.716   0.109  14.068  1.0654 -0.3959  0.7416
10207TIP3   OH252035   4.903   5.952  13.472 -0.5017 -0.4671 -0.2031
10207TIP3    H152036   4.980   6.005  13.493  0.0904 -1.7157  0.9858
10207TIP3    H252037   4.924   5.912  13.388 -0.2985 -0.0074 -0.3756
10208TIP3   OH252038   4.914   2.787  12.369 -0.3500 -0.1118 -0.1729
10208TIP3    H152039   4.954   2.780  12.283 -1.7787  0.0393 -0.8633
10208TIP3    H252040   4.834   2.837  12.355 -0.4504  0.1999  1.2991
10209TIP3   OH252041   6.031   3.978   3.487  0.1963  0.1523  0.1505
10209TIP3    H152042   6.003   3.981   3.396 -1.6579 -2.0026  0.5663
10209TIP3    H252043   6.040   4.070   3.512  1.1940  0.7913 -2.2852
10210TIP3   OH252044   0.286   2.535   3.055  0.3435  0.5442 -1.2350
10210TIP3    H152045   0.203   2.514   3.012 -0.5827 -0.3573  0.8478
10210TIP3    H252046   0.339   2.456   3.045  0.1756  0.3806 -0.8490
10211TIP3   OH252047   4.126   6.514  16.642  0.3655  0.5544  0.1155
10211TIP3    H152048   4.068   6.554  16.578  0.8271  0.5254 -0.3273
10211TIP3    H252049   4.074   6.508  16.722 -0.0209  1.1334 -0.0903
10212TIP3   OH252050   5.698   4.547   3.765  0.5819 -0.5920  0.0064
10212TIP3    H152051   5.678   4.545   3.672  2.9745  0.0534 -0.6041
10212TIP3    H252052   5.793   4.558   3.769  0.3100  2.5238  2.4555
10213TIP3   OH252053   0.094   6.597  13.253 -0.0762 -0.2279  0.4349
10213TIP3    H152054   0.077   6.542  13.329 -0.6114  0.5922  0.9255
10213TIP3    H252055   0.026   6.664  13.257 -0.2673 -0.3206 -0.9167
10214TIP3   OH252056   4.615   5.417   5.076 -0.4057 -0.3486  0.1234
10214TIP3    H152057   4.589   5.348   5.136 -1.6903 -1.6431 -1.8121
10214TIP3    H252058   4.655   5.371   5.002  0.0400  1.0968 -0.5746
10215TIP3   OH252059   4.008   3.172   3.738 -0.1817 -0.2841  0.7792
10215TIP3    H152060   3.995   3.244   3.800 -0.4850  0.3630 -0.0101
10215TIP3    H252061   4.089   3.193   3.693 -0.7483  0.0756 -0.1078
10216TIP3   OH252062   4.390   1.015   3.092  0.0922  0.2023 -0.0177
10216TIP3    H152063   4.400   1.110   3.096 -1.7167  0.4270 -0.1418
10216TIP3    H252064   4.304   0.998   3.131 -0.1034 -1.2719 -1.0098
10217TIP3   OH252065   0.786   1.396   1.266  0.4138  0.5045 -0.1987
10217TIP3    H152066   0.732   1.342   1.209  0.6028 -0.1009  0.1841
10217TIP3    H252067   0.735   1.477   1.278 -0.3188  0.0290 -0.0112
10218TIP3   OH252068   3.659   6.540  13.208 -0.6516 -0.1989 -0.1380
10218TIP3    H152069   3.679   6.479  13.278 -0.1755  1.4393  1.2074
10218TIP3    H252070   3.676   6.491  13.128  0.9289 -1.4169  0.9001
10219TIP3   OH252071   3.144   1.616   3.592  0.5279 -0.0569  0.1026
10219TIP3    H152072   3.100   1.610   3.676  1.4315  0.7695  0.6565
10219TIP3    H252073   3.087   1.570   3.531  0.1811 -1.2417  1.2869
10220TIP3   OH252074   1.325   3.457   3.865  0.3699  0.0932 -0.3509
10220TIP3    H152075   1.393   3.491   3.807 -0.7118  0.5245 -1.4241
10220TIP3    H252076   1.270   3.403   3.808 -1.0650  1.0087  0.0922
10221TIP3   OH252077   2.132   0.206   3.608 -0.6487  0.3511 -0.4141
10221TIP3    H152078   2.204   0.171   3.555 -0.8079 -0.9310  0.1643
10221TIP3    H252079   2.174   0.260   3.675 -0.0611 -1.4811  0.7641
10222TIP3   OH252080   2.666   0.861   6.140  0.3155 -0.0473 -0.1702
10222TIP3    H152081   2.690   0.869   6.233 -1.3746  0.4556  0.2468
10222TIP3    H252082   2.594   0.799   6.139 -0.0883  0.4255 -1.0868
10223TIP3   OH252083   3.188   6.385   4.677  0.1793  0.4710  0.0572
10223TIP3    H152084   3.200   6.415   4.587 -1.0369  1.5790  0.2327
10223TIP3    H252085   3.213   6.460   4.731  0.3371  0.0118  0.6328
10224TIP3   OH252086   2.151   4.101   0.002 -0.4573  0.0205  0.3037
10224TIP3    H152087   2.197   4.115   0.085  0.1737  0.2088 -0.0750
10224TIP3    H252088   2.189   4.020  -0.033  0.2969  0.7017 -0.4837
10225TIP3   OH252089   2.542   4.754   0.114 -0.1002  0.6779  0.0376
10225TIP3    H152090   2.568   4.732   0.204  0.8288  0.6640 -0.2162
10225TIP3    H252091   2.549   4.849   0.110  0.1107  0.6582 -0.0884
10226TIP3   OH252092   4.263   2.237  10.811 -0.3791 -0.3127  0.2951
10226TIP3    H152093   4.246   2.327  10.836 -0.0518 -0.1885  0.0782
10226TIP3    H252094   4.209   2.223  10.733 -2.7942 -1.2496  2.0194
10227TIP3   OH252095   1.234   3.096  17.000 -0.1573  0.2878  0.2505
10227TIP3    H152096   1.253   3.187  16.976  0.6389  0.1746  0.4000
10227TIP3    H252097   1.307   3.047  16.961 -1.2223 -0.4403 -0.8774
10228TIP3   OH252098   2.836   1.052   0.490 -0.6938 -0.1875  0.4713
10228TIP3    H152099   2.752   1.094   0.474 -0.3383  0.3813  0.0860
10228TIP3    H252100   2.856   1.006   0.409 -0.8856 -0.7762  0.7503
10229TIP3   OH252101   5.785   2.096  16.323 -0.4806  0.4869 -0.1473
10229TIP3    H152102   5.723   2.123  16.254 -1.3150  3.7906  1.6968
10229TIP3    H252103   5.871   2.113  16.285 -0.6715 -1.5852 -1.7398
10230TIP3   OH252104   4.477   5.344   2.304  0.1299 -0.1206 -0.0345
10230TIP3    H152105   4.544   5.372   2.242 -0.0895  1.5777  0.4426
10230TIP3    H252106   4.395   5.374   2.267 -0.2473 -0.9775  0.0645
10231TIP3   OH252107   0.975   4.553  11.126  0.3253 -0.1222  0.0132
10231TIP3    H152108   0.920   4.584  11.054  0.2229  0.1178  0.1926
10231TIP3    H252109   1.061   4.592  11.108  0.5144 -0.7226 -0.4164
10232TIP3   OH252110   2.529   3.391   0.420 -0.1396  0.2488  0.4214
10232TIP3    H152111   2.555   3.299   0.408  0.1016  0.0629  2.0597
10232TIP3    H252112   2.586   3.440   0.361 -0.3578 -0.6537 -0.5766
10233TIP3   OH252113   6.484   4.572  11.587 -0.1164  0.5073  0.3983
10233TIP3    H152114   6.569   4.616  11.598  0.7559 -1.0010 -0.0002
10233TIP3    H252115   6.503   4.480  11.605 -1.7233  0.1627  0.4322
10234TIP3   OH252116   1.220   2.676   4.827 -0.7705 -0.1775 -0.5207
10234TIP3    H152117   1.180   2.763   4.824 -0.1187  0.1369 -0.2064
10234TIP3    H252118   1.231   2.652   4.735 -2.0214 -0.4350 -0.6194
10235TIP3   OH252119   4.704   6.282   5.150 -0.3618 -0.5446  0.3455
10235TIP3    H152120   4.788   6.281   5.104 -0.6656 -2.1632 -0.2493
10235TIP3    H252121   4.715   6.220   5.222 -0.8311 -0.2166  0.7090
10236TIP3   OH252122   2.448   0.318   5.030 -0.5013  0.0345  0.4264
10236TIP3    H152123   2.403   0.357   5.105  1.1620  1.8935  0.5485
10236TIP3    H252124   2.403   0.353   4.954 -0.1730  0.7412  0.5526
10237TIP3   OH252125   6.736   3.400  11.425 -0.2070 -0.6362  0.5342
10237TIP3    H152126   6.650   3.396  11.383  1.0641  0.8840 -2.5679
10237TIP3    H252127   6.778   3.318  11.401 -0.6406 -1.2603  1.8220
10238TIP3   OH252128   6.457   1.727   6.039  0.3588 -0.2144 -0.0184
10238TIP3    H152129   6.524   1.692   6.099  0.5044  1.9605  1.2085
10238TIP3    H252130   6.486   1.700   5.952 -0.1648 -4.0036  0.7950
10239TIP3   OH252131   4.646   2.091   0.394 -0.7970  0.5156 -0.2773
10239TIP3    H152132   4.636   2.186   0.394 -0.7565  0.5724 -2.6516
10239TIP3    H252133   4.674   2.069   0.306 -0.5802 -1.7042  0.2680
10240TIP3   OH252134   4.105   2.536   5.941  0.1504  0.0562  0.3815
10240TIP3    H152135   4.150   2.452   5.951 -1.4900 -0.8982  0.1153
10240TIP3    H252136   4.022   2.525   5.988 -0.2610  1.3907  0.0112
10241TIP3   OH252137   0.398   1.669   4.127 -0.4864  0.2328 -0.7322
10241TIP3    H152138   0.309   1.640   4.108 -0.0635 -0.3990 -1.8089
10241TIP3    H252139   0.406   1.659   4.222 -0.8553 -1.7906 -0.8659
10242TIP3   OH252140   1.400   6.366  16.084  0.0775  0.0305  0.5292
10242TIP3    H152141   1.450   6.430  16.135  0.2664 -0.4544  0.9674
10242TIP3    H252142   1.464   6.330  16.022 -0.2963  1.0434 -0.4645
10243TIP3   OH252143   0.934   0.022   2.214 -0.3537 -0.1565  0.7132
10243TIP3    H152144   0.859   0.076   2.240 -1.7470 -1.4429 -0.4153
10243TIP3    H252145   0.944  -0.041   2.286  0.3932  0.7207  1.3924
10244TIP3   OH252146   0.597   4.923   2.837 -1.2707 -0.0062 -0.1633
10244TIP3    H152147   0.549   4.973   2.903  0.2718  0.6850  0.4684
10244TIP3    H252148   0.620   4.987   2.770 -1.6085 -0.4335 -0.7082
10245TIP3   OH252149   2.474   5.689   4.459  0.3999 -0.0699 -0.1775
10245TIP3    H152150   2.547   5.660   4.514  0.8015  2.9646  1.1115
10245TIP3    H252151   2.505   5.677   4.369  3.1778  2.2911  0.3093
10246TIP3   OH252152   2.594   6.000  15.564 -0.0254  0.0897  0.0325
10246TIP3    H152153   2.680   5.966  15.588 -0.8851 -0.6823  2.2943
10246TIP3    H252154   2.589   5.987  15.469  0.8508 -3.5233  0.3442
10247TIP3   OH252155   4.665   2.615   4.570 -0.5701 -0.1765 -0.3137
10247TIP3    H152156   4.695   2.665   4.646  2.3631 -0.8959 -0.8661
10247TIP3    H252157   4.573   2.640   4.559 -0.0660  2.7746  1.2306
10248TIP3   OH252158   2.333   2.409  14.415  0.4284 -0.1075 -0.1083
10248TIP3    H152159   2.249   2.452  14.398  0.1408 -0.0808  1.2574
10248TIP3    H252160   2.312   2.317  14.428  0.8634 -0.4394 -1.5660
10249TIP3   OH252161   2.738   5.028  12.993  0.1339 -0.3779 -0.3891
10249TIP3    H152162   2.687   5.007  12.915 -0.0643 -0.6577 -0.1851
10249TIP3    H252163   2.681   5.084  13.045  1.3140  2.2432 -1.7674
10250TIP3   OH252164   1.106   1.755   4.444 -0.3621  0.6125 -0.0877
10250TIP3    H152165   1.019   1.719   4.459  0.1512 -0.3735  0.6641
10250TIP3    H252166   1.162   1.678   4.432  0.8691  1.1043  2.0329
10251TIP3   OH252167   4.436   2.967  16.553  0.1620 -0.1198 -0.3569
10251TIP3    H152168   4.416   3.060  16.547  2.8098  0.6155  0.6260
10251TIP3    H252169   4.361   2.929  16.599 -1.5035  1.2744 -1.7975
10252TIP3   OH252170   3.024   6.731  14.170 -0.0097  0.0999  0.7515
10252TIP3    H152171   2.990   6.707  14.084  1.3135 -0.7224  0.4386
10252TIP3    H252172   3.054   6.649  14.208 -1.6563  0.2389  2.5428
10253TIP3   OH252173   2.612   2.588  11.713 -0.4873  0.0624 -0.1207
10253TIP3    H152174   2.664   2.668  11.710  0.3195 -0.4672 -0.5190
10253TIP3    H252175   2.675   2.517  11.697 -1.3483 -0.5825 -0.7496
10254TIP3   OH252176   0.635   1.582  11.621  0.3785  0.4671 -0.5917
10254TIP3    H152177   0.558   1.547  11.576 -0.9522  1.8626  0.5088
10254TIP3    H252178   0.697   1.509  11.622  0.5586  0.3578 -4.7159
10255TIP3   OH252179   3.527   2.016   4.432 -0.0615 -0.8845  0.0237
10255TIP3    H152180   3.453   2.029   4.491  0.8200 -2.4926  1.5944
10255TIP3    H252181   3.488   2.012   4.345 -1.8016 -1.4850  0.7807
10256TIP3   OH252182   5.337   2.563   5.601 -0.1496  0.2483  0.0725
10256TIP3    H152183   5.385   2.544   5.681 -0.1495  1.1556  0.3001
10256TIP3    H252184   5.401   2.603   5.542 -0.3734  0.4870 -0.0142
10257TIP3   OH252185   5.608   3.393   4.859  0.0735 -0.3535  0.1633
10257TIP3    H152186   5.624   3.409   4.952 -0.4433  0.5985  0.0997
10257TIP3    H252187   5.670   3.450   4.814  0.0356 -0.5026 -0.0789
10258TIP3   OH252188   3.562   5.022  15.887  0.2763  0.0764  0.1508
10258TIP3    H152189   3.518   4.940  15.912  0.9366 -0.7688 -1.3654
10258TIP3    H252190   3.654   5.008  15.911  0.2174  0.7763  0.8053
10259TIP3   OH252191   4.009   6.477   0.683 -0.3219  0.5586 -0.0081
10259TIP3    H152192   4.064   6.398   0.677  1.6181  1.8126  0.3971
10259TIP3    H252193   3.994   6.488   0.777 -0.7053  0.5865 -0.0745
10260TIP3   OH252194   5.732   0.867   3.577  0.3866  0.1057  0.6235
10260TIP3    H152195   5.764   0.782   3.606  0.0991 -0.1984  0.0640
10260TIP3    H252196   5.802   0.928   3.599  1.8592 -0.7015 -1.5040
10261TIP3   OH252197   4.235   5.534   6.658  0.4769  0.2944  0.1351
10261TIP3    H152198   4.208   5.446   6.632  0.2143  0.4754 -0.2087
10261TIP3    H252199   4.302   5.520   6.724  0.3822 -0.1656  0.1353
10262TIP3   OH252200   1.501   4.485   0.143 -0.0740 -0.1846  0.2299
10262TIP3    H152201   1.458   4.561   0.104  1.3698  1.4001  1.5500
10262TIP3    H252202   1.431   4.440   0.191 -0.5908  1.4708  1.1015
10263TIP3   OH252203   4.651   5.207   2.113 -0.0151  1.1443 -0.1331
10263TIP3    H152204   4.573   5.194   2.059 -0.8953 -0.0812  1.3568
10263TIP3    H252205   4.704   5.129   2.097  0.0220  1.0879  0.2571
10264TIP3   OH252206   3.487   6.421  13.670  0.3282  0.4962  0.6861
10264TIP3    H152207   3.499   6.512  13.645 -0.9746  0.4949 -0.0607
10264TIP3    H252208   3.492   6.372  13.587 -0.3127  0.0523  0.9013
10265TIP3   OH252209   3.213   6.251   5.804 -1.0132 -0.1138 -0.0510
10265TIP3    H152210   3.125   6.290   5.804 -0.8946  0.1707  0.6290
10265TIP3    H252211   3.226   6.223   5.895 -0.4502 -0.2705 -0.1790
10266TIP3   OH252212   3.544   1.248  10.682  0.2754  0.3732  0.2869
10266TIP3    H152213   3.502   1.321  10.636 -0.9008  0.9793  2.2161
10266TIP3    H252214   3.485   1.174  10.670  0.1951  0.4120  0.4405
10267TIP3   OH252215   6.373   0.554   3.655 -0.0687  0.1663  0.1157
10267TIP3    H152216   6.380   0.645   3.625 -0.2988  0.3872  0.7118
10267TIP3    H252217   6.369   0.561   3.750 -2.6185 -0.2807  0.1084
10268TIP3   OH252218   6.461   0.517  15.825 -0.2824  0.4609  0.1141
10268TIP3    H152219   6.451   0.582  15.895 -2.6773 -0.0868  0.3491
10268TIP3    H252220   6.500   0.441  15.868 -1.3087  0.2963  0.7832
10269TIP3   OH252221   6.684   5.599  16.962  0.1639  0.0871  0.0915
10269TIP3    H152222   6.643   5.681  16.937 -1.5673 -0.7117  0.1248
10269TIP3    H252223   6.776   5.620  16.973 -0.2753  2.0724  0.3548
10270TIP3   OH252224   1.112   1.145  17.272 -0.2641 -0.4310  0.5041
10270TIP3    H152225   1.161   1.215  17.228  1.3130 -0.2599  2.3853
10270TIP3    H252226   1.095   1.180  17.360 -0.6104 -1.9010  1.0459
10271TIP3   OH252227   0.268   6.148  12.424 -0.1658 -0.3761  0.3737
10271TIP3    H152228   0.345   6.140  12.481 -0.9367 -1.8195  1.2519
10271TIP3    H252229   0.302   6.189  12.344  1.5342 -1.0521  0.7130
10272TIP3   OH252230   0.328   4.207   2.714  0.2362  0.1532 -0.0984
10272TIP3    H152231   0.318   4.250   2.630  0.3134 -1.6680 -1.0997
10272TIP3    H252232   0.257   4.142   2.717 -0.0755  0.5218  1.4671
10273TIP3   OH252233   0.744   4.630  13.612  0.1048 -0.5019  0.0114
10273TIP3    H152234   0.713   4.540  13.620  1.3506 -1.0219 -0.6503
10273TIP3    H252235   0.822   4.623  13.557  0.0317  1.0311 -0.3248
10274TIP3   OH252236   0.294   3.059   1.441 -0.2137 -0.3195 -0.2360
10274TIP3    H152237   0.365   2.999   1.466 -0.7863  0.0722  2.6810
10274TIP3    H252238   0.325   3.099   1.359  1.2387 -2.8078 -1.0117
10275TIP3   OH252239   5.209   6.386   1.951  0.5116  0.4136  0.0251
10275TIP3    H152240   5.283   6.446   1.937 -0.5244  1.8844  0.5856
10275TIP3    H252241   5.170   6.376   1.865  0.1646  1.3033  0.0620
10276TIP3   OH252242   0.043   6.224   6.651 -0.0283  0.5987  0.2446
10276TIP3    H152243   0.030   6.215   6.556 -0.7785  1.0992  0.2931
10276TIP3    H252244   0.138   6.219   6.662  0.0571  0.3421 -0.5134
10277TIP3   OH252245   4.403   4.096  15.664  0.4495 -0.3362 -0.1238
10277TIP3    H152246   4.374   4.152  15.736  0.4089 -0.7135  0.1542
10277TIP3    H252247   4.323   4.054  15.633  0.4171  0.0782 -0.6071
10278TIP3   OH252248   1.312   1.031  15.216  0.0292 -0.0854 -0.1133
10278TIP3    H152249   1.307   1.068  15.305  1.6894  3.9375 -1.4685
10278TIP3    H252250   1.221   1.015  15.192 -0.5732  0.1919  1.7679
10279TIP3   OH252251   2.002   6.260   5.383 -0.0652  0.4157 -0.0067
10279TIP3    H152252   2.048   6.222   5.458 -1.1617  0.2584  0.6151
10279TIP3    H252253   1.964   6.185   5.338 -1.5232  0.6720  0.7368
10280TIP3   OH252254   2.084   1.626  14.929 -0.4063 -0.4580  0.1875
10280TIP3    H152255   2.100   1.589  15.016  1.9476 -0.3533 -0.1387
10280TIP3    H252256   2.164   1.673  14.908 -0.9602 -0.4042 -2.0256
10281TIP3   OH252257   3.963   5.779  14.814 -0.6104 -0.1624 -0.3086
10281TIP3    H152258   4.056   5.798  14.810 -0.8935  1.1872 -0.9404
10281TIP3    H252259   3.943   5.778  14.908  0.0688 -0.6771 -0.1659
10282TIP3   OH252260   3.467   2.570   1.378 -0.2193  0.4362  0.5984
10282TIP3    H152261   3.479   2.664   1.371 -1.0264  0.5596  0.7429
10282TIP3    H252262   3.443   2.556   1.470  0.5764  0.0007  0.7526
10283TIP3   OH252263   2.355   4.406  15.649 -0.5517  0.0053  0.3805
10283TIP3    H152264   2.262   4.430  15.648 -1.5180 -3.2665  0.0375
10283TIP3    H252265   2.365   4.350  15.726  0.6887 -1.1265 -0.5469
10284TIP3   OH252266   0.547   3.966  17.125  0.2578 -0.3277  0.7017
10284TIP3    H152267   0.534   3.927  17.212  3.1879 -1.8678  0.5838
10284TIP3    H252268   0.627   4.018  17.134  1.3191 -1.4907 -1.3078
10285TIP3   OH252269   4.787   6.333  11.087  0.5055 -1.0583 -0.2401
10285TIP3    H152270   4.770   6.252  11.136 -0.6043 -0.7689 -0.1182
10285TIP3    H252271   4.767   6.403  11.150 -1.1784 -0.6773 -1.1634
10286TIP3   OH252272   1.942   6.341  14.285  0.6086  0.9307  0.0420
10286TIP3    H152273   2.014   6.366  14.228  0.1369  0.2120 -0.9002
10286TIP3    H252274   1.868   6.327  14.226  0.6644 -2.0528  0.4956
10287TIP3   OH252275   2.870   3.486  11.431 -0.1732  0.4793 -0.4394
10287TIP3    H152276   2.953   3.533  11.431  0.0621  0.0678 -0.9693
10287TIP3    H252277   2.883   3.415  11.494 -1.7026  3.0924  3.2460
10288TIP3   OH252278   1.507   1.800  12.102 -0.5779  0.1679 -0.0880
10288TIP3    H152279   1.504   1.759  12.016  2.4288 -2.0356  0.6865
10288TIP3    H252280   1.534   1.891  12.083  2.8933 -0.9664 -1.5154
10289TIP3   OH252281   4.548   4.030   6.470 -0.2827 -0.8440 -0.9286
10289TIP3    H152282   4.590   4.110   6.501 -1.6394 -0.4823  0.0653
10289TIP3    H252283   4.619   3.977   6.435  1.1436 -0.6213  1.4592
10290TIP3   OH252284   3.307   1.034  12.843  0.4285  0.5370  0.2733
10290TIP3    H152285   3.262   1.074  12.918 -2.0068 -1.0395 -0.2600
10290TIP3    H252286   3.268   0.947  12.835  3.1078 -0.6568 -0.7430
10291TIP3   OH252287   5.911   6.276  11.886 -0.4363 -0.2664 -0.5872
10291TIP3    H152288   5.927   6.333  11.810 -1.7463 -0.2789 -0.8950
10291TIP3    H252289   5.942   6.190  11.858  1.0933  0.1663 -0.2999
10292TIP3   OH252290   1.489   3.169  12.420 -0.1853  0.6120 -0.1902
10292TIP3    H152291   1.454   3.188  12.333  0.1168 -1.3175 -0.7903
10292TIP3    H252292   1.580   3.143  12.405 -0.1598  0.1367  0.6862
10293TIP3   OH252293   4.471   2.534  16.073 -0.4162  0.2425 -0.5089
10293TIP3    H152294   4.562   2.526  16.045  0.6953  2.9720  1.8350
10293TIP3    H252295   4.448   2.447  16.105  1.0401 -0.7082 -1.9105
10294TIP3   OH252296   4.901   5.614   1.798  0.2392 -0.8081 -0.0402
10294TIP3    H152297   4.892   5.648   1.709  0.4704 -0.3464  0.1072
10294TIP3    H252298   4.949   5.532   1.788  1.4123 -0.1210 -0.2313
10295TIP3   OH252299   4.739   4.594  14.515  0.1442 -0.2257 -0.0762
10295TIP3    H152300   4.686   4.518  14.494  0.2379 -0.0134 -1.1382
10295TIP3    H252301   4.816   4.586  14.459  0.5553  0.2052  0.4186
10296TIP3   OH252302   1.731   4.018   3.548 -0.0814  0.1446 -0.0997
10296TIP3    H152303   1.638   3.996   3.543  0.1571 -1.3938  1.4144
10296TIP3    H252304   1.761   3.976   3.629  1.8861  0.8124 -0.4378
10297TIP3   OH252305   2.173   0.558   5.469 -0.0931 -0.0911 -0.4685
10297TIP3    H152306   2.219   0.619   5.526  0.2874  0.4498 -1.3333
10297TIP3    H252307   2.080   0.581   5.478  0.0678  0.7697 -0.9616
10298TIP3   OH252308   0.371   1.767  16.648  0.5278  0.6176  0.2824
10298TIP3    H152309   0.454   1.755  16.694  0.7862  1.8522  0.1620
10298TIP3    H252310   0.304   1.739  16.711  1.0537 -2.2794 -0.2739
10299TIP3   OH252311   4.648   2.104   2.663  0.0801  0.0878  0.1332
10299TIP3    H152312   4.673   2.179   2.717 -0.4276 -0.3551  1.0105
10299TIP3    H252313   4.726   2.049   2.660  0.9674  1.3335 -1.7899
10300TIP3   OH252314   2.703   5.948   4.849 -0.0890  0.0874  0.0153
10300TIP3    H152315   2.646   5.916   4.780  1.2872 -0.7986 -0.7662
10300TIP3    H252316   2.784   5.974   4.804  0.5586  0.2152  1.1927
10301TIP3   OH252317   2.253   4.298  11.407  0.1019 -0.1940  0.1530
10301TIP3    H152318   2.199   4.375  11.422 -0.1154 -0.3202  0.0138
10301TIP3    H252319   2.340   4.324  11.438  0.1615  0.2946 -0.4157
10302TIP3   OH252320   2.537   3.965   4.719  0.1635 -0.1037 -0.2178
10302TIP3    H152321   2.602   3.967   4.649  1.0579  2.0613  0.6057
10302TIP3    H252322   2.503   4.054   4.723 -2.5187 -1.0575 -0.2526
10303TIP3   OH252323   5.872   1.599   0.387  0.0443  0.9199  0.1910
10303TIP3    H152324   5.844   1.530   0.326  0.5198  0.3344  0.6277
10303TIP3    H252325   5.793   1.618   0.438 -0.2857  1.2227 -0.4146
10304TIP3   OH252326   3.318   3.208  13.844 -0.0309  0.2804  0.4849
10304TIP3    H152327   3.232   3.169  13.858  0.4032 -0.4154  1.2876
10304TIP3    H252328   3.379   3.149  13.889  0.8615  0.7792 -0.0452
10305TIP3   OH252329   4.518   1.707   3.318 -0.4507 -0.2944  0.1188
10305TIP3    H152330   4.456   1.649   3.274 -2.3284  1.8324 -0.1892
10305TIP3    H252331   4.527   1.670   3.406 -3.0684 -0.0656  0.5556
10306TIP3   OH252332   1.543   4.922  16.992  0.6876  0.0154 -0.3706
10306TIP3    H152333   1.536   4.830  17.015 -0.5221 -0.4447 -2.2925
10306TIP3    H252334   1.536   4.923  16.896  1.1866  2.0544 -0.4327
10307TIP3   OH252335   4.789   0.610   4.072 -0.2768 -0.0202  0.6471
10307TIP3    H152336   4.697   0.621   4.051 -0.3432  0.3026  1.1045
10307TIP3    H252337   4.835   0.665   4.008 -0.4746  0.9258  1.3090
10308TIP3   OH252338   6.537   0.076  12.099  0.2060 -0.3178 -0.1580
10308TIP3    H152339   6.448   0.066  12.134  0.2754 -0.4461 -0.0171
10308TIP3    H252340   6.571  -0.013  12.093  0.5157 -0.2332  0.2864
10309TIP3   OH252341   6.680   0.490   3.524  0.3375 -0.6370  0.3749
10309TIP3    H152342   6.612   0.440   3.569  0.3054 -0.0446  0.9952
10309TIP3    H252343   6.731   0.423   3.477  0.6268 -1.3349  1.6184
10310TIP3   OH252344   0.197   4.403   0.811 -0.7610  0.1670 -0.0800
10310TIP3    H152345   0.107   4.399   0.777 -1.6888  0.7181  2.1135
10310TIP3    H252346   0.214   4.315   0.844  0.4503 -0.6042 -2.5146
10311TIP3   OH252347   4.724   4.990   5.112  0.0731  0.2711 -0.2766
10311TIP3    H152348   4.738   4.899   5.135 -1.9275  0.3223  1.5318
10311TIP3    H252349   4.714   5.035   5.196  2.2924  2.4459 -1.0511
10312TIP3   OH252350   6.307   0.644   5.627 -0.3154  0.3021  0.2299
10312TIP3    H152351   6.359   0.563   5.628 -0.3017  0.1106 -2.9798
10312TIP3    H252352   6.228   0.623   5.676  0.4300 -1.0858  0.8898
10313TIP3   OH252353   3.659   6.355  15.416 -0.1139 -0.3064 -0.4386
10313TIP3    H152354   3.676   6.361  15.510  0.9758 -1.3608 -0.5393
10313TIP3    H252355   3.600   6.280  15.407 -1.6545  0.8392 -0.4799
10314TIP3   OH252356   4.461   5.518   6.392  0.2148  0.0049 -0.1111
10314TIP3    H152357   4.421   5.601   6.366  0.9191  0.0214 -1.2224
10314TIP3    H252358   4.523   5.498   6.322  1.5387 -0.4439  1.1217
10315TIP3   OH252359   4.478   6.760  12.412 -0.2624  0.5120 -0.1461
10315TIP3    H152360   4.545   6.710  12.459 -0.9098  0.9498  1.3041
10315TIP3    H252361   4.516   6.777  12.327  1.3772  0.5444  0.5618
10316TIP3   OH252362   0.148   6.568   2.552 -0.3632 -0.0690  0.2542
10316TIP3    H152363   0.195   6.616   2.621  1.6366 -1.4583 -0.0391
10316TIP3    H252364   0.198   6.587   2.472  0.3090 -2.2823  0.0740
10317TIP3   OH252365   3.198   5.790   1.393  0.0416  0.2854 -0.1730
10317TIP3    H152366   3.291   5.792   1.418 -0.1898 -0.4749  0.7872
10317TIP3    H252367   3.200   5.793   1.297  1.2112 -2.6311 -0.3338
10318TIP3   OH252368   2.980   1.548  11.545 -0.1437 -0.2219 -0.2135
10318TIP3    H152369   3.068   1.547  11.507  0.3401 -3.3672  0.6799
10318TIP3    H252370   2.992   1.589  11.631  0.1262  0.6820 -0.6715
10319TIP3   OH252371   4.563   1.032  13.573  0.3471  0.3734 -0.0440
10319TIP3    H152372   4.566   0.937  13.586  1.5639  0.5383  1.0099
10319TIP3    H252373   4.474   1.049  13.543  0.4890 -1.2462 -1.5153
10320TIP3   OH252374   1.525   0.804  14.683  0.3101 -0.0960 -0.1313
10320TIP3    H152375   1.429   0.800  14.686  0.2593 -0.4461 -1.3410
10320TIP3    H252376   1.553   0.712  14.682  0.6409  0.0022  0.0158
10321TIP3   OH252377   4.643   0.061  10.893  0.3003  0.0319  0.7317
10321TIP3    H152378   4.578   0.089  10.958 -1.6434 -0.7657 -0.7457
10321TIP3    H252379   4.611   0.098  10.811  0.5366 -2.1180 -0.3950
10322TIP3   OH252380   4.463   5.766   5.600 -0.6732 -0.4224 -0.5763
10322TIP3    H152381   4.473   5.752   5.694 -0.1965  2.0470 -0.1703
10322TIP3    H252382   4.546   5.737   5.562 -1.2992 -2.5148 -0.4317
10323TIP3   OH252383   4.204   0.672  11.705 -0.3797  0.2284  0.4045
10323TIP3    H152384   4.152   0.746  11.735 -1.4464  0.6353 -2.1784
10323TIP3    H252385   4.174   0.599  11.759 -1.8110  1.0022  0.7166
10324TIP3   OH252386   4.311   1.214   5.921 -0.2411 -0.0538 -0.6573
10324TIP3    H152387   4.402   1.219   5.952 -0.7984  1.5519  0.9423
10324TIP3    H252388   4.278   1.132   5.956  0.3815 -0.2899 -0.6095
10325TIP3   OH252389   3.408   6.439  12.771 -0.2648  0.0893  0.0945
10325TIP3    H152390   3.328   6.485  12.744 -1.6989 -2.0943  0.3406
10325TIP3    H252391   3.395   6.423  12.865 -0.2318 -1.4860 -0.1397
10326TIP3   OH252392   4.993   6.439   2.170 -0.4698 -0.0457 -0.1740
10326TIP3    H152393   5.078   6.421   2.131  0.5640  0.2713  1.8076
10326TIP3    H252394   4.987   6.535   2.170  0.7182  0.1506  2.5528
10327TIP3   OH252395   1.881   4.236  14.599  0.4157 -0.4581  0.2609
10327TIP3    H152396   1.795   4.247  14.559  0.1981 -0.9205  0.5944
10327TIP3    H252397   1.862   4.216  14.691  0.7348 -3.7052 -0.2723
10328TIP3   OH252398   1.747   2.638  13.114 -0.1314  0.1919  0.1250
10328TIP3    H152399   1.727   2.691  13.037  1.1915 -0.1826 -0.5214
10328TIP3    H252400   1.789   2.559  13.078  0.7500  0.1266  1.2290
10329TIP3   OH252401   3.159   2.002  15.311 -0.2503  0.2142 -0.4053
10329TIP3    H152402   3.096   1.944  15.268  0.0736  1.3590 -2.5528
10329TIP3    H252403   3.111   2.037  15.386 -1.3345 -0.7912 -0.6020
10330TIP3   OH252404   4.628   0.173   0.511  0.0998  0.2916  0.6718
10330TIP3    H152405   4.614   0.083   0.539 -1.4494  0.7594  1.4546
10330TIP3    H252406   4.576   0.226   0.571  0.5273  1.6726 -0.1358
10331TIP3   OH252407   1.902   1.627  15.736  0.2932  0.3101  0.1016
10331TIP3    H152408   1.898   1.609  15.642  1.3640  1.1170 -0.1294
10331TIP3    H252409   1.811   1.624  15.766 -0.1908  1.1470 -1.1909
10332TIP3   OH252410   4.117   3.223  12.230  0.5598  0.4421 -0.4168
10332TIP3    H152411   4.065   3.242  12.151  3.7705 -0.6379 -3.0358
10332TIP3    H252412   4.147   3.133  12.217  0.4069 -0.1366  2.6455
10333TIP3   OH252413   6.706   4.986  11.532  0.2408 -0.3157  0.0589
10333TIP3    H152414   6.791   5.004  11.571  0.4994 -0.8248 -0.2578
10333TIP3    H252415   6.705   4.891  11.519 -0.8359 -0.4630  1.1079
10334TIP3   OH252416   3.470   6.153   3.981 -0.3020 -0.1933 -0.4552
10334TIP3    H152417   3.531   6.227   3.971 -0.7206  0.1435 -0.5388
10334TIP3    H252418   3.512   6.096   4.045  0.6591 -0.5493 -1.3715
10335TIP3   OH252419   6.535   0.322  16.775 -0.2778 -0.1691  0.0138
10335TIP3    H152420   6.542   0.414  16.749 -0.8136 -0.4579 -1.2543
10335TIP3    H252421   6.625   0.297  16.795 -0.1967  0.7611  0.9249
10336TIP3   OH252422   0.337   1.012   2.598 -0.0790 -0.3991 -0.5128
10336TIP3    H152423   0.377   0.931   2.566  1.1697  0.1475 -0.3638
10336TIP3    H252424   0.407   1.076   2.596 -1.0992  0.7427 -0.7982
10337TIP3   OH252425   5.104   2.440   4.081  0.2490 -0.3934  0.0322
10337TIP3    H152426   5.171   2.374   4.066  0.0758 -0.5706  0.0350
10337TIP3    H252427   5.095   2.484   3.996  0.1201 -0.6019 -0.0623
10338TIP3   OH252428   3.948   4.625   3.697 -0.2504  0.7397  0.4545
10338TIP3    H152429   4.039   4.632   3.667 -0.5064 -0.5661 -0.7479
10338TIP3    H252430   3.925   4.534   3.680 -1.8480  1.1040  0.5749
10339TIP3   OH252431   4.837   1.261   5.681  0.1427 -0.3798  0.0834
10339TIP3    H152432   4.864   1.252   5.590  1.2163  0.9684  0.2285
10339TIP3    H252433   4.834   1.356   5.696  0.8183 -0.5709  1.6693
10340TIP3   OH252434   3.511   2.777   5.191  0.2089 -0.1854 -0.0148
10340TIP3    H152435   3.476   2.741   5.109  1.9595 -0.5813 -0.6221
10340TIP3    H252436   3.436   2.822   5.231 -0.4844  0.8843 -2.3157
10341TIP3   OH252437   4.185   3.846  11.866 -0.1816  0.1552 -0.2348
10341TIP3    H152438   4.215   3.774  11.922 -0.8691  0.8346  1.0559
10341TIP3    H252439   4.128   3.805  11.802 -1.8833 -0.3161  1.4703
10342TIP3   OH252440   0.383   3.096   3.469  0.2322  0.1865  0.2773
10342TIP3    H152441   0.377   3.022   3.529 -0.4719  0.6283  0.7693
10342TIP3    H252442   0.367   3.173   3.524 -0.9439  0.5689 -0.5527
10343TIP3   OH252443   0.526   1.374  13.501 -0.2861 -0.4505 -0.3015
10343TIP3    H152444   0.460   1.437  13.528  0.3956 -0.5467  1.7124
10343TIP3    H252445   0.476   1.304  13.459 -0.9689  1.9026 -3.8704
10344TIP3   OH252446   6.502   2.506  15.430  0.0500  0.2708  0.1481
10344TIP3    H152447   6.450   2.484  15.507 -1.5617 -0.2528 -1.0321
10344TIP3    H252448   6.552   2.426  15.411  1.0447  0.6511  1.0607
10345TIP3   OH252449   5.805   0.510   4.640 -0.6107 -0.1728  0.2432
10345TIP3    H152450   5.746   0.575   4.678  0.2232  0.5095  0.4119
10345TIP3    H252451   5.892   0.535   4.673 -0.2545 -1.2821  0.1810
10346TIP3   OH252452   3.023   0.544  14.440  0.6444 -0.0319  0.5467
10346TIP3    H152453   3.029   0.615  14.505  1.1553 -1.0360  1.6245
10346TIP3    H252454   3.111   0.509  14.435  0.8092  0.5416 -1.3345
10347TIP3   OH252455   5.827   4.999  12.354  0.0407 -0.5498  0.7005
10347TIP3    H152456   5.839   5.073  12.295  0.4642 -1.8587 -0.9448
10347TIP3    H252457   5.915   4.980  12.387  0.3382 -1.6664 -0.6434
10348TIP3   OH252458   1.696   1.535   5.832 -0.0519 -0.4045  0.1963
10348TIP3    H152459   1.769   1.479   5.855  1.2346  1.4128  0.7486
10348TIP3    H252460   1.623   1.503   5.886  0.7698 -1.2062  0.8659
10349TIP3   OH252461   4.683   1.458   0.303 -0.7899 -0.1290  0.3744
10349TIP3    H152462   4.752   1.401   0.336  0.7929  0.8335 -1.1142
10349TIP3    H252463   4.618   1.398   0.266  0.3059 -1.0396 -0.1582
10350TIP3   OH252464   0.174   0.657  16.666  0.0573  0.3147  0.5690
10350TIP3    H152465   0.102   0.626  16.611 -0.1480 -1.9653  1.9696
10350TIP3    H252466   0.228   0.579  16.681  0.1354  0.8186  3.4693
10351TIP3   OH252467   4.434   0.824   5.309  0.7819 -0.1748  0.1502
10351TIP3    H152468   4.344   0.818   5.276  1.2280 -0.3201 -1.1019
10351TIP3    H252469   4.473   0.740   5.286  1.4499  0.1653  0.0276
10352TIP3   OH252470   3.594   1.837  11.539  0.1425  0.6550  0.9207
10352TIP3    H152471   3.576   1.929  11.518  1.3947  0.9193  0.9162
10352TIP3    H252472   3.537   1.787  11.481  0.8128  1.4159 -0.4389
10353TIP3   OH252473   5.990   5.213   0.537  0.5915  0.1352 -0.1269
10353TIP3    H152474   6.013   5.282   0.599  1.6160 -0.0129 -0.3164
10353TIP3    H252475   5.895   5.207   0.541  0.6413  0.1204  1.4210
10354TIP3   OH252476   3.120   6.338  10.132 -0.0092 -0.0874  0.4553
10354TIP3    H152477   3.158   6.300  10.053  0.5295  0.5323  0.4035
10354TIP3    H252478   3.189   6.330  10.198 -0.2545 -0.1074  0.7101
10355TIP3   OH252479   0.139   2.270   4.549  0.3214 -0.1657  0.4519
10355TIP3    H152480   0.052   2.233   4.532 -0.3223  0.7961  1.4913
10355TIP3    H252481   0.199   2.213   4.501 -0.8750 -0.8853 -0.2455
10356TIP3   OH252482   0.073   0.328  15.464  0.2429  0.5312 -0.2528
10356TIP3    H152483   0.053   0.297  15.553 -0.9985 -0.8323 -0.9543
10356TIP3    H252484   0.129   0.259  15.427 -1.1170 -0.0586 -1.2702
10357TIP3   OH252485   6.383   2.929  11.035  0.3500 -0.2665 -0.5869
10357TIP3    H152486   6.423   2.858  11.085  0.7404  0.2573 -0.1417
10357TIP3    H252487   6.336   2.885  10.965  0.4417 -0.9743 -0.2142
10358TIP3   OH252488   1.415   2.022  12.855 -0.0297  0.2672  0.6443
10358TIP3    H152489   1.482   1.970  12.811 -0.2584 -0.6839  1.4137
10358TIP3    H252490   1.410   2.103  12.803 -0.1314 -0.7245 -0.9488
10359TIP3   OH252491   3.529   4.029  11.082 -0.0232 -0.3935  0.0514
10359TIP3    H152492   3.582   4.000  11.008  1.1973  0.0244  0.7513
10359TIP3    H252493   3.475   4.100  11.047 -0.1137 -0.7895 -0.6419
10360TIP3   OH252494   1.471   4.183   6.167  0.0216  0.3548  0.8890
10360TIP3    H152495   1.517   4.207   6.086 -0.2548  0.1690  0.6731
10360TIP3    H252496   1.391   4.235   6.165  0.3180  0.8348  1.3685
10361TIP3   OH252497   2.596   4.717   1.787 -0.0333 -0.7558  0.4128
10361TIP3    H152498   2.579   4.635   1.742 -2.0055  0.4805 -1.3075
10361TIP3    H252499   2.654   4.765   1.728  0.8546 -0.7628  1.2577
10362TIP3   OH252500   2.978   0.298  14.935  0.2047  0.1590  0.1814
10362TIP3    H152501   2.966   0.332  15.023 -0.5413  0.2987  0.0266
10362TIP3    H252502   2.891   0.272  14.906  0.3549  0.5714 -0.7040
10363TIP3   OH252503   3.114   4.508   5.220 -0.2696  0.2311  0.0223
10363TIP3    H152504   3.146   4.537   5.134  2.3070 -0.4427  0.6543
10363TIP3    H252505   3.093   4.416   5.208 -1.5057  0.5396 -0.2589
10364TIP3   OH252506   0.742   4.513  14.473 -0.2724  0.4434  0.1681
10364TIP3    H152507   0.782   4.491  14.389 -1.1473 -0.8415  0.0721
10364TIP3    H252508   0.648   4.503  14.458 -0.3834 -0.8030  1.5762
10365TIP3   OH252509   2.243   4.871  15.828 -0.0980 -0.3049 -0.3234
10365TIP3    H152510   2.288   4.807  15.773 -3.1182 -0.0800 -3.3437
10365TIP3    H252511   2.189   4.818  15.887  1.0773 -0.5069  0.6133
10366TIP3   OH252512   4.970   6.212  16.984  0.0049  0.3937  0.3917
10366TIP3    H152513   4.952   6.300  16.953 -0.7190  0.4924  1.0638
10366TIP3    H252514   5.058   6.218  17.022  0.3517  0.5835 -0.4182
10367TIP3   OH252515   6.214   0.854  13.733 -0.3600  0.0824 -0.3528
10367TIP3    H152516   6.293   0.800  13.724 -1.0593 -1.1253  0.4942
10367TIP3    H252517   6.187   0.871  13.643 -0.0469 -0.8820 -0.6500
10368TIP3   OH252518   2.674   3.711  12.312 -0.6649 -0.2019  0.1360
10368TIP3    H152519   2.663   3.635  12.370 -0.2033 -0.9309 -0.7142
10368TIP3    H252520   2.748   3.688  12.256  0.3071  1.4047  0.6855
10369TIP3   OH252521   4.123   0.328  14.238  0.2659 -0.6982  0.0327
10369TIP3    H152522   4.050   0.345  14.179  0.3612 -0.9118 -0.1512
10369TIP3    H252523   4.147   0.237  14.220 -0.5640 -1.2181  1.3342
10370TIP3   OH252524   1.586   5.653   3.611  0.2262 -0.3687  0.0211
10370TIP3    H152525   1.504   5.701   3.605 -0.9267 -2.2605 -0.2009
10370TIP3    H252526   1.654   5.719   3.594 -1.2752  1.0290 -0.8640
10371TIP3   OH252527   0.130   0.565  10.730 -0.1226 -0.2602  0.7646
10371TIP3    H152528   0.146   0.527  10.643  1.8345  0.2750  0.8400
10371TIP3    H252529   0.107   0.490  10.785  0.4410 -0.8758  0.1759
10372TIP3   OH252530   3.793   6.742  11.959 -0.1042 -0.2069 -0.2038
10372TIP3    H152531   3.849   6.763  12.034  1.8889 -3.6399 -0.4841
10372TIP3    H252532   3.718   6.801  11.967  1.4590  1.6221  2.7410
10373TIP3   OH252533   1.705   5.521   0.882 -0.1651 -0.1499  0.3238
10373TIP3    H152534   1.723   5.503   0.790  0.6484  0.5166  0.3333
10373TIP3    H252535   1.612   5.542   0.885 -0.1745 -0.0624 -0.3751
10374TIP3   OH252536   1.581   6.475  11.164 -0.2410  0.3859 -0.2360
10374TIP3    H152537   1.505   6.417  11.156  1.7058 -2.6361  1.2028
10374TIP3    H252538   1.609   6.489  11.073 -0.5684 -1.3535 -0.6539
10375TIP3   OH252539   0.891   0.436  15.251 -0.0244  0.1633  0.5973
10375TIP3    H152540   0.932   0.392  15.325  0.2952 -0.3757  0.1025
10375TIP3    H252541   0.910   0.380  15.176 -2.0542 -0.3435  0.4144
10376TIP3   OH252542   4.081   6.018   0.354 -0.3191  0.5220 -0.1191
10376TIP3    H152543   4.088   6.114   0.354 -0.3067  0.5212  0.0065
10376TIP3    H252544   3.988   6.001   0.342 -0.8305  0.5930  3.0066
10377TIP3   OH252545   0.262   6.691   3.554 -0.6066  0.2461 -0.1143
10377TIP3    H152546   0.275   6.606   3.514 -0.9775  0.1062  0.0577
10377TIP3    H252547   0.332   6.698   3.619 -1.6241 -0.7036  1.1457
10378TIP3   OH252548   4.717   4.806  15.114  0.7659  0.1585  0.5248
10378TIP3    H152549   4.669   4.742  15.166  0.0695 -0.8172 -1.2235
10378TIP3    H252550   4.686   4.891  15.145 -0.4811 -0.4159  0.9243
10379TIP3   OH252551   4.064   0.936   2.937 -0.1616  1.0684  0.3221
10379TIP3    H152552   4.083   0.910   3.027 -0.4897 -0.0472  0.0891
10379TIP3    H252553   4.104   1.023   2.928  1.9274  0.2344  0.8474
10380TIP3   OH252554   2.783   3.164   2.278 -0.0288 -0.0021  0.0749
10380TIP3    H152555   2.809   3.130   2.192  0.4931  0.8836 -0.1328
10380TIP3    H252556   2.840   3.240   2.292  0.8409 -0.9013  1.8065
10381TIP3   OH252557   4.117   0.637   1.392  0.1530 -0.0438 -0.1056
10381TIP3    H152558   4.176   0.662   1.463  1.4670 -0.0110 -1.1504
10381TIP3    H252559   4.169   0.652   1.312 -1.8362  1.5469 -1.1781
10382TIP3   OH252560   4.972   6.515  14.973 -0.4822 -0.3375 -0.3774
10382TIP3    H152561   4.947   6.588  15.028  0.9108  0.9346 -1.3625
10382TIP3    H252562   4.954   6.545  14.883  1.8297 -0.4200 -0.9329
10383TIP3   OH252563   3.111   1.866  11.523  0.3083 -0.0925  0.4928
10383TIP3    H152564   3.067   1.917  11.591 -0.0888 -0.8372  0.8075
10383TIP3    H252565   3.097   1.916  11.443  1.4744  1.2209  1.0651
10384TIP3   OH252566   4.922   2.076  15.907  0.0880 -0.1816  0.0759
10384TIP3    H152567   4.839   2.120  15.889  0.3359  0.4590  0.4426
10384TIP3    H252568   4.897   1.993  15.949 -0.3511  0.8609  2.0174
10385TIP3   OH252569   0.546   4.858   1.024  0.0171 -0.6298  0.5510
10385TIP3    H152570   0.473   4.876   1.083  0.0585  0.0317  0.4079
10385TIP3    H252571   0.553   4.936   0.969  0.0538 -1.1831 -0.2556
10386TIP3   OH252572   2.836   4.028  11.516 -0.0505  0.0205 -0.3101
10386TIP3    H152573   2.811   4.012  11.424 -0.7366 -0.1688 -0.0994
10386TIP3    H252574   2.757   4.064  11.556  0.5018  0.9048  0.0141
10387TIP3   OH252575   4.454   4.281   1.309 -0.2679 -0.1151 -0.2267
10387TIP3    H152576   4.383   4.319   1.361 -0.5003  1.2016 -1.4394
10387TIP3    H252577   4.412   4.253   1.228  0.8361  2.6138 -1.8711
10388TIP3   OH252578   0.180   2.598  11.896 -0.1360 -0.8331  0.3215
10388TIP3    H152579   0.168   2.528  11.960 -2.1105 -0.3021  0.6029
10388TIP3    H252580   0.147   2.562  11.814 -0.3322 -0.5388  0.2697
10389TIP3   OH252581   4.239   6.349   1.638  0.3270 -0.4777 -0.4531
10389TIP3    H152582   4.207   6.436   1.612  0.8151  0.9881  3.2695
10389TIP3    H252583   4.324   6.366   1.678 -0.9855 -2.0895  3.4252
10390TIP3   OH252584   3.799   2.936  16.851  0.1548  0.0407  0.2883
10390TIP3    H152585   3.768   2.867  16.909 -0.5642 -0.1792 -0.3400
10390TIP3    H252586   3.762   2.914  16.766 -1.7746  2.2248  0.4386
10391TIP3   OH252587   6.515   5.880  17.195  0.3315 -0.4072 -0.2876
10391TIP3    H152588   6.442   5.942  17.201  0.5524 -0.2755  3.5166
10391TIP3    H252589   6.577   5.921  17.134 -1.1214  1.3054 -0.6788
10392TIP3   OH252590   5.768   6.518  14.090  0.6546  0.3292 -0.0156
10392TIP3    H152591   5.775   6.580  14.018  1.6008 -0.3665 -0.5531
10392TIP3    H252592   5.835   6.452  14.071 -0.3531 -0.8877  0.5024
10393TIP3   OH252593   2.091   0.239  16.241  0.1752  0.2958  0.7724
10393TIP3    H152594   2.120   0.191  16.319  0.3147  0.2308  0.6825
10393TIP3    H252595   2.169   0.288  16.215  0.5995 -0.8534 -0.2183
10394TIP3   OH252596   0.831   0.469   4.137 -0.2576  0.1979 -0.3748
10394TIP3    H152597   0.835   0.563   4.118  0.5459  0.0976 -0.7330
10394TIP3    H252598   0.908   0.453   4.193 -0.1194 -0.3305 -0.7145
10395TIP3   OH252599   6.290   3.895   3.266 -0.2474 -1.0453  0.2588
10395TIP3    H152600   6.293   3.975   3.317 -1.4778 -1.2757  0.7214
10395TIP3    H252601   6.282   3.825   3.331 -2.4157 -1.3075 -0.1909
10396TIP3   OH252602   5.133   6.160  13.446 -0.8196  0.3474  0.1503
10396TIP3    H152603   5.152   6.254  13.452  0.6151  0.1130 -0.4384
10396TIP3    H252604   5.112   6.145  13.354 -1.4667  0.1442  0.3210
10397TIP3   OH252605   6.433   1.901  13.033 -0.1771  0.5604 -0.4536
10397TIP3    H152606   6.351   1.946  13.051 -1.0083 -0.2320 -1.9992
10397TIP3    H252607   6.496   1.970  13.015 -0.4616  1.1808  0.8372
10398TIP3   OH252608   1.846   0.256   0.830 -0.0163 -0.3294 -0.0106
10398TIP3    H152609   1.787   0.231   0.759  2.4974 -1.7592 -1.7658
10398TIP3    H252610   1.853   0.351   0.822 -1.6869 -0.1696 -0.0033
10399TIP3   OH252611   6.493   3.438  16.488  0.6586  0.0440  0.1370
10399TIP3    H152612   6.549   3.483  16.551 -0.7699  0.8937  0.8559
10399TIP3    H252613   6.457   3.363  16.536  1.8360 -1.0523 -0.5977
10400TIP3   OH252614   3.366   6.341  14.274 -0.2241 -0.8930  0.4238
10400TIP3    H152615   3.354   6.318  14.181  1.2953 -0.3945  0.0834
10400TIP3    H252616   3.364   6.436  14.275  0.6050 -0.8765  0.7737
10401TIP3   OH252617   0.610   2.807   0.796  0.7386 -0.0830 -0.3643
10401TIP3    H152618   0.549   2.775   0.730 -0.1867 -1.0951  0.9387
10401TIP3    H252619   0.642   2.890   0.761 -2.6216  1.3655 -0.3961
10402TIP3   OH252620   4.263   2.788  14.878 -0.0571 -0.0664  0.4316
10402TIP3    H152621   4.221   2.838  14.948 -0.5440  1.6323 -1.0070
10402TIP3    H252622   4.224   2.822  14.798  1.8934 -0.5591 -0.7879
10403TIP3   OH252623   3.120   0.222  12.001  0.4194 -0.3784  0.0668
10403TIP3    H152624   3.190   0.280  12.031 -0.2132  0.1378  0.5516
10403TIP3    H252625   3.120   0.231  11.906 -0.0879  0.8997  0.1811
10404TIP3   OH252626   0.300   1.830  12.442 -0.6227  0.5567  0.3085
10404TIP3    H152627   0.343   1.879  12.372  0.8369  0.0982  0.8525
10404TIP3    H252628   0.234   1.891  12.476 -0.8401  1.0587 -0.9417
10405TIP3   OH252629   1.605   0.040  14.110  0.4363  0.1476  0.0271
10405TIP3    H152630   1.532   0.090  14.072 -0.3979 -1.3060 -0.3818
10405TIP3    H252631   1.581   0.031  14.203  0.9883  1.1503  0.2832
10406TIP3   OH252632   1.326   5.997  15.485  0.3614  0.0207  0.2157
10406TIP3    H152633   1.307   5.947  15.405  2.0811 -0.6522  0.1954
10406TIP3    H252634   1.269   5.959  15.551 -0.4559  0.0059 -0.4690
10407TIP3   OH252635   0.018   3.653   1.148 -0.0783  0.3341 -0.1576
10407TIP3    H152636  -0.073   3.625   1.161 -0.2215  0.6837 -0.3913
10407TIP3    H252637   0.040   3.620   1.061 -0.1899  0.7977 -0.3604
10408TIP3   OH252638   3.013   0.865  11.722  0.0281  0.2120 -0.3288
10408TIP3    H152639   3.067   0.926  11.772  1.7028 -1.2739 -0.2310
10408TIP3    H252640   2.938   0.846  11.780  0.4730  0.7039  0.4242
10409TIP3   OH252641   0.181   4.644  11.702 -0.3606  0.3357  0.2620
10409TIP3    H152642   0.104   4.702  11.705  0.1161  1.0305 -0.5503
10409TIP3    H252643   0.251   4.696  11.741  0.0863  0.3235 -0.5189
10410TIP3   OH252644   5.709   2.954  10.631  0.5633  0.4794  0.4240
10410TIP3    H152645   5.718   3.026  10.568  0.6757 -0.4626 -0.6829
10410TIP3    H252646   5.796   2.915  10.635 -0.2577 -1.8740 -1.8898
10411TIP3   OH252647   1.388   5.186  12.702 -0.2306 -0.2819 -0.0939
10411TIP3    H152648   1.414   5.208  12.613 -2.1781  1.4110 -0.3191
10411TIP3    H252649   1.340   5.263  12.733 -0.5560 -1.2562  2.0380
10412TIP3   OH252650   4.437   5.221   4.255 -0.8717 -0.6641 -0.0428
10412TIP3    H152651   4.512   5.169   4.286  0.6622  1.2326 -0.3464
10412TIP3    H252652   4.413   5.275   4.330 -0.3649  0.4142 -0.6286
10413TIP3   OH252653   2.420   3.628  15.792  0.2903  0.6463  0.0168
10413TIP3    H152654   2.332   3.659  15.811 -0.4974 -1.7402  0.5005
10413TIP3    H252655   2.423   3.621  15.697  0.2695  1.5223 -0.0573
10414TIP3   OH252656   2.406   2.576  13.310  0.2446 -0.1962 -0.3644
10414TIP3    H152657   2.338   2.515  13.337 -0.0005 -0.0736 -0.7008
10414TIP3    H252658   2.479   2.520  13.284 -0.2076 -0.3780 -1.2927
10415TIP3   OH252659   1.687   0.257   4.789 -0.3538 -0.2154 -0.3540
10415TIP3    H152660   1.780   0.270   4.770 -0.1907 -1.7218 -0.7510
10415TIP3    H252661   1.668   0.317   4.860  0.8073  0.4570 -0.5843
10416TIP3   OH252662   0.545   5.241   3.207 -0.3994 -0.7224 -0.0536
10416TIP3    H152663   0.566   5.160   3.253  0.7561  0.4047  1.5444
10416TIP3    H252664   0.626   5.292   3.211 -1.1746  0.6301 -0.7812
10417TIP3   OH252665   2.067   2.531  13.989 -0.3783  0.2958  0.6184
10417TIP3    H152666   1.995   2.474  14.015 -2.0655  1.3171 -1.5151
10417TIP3    H252667   2.117   2.478  13.926  0.3762 -0.1557  1.5644
10418TIP3   OH252668   2.850   2.357  11.946  0.3546  0.7159  0.4805
10418TIP3    H152669   2.916   2.411  11.988  0.4700  1.0539 -0.1207
10418TIP3    H252670   2.879   2.350  11.855 -0.7698  1.4187  0.0461
10419TIP3   OH252671   3.779   0.086  14.789  0.2948  0.5507 -0.0448
10419TIP3    H152672   3.857   0.032  14.792 -0.0659 -0.0195 -0.6687
10419TIP3    H252673   3.722   0.042  14.726 -0.2729  1.2969 -0.0617
10420TIP3   OH252674   0.950   1.572  16.422 -0.0650  0.3814 -0.0799
10420TIP3    H152675   0.930   1.525  16.341  1.0529  1.8604 -1.2632
10420TIP3    H252676   1.044   1.588  16.417 -0.0587  0.8669  1.3335
10421TIP3   OH252677   3.122   6.079  11.719 -0.0041  1.0638 -0.6974
10421TIP3    H152678   3.085   6.028  11.646 -1.0165  0.8392 -0.0441
10421TIP3    H252679   3.198   6.028  11.747 -0.8123  0.0618 -0.2722
10422TIP3   OH252680   2.223   4.061  13.815  0.2761 -0.1940  0.3307
10422TIP3    H152681   2.181   4.093  13.735  0.5069 -0.7963 -0.0364
10422TIP3    H252682   2.315   4.085  13.805  0.1831  0.3417  0.7349
10423TIP3   OH252683   0.971   1.510   2.737 -0.3831 -0.3606  0.3630
10423TIP3    H152684   1.022   1.491   2.658 -1.0377  0.2379 -0.2188
10423TIP3    H252685   0.992   1.601   2.757 -0.5564 -0.3782  0.6269
10424TIP3   OH252686   1.698   1.394   2.412  0.4144 -0.3612  0.0281
10424TIP3    H152687   1.746   1.466   2.372 -2.5577  0.5953 -2.1835
10424TIP3    H252688   1.676   1.336   2.339 -1.0930 -1.1255  1.0260
10425TIP3   OH252689   6.477   0.317  12.988 -0.3496  0.0441 -0.2544
10425TIP3    H152690   6.458   0.323  12.895 -0.6578  1.8407 -0.1036
10425TIP3    H252691   6.392   0.294  13.028 -0.4481  0.3027 -0.3159
10426TIP3   OH252692   2.763   2.095   6.653 -0.8498  0.4711  1.2219
10426TIP3    H152693   2.721   2.170   6.611 -2.8292 -0.8068  0.7409
10426TIP3    H252694   2.796   2.042   6.580 -0.6464  0.2290  1.4863
10427TIP3   OH252695   1.077   1.761   0.411 -0.2900  0.1308 -0.4403
10427TIP3    H152696   1.125   1.833   0.453 -1.0064  1.9806 -2.6108
10427TIP3    H252697   1.144   1.708   0.369  0.2509 -0.5907  1.2303
10428TIP3   OH252698   5.421   3.727   0.186 -0.0200  0.2778  0.1818
10428TIP3    H152699   5.476   3.679   0.247  0.4019 -0.9723 -1.1352
10428TIP3    H252700   5.348   3.759   0.239  0.9952  0.3495  1.5780
10429TIP3   OH252701   1.462   2.460  16.463  0.2029 -0.6465  0.9053
10429TIP3    H152702   1.490   2.551  16.450 -1.7102  0.1171  1.6455
10429TIP3    H252703   1.510   2.410  16.398  2.6797  0.6054  1.6657
10430TIP3   OH252704   2.949   5.562  10.781  0.3592  0.3377  0.2111
10430TIP3    H152705   3.037   5.570  10.744  1.0778  0.9430  1.9531
10430TIP3    H252706   2.961   5.508  10.859 -0.8326  0.3856  0.4355
10431TIP3   OH252707   3.198   4.590  16.484  0.2608 -0.3846  0.2789
10431TIP3    H152708   3.270   4.551  16.434 -0.9910 -0.7510 -1.3144
10431TIP3    H252709   3.165   4.518  16.538 -1.5336 -1.4436 -2.0685
10432TIP3   OH252710   5.607   2.761   1.013  0.2165 -0.4071  0.1439
10432TIP3    H152711   5.610   2.737   1.106 -0.4257  0.5333  0.4242
10432TIP3    H252712   5.697   2.785   0.992  0.6261 -1.8548  0.1691
10433TIP3   OH252713   3.091   0.367   5.492  0.0612  0.4384  0.2971
10433TIP3    H152714   3.173   0.416   5.495 -0.5070  1.4043  0.6838
10433TIP3    H252715   3.060   0.366   5.582 -1.7933  2.6849 -0.1970
10434TIP3   OH252716   1.675   4.134   0.938 -0.4720 -0.0843  0.0562
10434TIP3    H152717   1.712   4.055   0.899 -0.7437 -0.2971  0.2240
10434TIP3    H252718   1.612   4.166   0.873  0.0616  0.3212 -0.2626
10435TIP3   OH252719   5.390   1.955  13.117 -0.4356 -0.3070 -0.3772
10435TIP3    H152720   5.337   2.020  13.071 -0.8515  0.1936  0.7794
10435TIP3    H252721   5.480   1.985  13.107 -0.6051  0.3039 -0.0741
10436TIP3   OH252722   0.765   2.867  10.707  0.5836 -0.1306  0.1146
10436TIP3    H152723   0.839   2.845  10.763  2.0851 -1.6909 -2.2906
10436TIP3    H252724   0.804   2.896  10.625 -1.5114  2.8033  0.0031
10437TIP3   OH252725   2.784   6.271  11.643  0.3801 -0.6470 -0.0584
10437TIP3    H152726   2.823   6.265  11.556  2.5386 -2.4710  0.9441
10437TIP3    H252727   2.771   6.180  11.670  0.9016 -0.1647  1.9900
10438TIP3   OH252728   1.182   2.352  15.899  0.3501  0.4533  0.4477
10438TIP3    H152729   1.252   2.416  15.884  0.7880 -0.4501 -1.9675
10438TIP3    H252730   1.126   2.360  15.822  0.5288 -2.1289 -0.0361
10439TIP3   OH252731   0.604   4.451  14.786  0.1130  0.1932 -0.5797
10439TIP3    H152732   0.523   4.442  14.736 -1.8454 -0.8608  2.5027
10439TIP3    H252733   0.643   4.364  14.786  0.4201  0.3252 -0.6746
10440TIP3   OH252734   1.858   5.608  10.164  0.1155 -0.7252 -0.1719
10440TIP3    H152735   1.943   5.564  10.161  0.6363  0.2781 -0.4553
10440TIP3    H252736   1.819   5.579  10.246  0.8793 -0.9327  0.1300
10441TIP3   OH252737   2.353   0.038  11.188  0.0696  0.1770 -0.4430
10441TIP3    H152738   2.415   0.059  11.119  1.2890  0.3011  0.6514
10441TIP3    H252739   2.327  -0.053  11.171  0.7546  0.0394 -0.7640
10442TIP3   OH252740   5.692   4.125   0.888 -0.1786  0.3599 -0.1283
10442TIP3    H152741   5.773   4.075   0.890 -0.1219  0.3647 -1.4637
10442TIP3    H252742   5.720   4.217   0.889 -0.1544  0.3617 -0.8185
10443TIP3   OH252743   2.123   3.336  14.475 -0.2626 -0.4949  0.1312
10443TIP3    H152744   2.054   3.385  14.430  1.2127  1.6105 -0.0112
10443TIP3    H252745   2.095   3.335  14.566 -1.1031 -0.8476 -0.1151
10444TIP3   OH252746   2.362   1.383   5.540  0.5507 -0.7758  0.1523
10444TIP3    H152747   2.350   1.461   5.485 -5.2301  0.7956  2.8754
10444TIP3    H252748   2.400   1.416   5.621  2.4000 -1.8365 -0.2022
10445TIP3   OH252749   6.146   5.883   5.670 -0.1575  0.1982  0.4486
10445TIP3    H152750   6.230   5.901   5.712  0.4709 -1.1808 -0.1648
10445TIP3    H252751   6.083   5.934   5.721  0.6603 -0.8318  2.6371
10446TIP3   OH252752   3.507   0.084   1.678 -0.4646  0.3930 -0.1834
10446TIP3    H152753   3.596   0.080   1.713 -0.4347  0.3377 -0.2635
10446TIP3    H252754   3.470   0.165   1.713 -1.4487 -1.0381  2.3346
10447TIP3   OH252755   3.985   1.333  14.710  0.5941  0.2081  0.0805
10447TIP3    H152756   3.967   1.321  14.803 -0.7159 -0.0226 -0.1967
10447TIP3    H252757   4.023   1.421  14.704  1.0415  0.0721  0.8738
10448TIP3   OH252758   0.423   1.762  14.890  0.2053  0.5342 -0.4973
10448TIP3    H152759   0.434   1.690  14.952  0.3942  1.9733  1.2281
10448TIP3    H252760   0.472   1.735  14.812  0.8874 -0.8686  0.3807
10449TIP3   OH252761   1.715   5.173   5.009  0.2194  0.0267  0.6941
10449TIP3    H152762   1.642   5.133   5.055 -0.9805  0.2066 -0.9585
10449TIP3    H252763   1.786   5.109   5.016 -0.8160 -1.2080  0.4032
10450TIP3   OH252764   3.970   0.871  15.387 -0.3769 -0.2640  0.1644
10450TIP3    H152765   3.901   0.872  15.321 -0.2008 -0.0140 -0.0149
10450TIP3    H252766   3.934   0.817  15.458 -1.6441  1.6395  1.0414
10451TIP3   OH252767   5.274   1.385  15.306 -0.4192 -0.7119  0.1979
10451TIP3    H152768   5.337   1.322  15.271 -0.0867 -0.0909 -0.3300
10451TIP3    H252769   5.232   1.422  15.229  1.2220  1.6117  0.3130
10452TIP3   OH252770   0.879   3.370  10.517  0.0756 -0.2141 -0.4166
10452TIP3    H152771   0.974   3.382  10.518  0.2610 -0.5830  3.6753
10452TIP3    H252772   0.843   3.457  10.501  1.0602 -0.0735 -2.0065
10453TIP3   OH252773   5.742   2.308  14.383  0.2963 -0.9564  0.2823
10453TIP3    H152774   5.717   2.400  14.385  2.8709 -0.1929  0.5895
10453TIP3    H252775   5.718   2.279  14.295  0.0036  0.1738 -0.0329
10454TIP3   OH252776   2.291   6.744   1.973  0.1569  0.7584  0.3644
10454TIP3    H152777   2.365   6.763   2.031  0.7971 -0.4642 -0.0076
10454TIP3    H252778   2.310   6.792   1.892  1.5769 -1.0356 -0.4412
10455TIP3   OH252779   0.532   0.711   5.239  0.3241 -0.3256 -0.2135
10455TIP3    H152780   0.563   0.626   5.209  0.3873 -0.1830 -0.5649
10455TIP3    H252781   0.490   0.750   5.162  1.7638  0.6452 -0.5696
10456TIP3   OH252782   6.382   3.528  15.685 -0.4061  0.0540 -0.5872
10456TIP3    H152783   6.341   3.613  15.673 -0.2474  0.5462  1.8098
10456TIP3    H252784   6.411   3.528  15.776 -0.1103 -2.4412 -0.6018
10457TIP3   OH252785   5.446   5.994   5.336  0.4828 -0.2450 -0.2476
10457TIP3    H152786   5.493   5.995   5.252  1.0997 -0.4277  0.0918
10457TIP3    H252787   5.395   5.913   5.333  2.0568 -1.2960  0.3836
10458TIP3   OH252788   4.429   3.339   0.834 -0.6894  0.3855  0.4195
10458TIP3    H152789   4.503   3.387   0.796 -1.5126  0.0189 -1.8061
10458TIP3    H252790   4.463   3.251   0.849 -0.4867  0.3910  0.0214
10459TIP3   OH252791   0.332   1.015  15.080  0.1999 -0.4045  0.2328
10459TIP3    H152792   0.345   1.077  15.008  0.4818 -0.1021  0.5379
10459TIP3    H252793   0.250   0.972  15.060  0.3957 -0.4937 -0.3968
10460TIP3   OH252794   1.772   0.971   0.412 -0.1767  0.5457  0.1578
10460TIP3    H152795   1.707   0.961   0.343  1.5094 -0.0692 -1.4307
10460TIP3    H252796   1.751   1.054   0.454 -1.9783  0.3376 -0.2758
10461TIP3   OH252797   2.568   2.508  11.994 -0.1474 -0.4020  0.1936
10461TIP3    H152798   2.640   2.541  11.941 -1.0780 -0.1386 -0.9558
10461TIP3    H252799   2.516   2.585  12.015 -0.9561 -0.7962 -0.3371
10462TIP3   OH252800   2.255   2.748  14.867 -0.2298  0.3310  0.3826
10462TIP3    H152801   2.235   2.810  14.796  1.2749 -1.2089 -1.5207
10462TIP3    H252802   2.230   2.794  14.947  2.0091  3.9659 -0.7768
10463TIP3   OH252803   4.734   6.152   0.301  0.0760  0.2413 -0.0183
10463TIP3    H152804   4.716   6.171   0.209 -1.3176  1.3485  0.4399
10463TIP3    H252805   4.814   6.200   0.321  1.0442 -0.9176 -0.8998
10464TIP3   OH252806   6.145   3.473  13.359 -0.2385 -0.2804 -0.9594
10464TIP3    H152807   6.111   3.552  13.317 -0.2691  0.1908 -0.0842
10464TIP3    H252808   6.234   3.464  13.325  0.8767  1.8538  1.1008
10465TIP3   OH252809   2.365   3.644   1.751 -0.0422 -0.2581 -0.4988
10465TIP3    H152810   2.272   3.642   1.774  0.2798  0.5432  1.0072
10465TIP3    H252811   2.372   3.588   1.674 -1.5566 -1.4003  0.1469
10466TIP3   OH252812   3.283   6.105   4.651  0.1138 -0.0185 -0.1353
10466TIP3    H152813   3.361   6.127   4.702 -0.3191 -0.9502  0.9820
10466TIP3    H252814   3.229   6.183   4.654 -0.7006 -0.5839  2.4042
10467TIP3   OH252815   3.522   2.934  11.787  0.0130  0.2791 -0.4514
10467TIP3    H152816   3.456   2.916  11.720 -0.8370  1.8365 -0.0774
10467TIP3    H252817   3.504   2.870  11.856 -0.2228 -0.1954 -0.9404
10468TIP3   OH252818   3.217   5.154  12.891  0.2523  0.2891  0.0974
10468TIP3    H152819   3.123   5.169  12.900  0.3514 -0.2974  3.8077
10468TIP3    H252820   3.237   5.089  12.958  3.7724  2.6008  1.5688
10469TIP3   OH252821   3.051   4.630  12.959 -0.1857 -0.1081 -0.5696
10469TIP3    H152822   3.013   4.565  13.017 -1.5391  0.9512 -0.2124
10469TIP3    H252823   3.146   4.623  12.972 -0.3590 -1.4195  0.0563
10470TIP3   OH252824   6.623   5.462  15.299  0.1992 -0.8296 -0.3144
10470TIP3    H152825   6.675   5.383  15.287  0.6012 -0.8406  1.2957
10470TIP3    H252826   6.552   5.436  15.358 -1.5881 -0.7570 -2.2898
10471TIP3   OH252827   5.026   4.167   2.115 -0.4182  0.1947 -0.0803
10471TIP3    H152828   5.092   4.205   2.173 -0.2045  1.2053 -0.9339
10471TIP3    H252829   5.072   4.155   2.032 -0.3608 -2.4280  0.2463
10472TIP3   OH252830   4.245   6.639   3.126  0.8209 -0.2252 -0.7026
10472TIP3    H152831   4.237   6.715   3.183  0.3110 -1.3838  0.8545
10472TIP3    H252832   4.338   6.633   3.107  0.8834  0.7072 -0.7272
10473TIP3   OH252833   0.172   1.314  16.990  0.1699 -1.0482 -0.1450
10473TIP3    H152834   0.184   1.374  17.064  2.7274 -2.0262  0.3525
10473TIP3    H252835   0.090   1.269  17.009  0.3992 -0.7537  1.7663
10474TIP3   OH252836   3.626   5.183   3.330  0.0600 -0.1907  0.0710
10474TIP3    H152837   3.720   5.171   3.314  0.3687  0.0522  1.5356
10474TIP3    H252838   3.584   5.144   3.254  1.3694  0.8922 -1.2913
10475TIP3   OH252839   3.061   3.656   2.129  0.2522 -0.0428 -0.5920
10475TIP3    H152840   3.072   3.750   2.145  1.7011 -0.2092 -0.5221
10475TIP3    H252841   3.056   3.616   2.216  0.7551 -0.1495 -0.6110
10476TIP3   OH252842   5.490   5.454  11.503 -0.4800 -0.0078 -0.0761
10476TIP3    H152843   5.478   5.360  11.518 -0.7589  0.3127  2.1233
10476TIP3    H252844   5.574   5.474  11.546 -1.1037  0.9754  0.7281
10477TIP3   OH252845   4.146   1.098  14.088 -0.1679  0.0866 -0.0275
10477TIP3    H152846   4.099   1.101  14.172  1.6345 -0.6097  1.0540
10477TIP3    H252847   4.163   1.005  14.073  1.3526  0.3567 -0.0835
10478TIP3   OH252848   4.991   5.427  16.118  0.0673 -0.6152  0.1186
10478TIP3    H152849   5.065   5.375  16.150 -1.7325 -3.2935  0.3358
10478TIP3    H252850   4.930   5.430  16.192 -1.4037 -1.3584 -0.9852
10479TIP3   OH252851   1.324   5.834   3.594 -0.3680 -0.3875  0.5771
10479TIP3    H152852   1.270   5.841   3.515  1.7525  0.7021 -0.8888
10479TIP3    H252853   1.305   5.915   3.642  0.4441  0.3661 -0.3143
10480TIP3   OH252854   5.111   6.329   0.606  0.0634  0.1413 -0.2187
10480TIP3    H152855   5.084   6.259   0.546 -0.0042 -0.3441  0.3673
10480TIP3    H252856   5.173   6.381   0.556 -0.2612 -0.0478 -0.8291
10481TIP3   OH252857   0.354   3.084   2.224 -0.0615 -0.4417 -0.4279
10481TIP3    H152858   0.395   3.076   2.309  2.0350 -0.4400 -1.3766
10481TIP3    H252859   0.308   3.168   2.227  0.7141 -0.0322  0.4133
10482TIP3   OH252860   0.856   4.149   3.277 -0.1409  0.1363 -0.0934
10482TIP3    H152861   0.777   4.159   3.223  0.6158 -2.8137 -2.0109
10482TIP3    H252862   0.833   4.080   3.340  0.3892  0.4617  0.4620
10483TIP3   OH252863   0.002   5.850   6.281  0.2860  0.3302 -0.4346
10483TIP3    H152864   0.006   5.922   6.219  1.2728  0.6434 -0.0327
10483TIP3    H252865  -0.055   5.881   6.351 -1.5612 -0.3569 -1.5533
10484TIP3   OH252866   5.527   1.147  12.662 -0.3641 -0.7701  0.7399
10484TIP3    H152867   5.510   1.230  12.617  0.9332 -0.5053  0.6947
10484TIP3    H252868   5.491   1.080  12.603 -0.2852 -0.3149  0.1665
10485TIP3   OH252869   0.568   4.453  15.760  0.2873 -0.5545 -1.0497
10485TIP3    H152870   0.486   4.492  15.790 -0.2171 -0.3880 -2.5607
10485TIP3    H252871   0.558   4.359  15.777  0.6512 -0.3093  0.6631
10486TIP3   OH252872   4.341   4.135   2.414 -0.3882 -0.1140 -0.2597
10486TIP3    H152873   4.324   4.045   2.443 -1.2398 -0.2621 -1.1853
10486TIP3    H252874   4.435   4.137   2.396 -0.4882 -1.0522 -0.9662
10487TIP3   OH252875   0.148   4.396  11.392 -0.4911  0.1556  0.3326
10487TIP3    H152876   0.101   4.397  11.309 -1.5449  0.1906  0.9097
10487TIP3    H252877   0.219   4.459  11.380 -0.8183  0.3932 -0.4342
10488TIP3   OH252878   2.146   1.754  17.103  0.3066 -0.7856 -0.0552
10488TIP3    H152879   2.140   1.709  17.019 -0.5511 -0.7854 -0.0041
10488TIP3    H252880   2.126   1.686  17.168 -2.5199 -0.0934 -0.0453
10489TIP3   OH252881   6.268   4.236  16.234  0.0459 -0.6957 -0.4288
10489TIP3    H152882   6.248   4.232  16.327 -0.6103 -0.5079 -0.5521
10489TIP3    H252883   6.332   4.306  16.225 -1.5520  0.8331 -0.3740
10490TIP3   OH252884   1.165   5.244  15.547  1.1723  0.0540 -0.3624
10490TIP3    H152885   1.158   5.200  15.632  1.4646  0.0276 -0.3522
10490TIP3    H252886   1.164   5.172  15.483  0.9261  0.0752 -0.3854
10491TIP3   OH252887   1.594   0.645   0.499  0.0970  0.4590 -0.0218
10491TIP3    H152888   1.541   0.569   0.524 -0.5193  1.3940  1.6388
10491TIP3    H252889   1.585   0.650   0.404 -0.6349 -0.9675 -0.0535
10492TIP3   OH252890   6.580   3.238  12.146 -0.5064 -0.3113 -0.5414
10492TIP3    H152891   6.606   3.266  12.058  0.1248  1.0910  0.0699
10492TIP3    H252892   6.646   3.173  12.170 -1.7911 -2.2257 -1.8323
10493TIP3   OH252893   2.375   2.282  17.337  0.4589  0.8220  0.3287
10493TIP3    H152894   2.408   2.342  17.404  1.2452  0.8336 -0.0555
10493TIP3    H252895   2.448   2.222  17.320 -0.3260 -0.2913  0.7345
10494TIP3   OH252896   3.920   4.936  17.358  0.1497  0.2833 -0.0388
10494TIP3    H152897   3.997   4.988  17.379 -0.1963  0.3421  1.1519
10494TIP3    H252898   3.870   4.990  17.297 -0.3136  1.4807  1.3362
10495TIP3   OH252899   0.497   0.864  13.128 -0.1371 -0.3446 -0.5661
10495TIP3    H152900   0.470   0.772  13.117 -1.6928  0.0066  0.0970
10495TIP3    H252901   0.489   0.880  13.222  1.4900  0.0875 -0.4823
10496TIP3   OH252902   0.512   3.633   0.415  0.2703 -0.1151  0.5161
10496TIP3    H152903   0.550   3.669   0.335  0.8838 -1.1547  0.3376
10496TIP3    H252904   0.421   3.663   0.413 -0.5423 -2.3753 -1.9928
10497TIP3   OH252905   3.414   1.734   5.125  0.1696 -0.4051  0.7463
10497TIP3    H152906   3.452   1.736   5.037  2.1128  0.6437  1.5389
10497TIP3    H252907   3.370   1.818   5.135  0.9166 -0.0505  1.1435
10498TIP3   OH252908   3.905   0.328  13.040  0.0031 -0.2016  0.0808
10498TIP3    H152909   3.936   0.256  13.094 -0.0801 -0.8529 -0.7237
10498TIP3    H252910   3.984   0.375  13.015  0.0478  0.0708  0.7045
10499TIP3   OH252911   5.475   4.581  13.955 -0.3328 -0.4265  0.6724
10499TIP3    H152912   5.497   4.597  13.863  0.1798 -1.1401  0.6659
10499TIP3    H252913   5.445   4.666  13.987 -0.5557 -0.1774 -0.1633
10500TIP3   OH252914   3.655   3.849   3.074  0.0930  0.0894  0.0341
10500TIP3    H152915   3.637   3.779   3.011  2.3057  0.2870 -0.9059
10500TIP3    H252916   3.676   3.926   3.020 -1.3201  1.2492  1.0448
10501TIP3   OH252917   0.875   1.289  17.005 -0.0450  0.3629 -0.4939
10501TIP3    H152918   0.890   1.372  17.049 -0.0385 -0.2056  0.6179
10501TIP3    H252919   0.780   1.274  17.014 -0.0376  0.2250 -0.6378
10502TIP3   OH252920   5.317   0.739   2.618 -0.1442 -0.2642  0.6643
10502TIP3    H152921   5.301   0.678   2.546  1.9852 -0.6515  0.4403
10502TIP3    H252922   5.363   0.812   2.577 -0.6046  0.4115  1.3280
10503TIP3   OH252923   5.428   2.870  14.028  0.2698 -0.3285 -0.3149
10503TIP3    H152924   5.362   2.882  14.096  1.9871  1.4381  1.1326
10503TIP3    H252925   5.378   2.840  13.951 -2.2883  1.4498  0.5304
10504TIP3   OH252926   2.307   4.923  14.439  0.0881  0.0775 -0.0316
10504TIP3    H152927   2.253   4.845  14.451 -0.7150  0.2669 -1.9647
10504TIP3    H252928   2.254   4.995  14.473 -0.5538  0.1545 -1.1521
10505TIP3   OH252929   6.374   0.889   1.728  0.1251  0.1281 -0.5990
10505TIP3    H152930   6.369   0.880   1.633  0.5063  1.3719 -0.7646
10505TIP3    H252931   6.457   0.935   1.743 -1.6490  3.5098 -0.0116
10506TIP3   OH252932   6.308   3.833  17.033 -0.5933  0.2538  0.1759
10506TIP3    H152933   6.278   3.921  17.013 -0.2868  0.6393  1.3245
10506TIP3    H252934   6.316   3.790  16.947 -1.2713  1.1559 -0.3550
10507TIP3   OH252935   0.171   3.069  15.704 -0.4537  0.0192 -0.0082
10507TIP3    H152936   0.174   3.154  15.748  0.2415  0.1540 -0.3056
10507TIP3    H252937   0.092   3.073  15.650  1.0075  1.5972 -2.1902
10508TIP3   OH252938   5.987   4.126   0.089  0.7683  0.2055 -0.5170
10508TIP3    H152939   6.033   4.188   0.146 -0.1392 -0.9291  1.5410
10508TIP3    H252940   5.940   4.182   0.027  2.2565  1.4626 -0.5846
10509TIP3   OH252941   3.054   1.289  14.856 -0.2069  0.3434  0.3419
10509TIP3    H152942   3.008   1.206  14.842 -0.9163  0.5413  1.4076
10509TIP3    H252943   3.002   1.354  14.811 -0.4152  0.4153  0.6847
10510TIP3   OH252944   3.976   0.437   4.737  0.3076 -0.0218 -0.2313
10510TIP3    H152945   3.916   0.434   4.811 -0.1697 -1.6576 -0.6384
10510TIP3    H252946   3.983   0.530   4.714 -1.5755  0.2607  0.2211
10511TIP3   OH252947   0.970   5.749  12.656  0.9115 -0.0640  1.3845
10511TIP3    H152948   1.024   5.822  12.626  0.7188 -0.5052 -0.1241
10511TIP3    H252949   0.917   5.726  12.580  0.0126 -0.9197  2.2421
10512TIP3   OH252950   0.425   4.441   3.289  0.1263  0.4070  0.4828
10512TIP3    H152951   0.363   4.378   3.252 -0.4323  0.1497  1.7952
10512TIP3    H252952   0.409   4.522   3.241 -1.2876  0.3650  0.8382
10513TIP3   OH252953   0.625   2.607   3.339  0.2541  0.1133 -0.2008
10513TIP3    H152954   0.605   2.628   3.248  1.6452 -0.6586 -0.7281
10513TIP3    H252955   0.556   2.649   3.390  0.4363  2.0841 -1.4740
10514TIP3   OH252956   5.160   6.240  14.724 -0.5120 -0.1111 -0.1730
10514TIP3    H152957   5.130   6.329  14.708  0.8627  0.2337 -1.0099
10514TIP3    H252958   5.239   6.250  14.777 -1.0599 -0.9129  0.8409
10515TIP3   OH252959   6.341   5.069  11.523  0.6415  0.3930 -0.1670
10515TIP3    H152960   6.256   5.042  11.558  0.7896 -0.6977 -0.6131
10515TIP3    H252961   6.399   5.065  11.599  1.0823 -2.4987 -0.5410
10516TIP3   OH252962   5.976   3.674   3.304  0.1265  0.5364 -0.0743
10516TIP3    H152963   6.043   3.690   3.371 -1.2840  0.4047  1.4212
10516TIP3    H252964   5.909   3.623   3.349 -0.2141 -0.8080 -1.9971
10517TIP3   OH252965   2.991   2.905  16.801  0.2336  0.0093  0.1507
10517TIP3    H152966   3.037   2.929  16.881 -0.5843  0.7275  0.4191
10517TIP3    H252967   2.969   2.812  16.812  2.1888 -0.5545 -0.2859
10518TIP3   OH252968   1.943   6.747   3.563  0.2961 -0.1123  0.2467
10518TIP3    H152969   1.970   6.718   3.476 -0.5326  0.3531 -0.1821
10518TIP3    H252970   2.018   6.797   3.596  0.4222  0.1408 -0.4099
10519TIP3   OH252971   2.643   2.465  10.529 -0.5334  0.2628 -0.2589
10519TIP3    H152972   2.587   2.541  10.513 -1.0434  0.0075  0.2468
10519TIP3    H252973   2.584   2.390  10.519  0.3133 -0.1891 -2.3902
10520TIP3   OH252974   3.837   0.985   4.575  0.1280 -0.6008 -0.8954
10520TIP3    H152975   3.931   0.994   4.586  0.2369  0.8979 -2.5791
10520TIP3    H252976   3.826   0.930   4.497 -0.3256  0.4707 -1.6151
10521TIP3   OH252977   5.547   2.021   2.911  0.4213  0.3018 -0.7939
10521TIP3    H152978   5.597   2.014   2.992  0.0762 -0.8069 -0.6563
10521TIP3    H252979   5.484   2.091   2.927  1.1955  0.9499 -0.5713
10522TIP3   OH252980   2.855   0.953   5.447 -0.0055  0.1341  1.2115
10522TIP3    H152981   2.921   0.927   5.383 -0.1728 -1.0771  1.5230
10522TIP3    H252982   2.853   0.882   5.511 -0.8754  0.6465  1.7802
10523TIP3   OH252983   3.000   0.854  14.251  0.1610  0.0268  0.6303
10523TIP3    H152984   2.981   0.862  14.344  1.0109 -0.0273  0.8158
10523TIP3    H252985   2.942   0.784  14.221  0.9173 -0.9762  1.4341
10524TIP3   OH252986   0.114   4.370  15.838 -0.2627  0.2111  0.2853
10524TIP3    H152987   0.195   4.366  15.889  1.8445 -0.9526 -2.8375
10524TIP3    H252988   0.091   4.463  15.836  0.7541  0.5198  1.5219
10525TIP3   OH252989   2.031   3.092  11.893  0.1047  0.3126 -0.1962
10525TIP3    H152990   1.981   3.109  11.973 -0.7650  1.7292 -0.9877
10525TIP3    H252991   2.089   3.167  11.885  0.4848 -0.0291 -0.6697
10526TIP3   OH252992   4.447   5.669   2.855 -0.7945 -0.1134 -0.6473
10526TIP3    H152993   4.403   5.716   2.926 -0.3809  0.1987 -0.5964
10526TIP3    H252994   4.539   5.665   2.882 -0.8532 -1.1330 -0.5491
10527TIP3   OH252995   5.135   0.525  17.013 -0.1006  0.6072 -0.0617
10527TIP3    H152996   5.133   0.596  16.949 -0.5965 -0.1579 -0.9223
10527TIP3    H252997   5.222   0.530  17.052 -0.2449  1.8795  0.1263
10528TIP3   OH252998   5.746   5.332  11.901 -0.0597 -0.0088 -0.0981
10528TIP3    H152999   5.665   5.351  11.854 -0.0465 -0.1820 -0.1893
10528TIP3    H253000   5.810   5.313  11.832 -0.3329 -1.4598  0.0185
10529TIP3   OH253001   0.821   2.702   3.666 -0.5214  0.5087 -0.0206
10529TIP3    H153002   0.772   2.721   3.746 -1.9087 -1.3159 -0.3599
10529TIP3    H253003   0.753   2.678   3.602  0.7346 -1.0401 -0.8392
10530TIP3   OH253004   0.017   1.452   0.535 -0.6964  0.0381  0.6666
10530TIP3    H153005   0.054   1.528   0.491 -1.0832 -0.6275 -0.8671
10530TIP3    H253006   0.045   1.461   0.626  0.1438  1.4499  0.2956
10531TIP3   OH253007   0.047   4.609  17.188 -0.1477  0.6024  0.4684
10531TIP3    H153008   0.007   4.559  17.260 -1.3058  1.7404  0.6543
10531TIP3    H253009  -0.002   4.581  17.110  1.0999 -0.6226  0.0830
10532TIP3   OH253010   4.827   0.990   6.417 -1.4872 -0.0207 -0.2213
10532TIP3    H153011   4.873   0.947   6.344  0.8585 -0.0915  1.1773
10532TIP3    H253012   4.820   0.921   6.484 -1.9744  0.5149  0.2841
10533TIP3   OH253013   5.524   1.728   5.436  0.5081  0.4269 -1.0837
10533TIP3    H153014   5.506   1.654   5.378 -2.8609  1.2557 -1.3444
10533TIP3    H253015   5.543   1.688   5.521 -2.0347 -0.8434 -1.0247
10534TIP3   OH253016   0.047   5.469  11.813  0.2681 -0.5185 -0.2912
10534TIP3    H153017   0.027   5.377  11.797  0.8793 -0.2390 -3.2571
10534TIP3    H253018   0.139   5.468  11.843  0.4308 -0.8479 -0.7862
10535TIP3   OH253019   3.511   4.946   4.181  0.1036  0.6269  0.7706
10535TIP3    H153020   3.525   5.040   4.168  0.4328  0.4892  0.1034
10535TIP3    H253021   3.434   4.925   4.128 -1.4285  0.9585  2.7393
10536TIP3   OH253022   1.578   6.092   2.244  0.5928 -0.4959 -0.0910
10536TIP3    H153023   1.582   6.147   2.322  2.5784  1.7528 -1.6463
10536TIP3    H253024   1.669   6.067   2.227  0.0031 -2.3739 -0.7874
10537TIP3   OH253025   6.565   5.525  12.172  0.9501 -0.1496 -0.2886
10537TIP3    H153026   6.654   5.543  12.203  0.6021 -0.5647  1.0380
10537TIP3    H253027   6.537   5.606  12.130  1.4160  0.5171  0.6484
10538TIP3   OH253028   5.270   4.149   4.506  1.0760  0.1007  0.0210
10538TIP3    H153029   5.237   4.223   4.558 -2.7447 -0.6010 -1.1215
10538TIP3    H253030   5.330   4.104   4.565 -2.2920 -0.1604  3.6898
10539TIP3   OH253031   4.806   0.269  13.730 -0.1272  0.0519  0.5621
10539TIP3    H153032   4.884   0.279  13.675 -0.3673 -1.2596 -0.0735
10539TIP3    H253033   4.840   0.242  13.815  0.1090 -1.3769  0.0465
10540TIP3   OH253034   3.318   0.927   2.607 -0.2722  0.2907 -0.4296
10540TIP3    H153035   3.255   0.895   2.672 -1.0461  1.3179 -0.6572
10540TIP3    H253036   3.301   0.873   2.530 -0.9364  0.5992 -0.5116
10541TIP3   OH253037   1.109   0.332   3.584  0.3413 -0.5556 -0.3461
10541TIP3    H153038   1.118   0.250   3.535 -0.0479 -0.7118 -0.1588
10541TIP3    H253039   1.074   0.394   3.520 -1.7536 -1.1812  0.1212
10542TIP3   OH253040   5.511   4.321   3.360 -0.4515  0.0053  0.1809
10542TIP3    H153041   5.466   4.329   3.276  0.3926  1.3994 -0.1629
10542TIP3    H253042   5.476   4.240   3.398 -2.2257  0.3268 -0.6613
10543TIP3   OH253043   4.971   1.847   1.480 -0.0284 -0.3243 -0.0333
10543TIP3    H153044   5.036   1.916   1.472 -1.9134  1.6686  0.7215
10543TIP3    H253045   5.004   1.790   1.550  0.3947  1.2322  1.0670
10544TIP3   OH253046   2.535   3.584   2.890 -0.4682 -0.0836 -0.2338
10544TIP3    H153047   2.448   3.623   2.892 -0.3831  0.1385 -0.5925
10544TIP3    H253048   2.543   3.547   2.802 -0.2047 -0.1047 -0.2035
10545TIP3   OH253049   0.389   5.136  13.294  0.1406 -0.0071  0.4083
10545TIP3    H153050   0.413   5.074  13.225 -0.4267  0.0822  0.1267
10545TIP3    H253051   0.390   5.221  13.251  0.2306  0.1009  0.6232
10546TIP3   OH253052   5.198   1.662  15.124 -0.0191 -0.3466  0.3348
10546TIP3    H153053   5.173   1.748  15.091  0.2459  0.0243  1.0631
10546TIP3    H253054   5.294   1.664  15.123 -0.0023 -1.1456 -0.9180
10547TIP3   OH253055   5.767   3.900  13.931  0.2599  0.6511  0.3632
10547TIP3    H153056   5.694   3.919  13.989 -0.3241  0.3636 -0.2523
10547TIP3    H253057   5.843   3.940  13.973  0.1090 -0.6335  1.9693
10548TIP3   OH253058   0.085   3.345   5.938  0.2038  0.7747  0.0575
10548TIP3    H153059   0.001   3.351   5.983  0.0700  1.0023 -0.2150
10548TIP3    H253060   0.110   3.253   5.946  0.7685  1.0319  1.6183
10549TIP3   OH253061   1.924   3.811  13.062  0.2043  0.0304  0.2185
10549TIP3    H153062   1.840   3.850  13.084  0.5201  1.8374 -1.5412
10549TIP3    H253063   1.902   3.734  13.010 -0.3752 -1.5340  2.5668
10550TIP3   OH253064   4.683   5.515   0.463 -0.0629  1.0339 -0.1568
10550TIP3    H153065   4.775   5.496   0.483 -0.9146 -1.3811  1.9314
10550TIP3    H253066   4.665   5.596   0.509  0.3829  0.1231  1.7445
10551TIP3   OH253067   2.779   4.689   2.692  0.0998  0.0287  0.3442
10551TIP3    H153068   2.765   4.763   2.633 -0.6617 -0.7043 -0.4204
10551TIP3    H253069   2.696   4.679   2.738  0.5835  0.3828  1.3105
10552TIP3   OH253070   3.633   6.500   4.714 -0.0783  0.3625  0.3979
10552TIP3    H153071   3.543   6.531   4.703 -0.3018 -0.7068 -0.9692
10552TIP3    H253072   3.675   6.568   4.767 -1.4606  1.2805  0.3623
10553TIP3   OH253073   4.033   4.254  11.437 -0.6453 -0.0224 -0.0877
10553TIP3    H153074   4.048   4.210  11.353 -0.8012 -0.1532 -0.0458
10553TIP3    H253075   4.024   4.347  11.414 -3.4367 -0.3235 -0.5645
10554TIP3   OH253076   1.266   2.147  11.697  0.2364 -0.6301 -0.2084
10554TIP3    H153077   1.330   2.077  11.709 -0.7351 -1.4027  0.6707
10554TIP3    H253078   1.249   2.180  11.786 -0.0104  0.0920 -0.5088
10555TIP3   OH253079   1.754   2.550  15.631 -0.0074  0.5140  0.7939
10555TIP3    H153080   1.786   2.566  15.543  0.6603  0.6151  1.0481
10555TIP3    H253081   1.697   2.473  15.623  0.9710 -0.1957  0.4692
10556TIP3   OH253082   4.691   1.953   5.252  0.2855  0.4294  0.2794
10556TIP3    H153083   4.740   2.020   5.298  2.3044 -0.0832 -0.9861
10556TIP3    H253084   4.741   1.873   5.265 -0.2728 -0.1522 -0.9276
10557TIP3   OH253085   5.688   1.222  12.312 -0.6057  0.2658  0.3761
10557TIP3    H153086   5.596   1.250  12.319 -0.6075  0.8209 -1.4297
10557TIP3    H253087   5.738   1.304  12.312  0.0147 -0.0584  2.2778
10558TIP3   OH253088   4.182   6.070   4.224  0.3402 -0.0456 -0.1603
10558TIP3    H153089   4.179   6.091   4.318  0.6197  1.2977 -0.4308
10558TIP3    H253090   4.101   6.022   4.208  0.0882  0.0771  0.6805
10559TIP3   OH253091   0.567   3.180  11.133 -0.3608  0.2918  0.2981
10559TIP3    H153092   0.586   3.207  11.044 -1.4933  2.4957  0.6748
10559TIP3    H253093   0.577   3.259  11.186 -1.1327 -0.6317  1.9220
10560TIP3   OH253094   5.621   3.633   3.202 -0.1008 -0.2658  0.1483
10560TIP3    H153095   5.598   3.693   3.132  0.1952  0.6412  0.8099
10560TIP3    H253096   5.544   3.629   3.258 -0.5430 -1.4329 -0.5161
10561TIP3   OH253097   6.392   1.785  17.229 -0.5518 -0.2921 -0.1443
10561TIP3    H153098   6.460   1.815  17.289 -0.0925  0.2644 -0.9248
10561TIP3    H253099   6.362   1.702  17.267 -0.1930 -0.0122  0.7815
10562TIP3   OH253100   6.732   3.874   3.570  0.0448  0.1583  0.3308
10562TIP3    H153101   6.815   3.856   3.525  0.5792  1.8906  0.5467
10562TIP3    H253102   6.670   3.813   3.531  1.3200 -0.9153 -0.1125
10563TIP3   OH253103   0.423   6.173   1.909  0.0549  0.0211 -0.0866
10563TIP3    H153104   0.443   6.240   1.845 -1.5848 -0.1385 -0.8402
10563TIP3    H253105   0.362   6.215   1.970  0.7424 -0.1479  0.7308
10564TIP3   OH253106   5.893   0.192  13.738 -0.2930 -0.3144 -0.3804
10564TIP3    H153107   5.878   0.247  13.815 -0.2716  0.7868 -1.1356
10564TIP3    H253108   5.948   0.246  13.681 -1.4085 -0.5651 -1.7489
10565TIP3   OH253109   6.717   2.713  15.193 -0.4033  0.2297 -0.5142
10565TIP3    H153110   6.641   2.761  15.160  0.2626  1.5739 -0.1555
10565TIP3    H253111   6.787   2.733  15.131 -0.3407 -1.0466 -0.8745
10566TIP3   OH253112   2.866   6.606  12.735 -0.1446  0.0792  0.1524
10566TIP3    H153113   2.872   6.575  12.825  2.0423  0.2788  0.1193
10566TIP3    H253114   2.930   6.676  12.729 -0.5261  0.3346 -1.4743
10567TIP3   OH253115   6.190   3.420  11.491  0.0026  0.2318 -0.0231
10567TIP3    H153116   6.233   3.347  11.537  0.8416  1.9899  2.1547
10567TIP3    H253117   6.111   3.381  11.454  0.2484 -1.7381  1.3450
10568TIP3   OH253118   1.217   5.569   0.757  0.3055  0.2228 -0.5446
10568TIP3    H153119   1.282   5.637   0.743  2.0708 -1.5082 -1.2849
10568TIP3    H253120   1.204   5.567   0.852  0.4741  1.3413 -0.4901
10569TIP3   OH253121   1.174   3.461  13.479  0.0567 -0.2022  0.1014
10569TIP3    H153122   1.112   3.515  13.430  0.2738  1.1363  1.2393
10569TIP3    H253123   1.185   3.382  13.426 -0.0440  0.9899 -1.7593
10570TIP3   OH253124   0.511   0.105   3.674 -0.1466  0.0673 -0.1226
10570TIP3    H153125   0.519   0.009   3.672  2.3165  0.1809  0.5801
10570TIP3    H253126   0.491   0.125   3.765  0.8083  0.2511  0.0630
10571TIP3   OH253127   1.845   4.106  16.844 -0.2485 -0.1209 -0.0251
10571TIP3    H153128   1.801   4.024  16.868  1.1957 -1.0171 -0.3417
10571TIP3    H253129   1.773   4.168  16.831 -1.3379 -1.0502  1.2009
10572TIP3   OH253130   3.513   0.989  10.951 -0.4684 -0.3781  0.0715
10572TIP3    H153131   3.505   1.052  11.023  2.2919  0.5904 -0.3680
10572TIP3    H253132   3.591   0.938  10.972 -0.4738 -1.0804 -1.4956
10573TIP3   OH253133   5.997   1.886  13.437 -0.6952  0.2472  0.4995
10573TIP3    H153134   6.020   1.952  13.372  0.3971 -0.4452  0.1687
10573TIP3    H253135   5.941   1.825  13.390 -1.1676  0.5608  0.6364
10574TIP3   OH253136   0.868   4.103  12.655  0.3270  0.1670  0.4026
10574TIP3    H153137   0.925   4.174  12.625 -0.6236  0.7959  0.0480
10574TIP3    H253138   0.782   4.123  12.617 -0.4298 -0.1184  1.8859
10575TIP3   OH253139   1.623   1.918   6.211  0.0008  0.7586 -0.0069
10575TIP3    H153140   1.582   1.936   6.295 -0.5890  0.2123 -0.1614
10575TIP3    H253141   1.551   1.884   6.157  1.0424 -2.4008  0.3990
10576TIP3   OH253142   4.051   4.803   6.563 -0.1699 -0.1916 -0.4504
10576TIP3    H153143   4.108   4.844   6.499 -0.4198  0.4936 -0.2371
10576TIP3    H253144   3.963   4.830   6.537 -0.3254 -0.4542 -0.2064
10577TIP3   OH253145   4.263   2.412  12.599 -0.0125 -1.1223  0.1082
10577TIP3    H153146   4.246   2.431  12.507  0.9674  0.4436  0.2160
10577TIP3    H253147   4.309   2.329  12.599  0.6055 -0.7929 -0.8836
10578TIP3   OH253148   6.069   3.035  12.347 -0.2643  0.1263  0.3380
10578TIP3    H153149   5.977   3.019  12.325 -0.4284  0.9339  0.3743
10578TIP3    H253150   6.073   3.130  12.359  0.1453 -0.1143  2.3059
10579TIP3   OH253151   4.225   3.846   4.464 -0.0051  0.4219 -0.1721
10579TIP3    H153152   4.293   3.843   4.397  0.2217  0.2424  0.0655
10579TIP3    H253153   4.272   3.864   4.545  0.1476 -2.5411  0.5001
10580TIP3   OH253154   1.019   1.669  16.744  0.2732 -0.2121 -0.2288
10580TIP3    H153155   1.101   1.673  16.694  0.6385  1.4078  0.4575
10580TIP3    H253156   1.005   1.575  16.759  1.0514 -0.6382 -1.8656
10581TIP3   OH253157   2.357   5.993  12.036 -0.4904 -0.1359  0.4643
10581TIP3    H153158   2.380   5.901  12.033  0.3594  0.0539  0.8722
10581TIP3    H253159   2.385   6.028  11.952 -0.7260 -0.2316  0.3466
10582TIP3   OH253160   4.209   3.870  14.344 -0.3813  0.3729 -0.5413
10582TIP3    H153161   4.160   3.789  14.360  0.3769 -0.2908 -1.4644
10582TIP3    H253162   4.287   3.862  14.398  0.8486 -0.6307 -2.3513
10583TIP3   OH253163   4.662   4.469  11.507  0.0862 -0.5738  0.4010
10583TIP3    H153164   4.707   4.549  11.480 -1.3713  0.8811  2.0651
10583TIP3    H253165   4.605   4.447  11.433 -0.7970  0.9806  0.5763
10584TIP3   OH253166   2.688   0.617   4.556 -0.2583 -0.6050 -0.3204
10584TIP3    H153167   2.685   0.561   4.478 -0.1012 -1.4918  0.2997
10584TIP3    H253168   2.696   0.556   4.629  0.9371  0.2752  0.3075
10585TIP3   OH253169   5.887   3.488  12.864 -0.4607 -0.0832 -0.5033
10585TIP3    H153170   5.886   3.400  12.902  0.1439 -0.2113 -0.7546
10585TIP3    H253171   5.807   3.494  12.813 -0.7858 -0.2756 -0.0214
10586TIP3   OH253172   6.766   6.176  14.943 -0.1692  0.5834 -0.5793
10586TIP3    H153173   6.802   6.164  14.855 -0.1572  0.8053 -0.6050
10586TIP3    H253174   6.685   6.124  14.942 -0.2027  0.6379 -0.7419
10587TIP3   OH253175   6.153   6.317   0.013  0.0553  0.4673  0.0929
10587TIP3    H153176   6.143   6.388  -0.051  0.2268 -0.0905 -0.5665
10587TIP3    H253177   6.083   6.255  -0.010 -0.2477  0.5361  0.8198
10588TIP3   OH253178   0.698   0.051  16.894 -0.4650 -0.3779 -0.8686
10588TIP3    H153179   0.728  -0.039  16.907  1.2910  0.2236 -0.4004
10588TIP3    H253180   0.773   0.095  16.854 -0.2750  1.4925  1.3402
10589TIP3   OH253181   4.129   4.766  10.868 -0.3297 -0.0438 -0.6029
10589TIP3    H153182   4.169   4.853  10.865  1.4692 -0.8648 -1.5952
10589TIP3    H253183   4.147   4.728  10.782  0.1373 -1.9271  0.2794
10590TIP3   OH253184   1.530   2.211   4.236  0.1524 -0.3121 -0.1131
10590TIP3    H153185   1.450   2.205   4.183 -1.1498  0.2939  1.6674
10590TIP3    H253186   1.570   2.294   4.208 -1.7072  1.1695  1.2933
10591TIP3   OH253187   6.209   3.372   3.049  0.2456 -0.2762 -0.4226
10591TIP3    H153188   6.232   3.280   3.032 -2.3123 -1.1929  0.6320
10591TIP3    H253189   6.149   3.369   3.123 -2.7341  1.8302 -2.4813
10592TIP3   OH253190   3.930   4.397   5.389 -0.5011  0.2464  0.4218
10592TIP3    H153191   4.015   4.411   5.347  0.2414 -2.5607  0.8217
10592TIP3    H253192   3.894   4.319   5.346 -2.0776  0.3521  1.4703
10593TIP3   OH253193   6.455   1.846  13.774  0.2622 -0.1036  0.0653
10593TIP3    H153194   6.547   1.830  13.755  0.2573  1.1910 -1.1973
10593TIP3    H253195   6.452   1.937  13.805 -0.6563  0.0808 -0.5070
10594TIP3   OH253196   4.416   1.450  11.565  0.3226  0.2145  0.4065
10594TIP3    H153197   4.356   1.380  11.540  1.8718 -0.8193 -0.6045
10594TIP3    H253198   4.490   1.405  11.605 -0.3400  1.5792  3.4774
10595TIP3   OH253199   3.658   4.655  14.034 -0.5155  0.7486  0.2545
10595TIP3    H153200   3.739   4.705  14.049  0.2068  0.0823 -1.1894
10595TIP3    H253201   3.656   4.590  14.104  0.4081  0.5305  0.0913
10596TIP3   OH253202   6.351   2.099   4.709 -0.3347  0.3808  0.0466
10596TIP3    H153203   6.311   2.080   4.624 -0.1555 -0.1766  0.0833
10596TIP3    H253204   6.352   2.015   4.755  1.5217  0.2060 -0.2343
10597TIP3   OH253205   4.420   2.197   1.987  0.1517 -0.1653  0.2531
10597TIP3    H153206   4.492   2.152   1.943  0.2961  0.2511  0.0627
10597TIP3    H253207   4.414   2.154   2.073 -2.0407 -3.0531 -1.1589
10598TIP3   OH253208   2.128   5.251  10.841  0.5927 -0.2033 -0.1079
10598TIP3    H153209   2.066   5.312  10.881 -2.9910 -1.9685 -2.5151
10598TIP3    H253210   2.108   5.167  10.880  1.1546 -0.9030 -1.2682
10599TIP3   OH253211   6.098   1.896  15.062  0.3315 -0.5813  0.4294
10599TIP3    H153212   6.121   1.824  15.122 -0.9125 -1.8837 -0.5829
10599TIP3    H253213   6.148   1.877  14.983  1.5775  0.8595  0.8233
10600TIP3   OH253214   0.145   5.167   3.444  0.1088  0.4820 -0.3607
10600TIP3    H153215   0.055   5.182   3.416 -0.7571 -1.8252  0.9443
10600TIP3    H253216   0.154   5.222   3.522 -1.0909 -1.1809  1.0185
10601TIP3   OH253217   1.695   6.450   5.912 -0.4530  0.3671  0.7431
10601TIP3    H153218   1.718   6.517   5.977  0.3292  1.5045 -0.6300
10601TIP3    H253219   1.741   6.478   5.833 -1.7599 -0.7090 -0.4394
10602TIP3   OH253220   5.400   4.162   5.061  0.4341 -0.1864  0.1840
10602TIP3    H153221   5.312   4.128   5.080 -1.2821  3.7963  0.2216
10602TIP3    H253222   5.430   4.198   5.145  1.3669  0.0378 -0.2396
10603TIP3   OH253223   3.238   5.420   3.562 -0.4462 -0.5738 -0.1470
10603TIP3    H153224   3.293   5.342   3.556 -1.5919 -1.2916 -2.8994
10603TIP3    H253225   3.265   5.475   3.488  0.6649  1.9823  1.9729
10604TIP3   OH253226   3.535   2.760   2.914  0.0713  0.2908  0.5851
10604TIP3    H153227   3.504   2.678   2.875 -0.6442  1.8496 -2.3738
10604TIP3    H253228   3.531   2.824   2.843 -0.1291  3.1118  2.9546
10605TIP3   OH253229   4.847   3.404  13.558  0.0734 -0.1390 -0.1592
10605TIP3    H153230   4.860   3.414  13.653  0.9295  2.6872 -0.4916
10605TIP3    H253231   4.754   3.380  13.550  0.1817 -1.2879  1.3812
10606TIP3   OH253232   6.252   1.833   2.006  0.1829 -1.0141 -0.1536
10606TIP3    H153233   6.234   1.750   2.050 -0.0618 -1.9652 -1.9347
10606TIP3    H253234   6.233   1.816   1.913 -0.2894  1.1553 -0.5253
10607TIP3   OH253235   0.581   0.006   1.461  0.2084 -0.8329  0.4533
10607TIP3    H153236   0.609  -0.086   1.458 -0.2268 -1.0032  1.3582
10607TIP3    H253237   0.656   0.055   1.427 -0.4607 -1.6859 -2.5208
10608TIP3   OH253238   3.178   3.261  11.842  0.1991  0.0982  0.2033
10608TIP3    H153239   3.209   3.301  11.923  1.0668 -1.7313  0.8280
10608TIP3    H253240   3.148   3.175  11.868  0.2936 -0.4471 -1.3864
10609TIP3   OH253241   0.436   4.245   5.845 -0.2911  0.7161  0.7730
10609TIP3    H153242   0.412   4.153   5.836  0.8545  0.2089  2.4530
10609TIP3    H253243   0.447   4.276   5.755 -1.3901 -0.5674  0.1535
10610TIP3   OH253244   2.992   4.955  12.729  0.5416 -0.5956 -0.2955
10610TIP3    H153245   2.923   4.929  12.668  1.9162 -1.4026 -1.5896
10610TIP3    H253246   3.020   5.041  12.699  0.9102 -0.7973 -0.5430
10611TIP3   OH253247   0.323   4.474   0.468  0.0030 -0.0645  0.1603
10611TIP3    H153248   0.262   4.490   0.396  2.1951 -0.0507 -1.7978
10611TIP3    H253249   0.333   4.378   0.470  0.3290 -0.0312  0.1182
10612TIP3   OH253250   4.047   1.175   3.655  0.0486 -0.1537 -0.0314
10612TIP3    H153251   4.021   1.198   3.744 -0.4312  0.9665 -0.4284
10612TIP3    H253252   3.964   1.171   3.607  0.4186  2.4206 -1.0857
10613TIP3   OH253253   5.458   1.920   5.760 -0.4946 -0.3298  0.3452
10613TIP3    H153254   5.391   1.855   5.780 -0.5591 -0.1411  0.7479
10613TIP3    H253255   5.415   1.979   5.698  0.0343 -1.4891 -1.1760
10614TIP3   OH253256   0.202   6.009   0.424 -0.6570 -0.3023  0.0932
10614TIP3    H153257   0.106   6.012   0.422 -0.6990  3.8154 -0.0949
10614TIP3    H253258   0.223   5.955   0.500 -3.1894  0.1383  1.2134
10615TIP3   OH253259   2.830   5.804  10.723  0.0351  0.2086 -0.0676
10615TIP3    H153260   2.737   5.783  10.720  0.3547 -1.2011 -2.1372
10615TIP3    H253261   2.874   5.719  10.732  1.1564  0.8046  0.2992
10616TIP3   OH253262   3.447   4.925   3.906  0.5520 -0.0666 -0.1128
10616TIP3    H153263   3.460   5.005   3.855  0.3575 -0.0409 -0.1222
10616TIP3    H253264   3.526   4.873   3.889  0.1643 -0.3892 -1.0461
10617TIP3   OH253265   0.624   0.909   2.304 -0.2207 -0.5656 -0.3277
10617TIP3    H153266   0.546   0.873   2.345  0.7123 -2.6624 -0.2557
10617TIP3    H253267   0.648   0.984   2.358 -1.3495 -0.7847  0.4924
10618TIP3   OH253268   6.608   2.515   2.042  0.2368 -0.1681  0.0083
10618TIP3    H153269   6.682   2.574   2.028  1.5039 -1.7764 -0.3238
10618TIP3    H253270   6.532   2.573   2.044  1.5171  1.5719  0.7191
10619TIP3   OH253271   2.705   3.259   1.783  0.5653  0.3705 -0.0592
10619TIP3    H153272   2.740   3.346   1.765 -0.8579  1.1614  0.8455
10619TIP3    H253273   2.612   3.265   1.761  0.3085 -0.7220  0.6386
10620TIP3   OH253274   3.982   6.236  13.514 -0.1999  0.4180 -0.1001
10620TIP3    H153275   3.983   6.231  13.609 -0.2993  2.0044  0.0107
10620TIP3    H253276   3.990   6.145  13.485 -1.4261 -0.2116  1.4151
10621TIP3   OH253277   4.425   2.381  10.552 -0.4688 -0.3879  0.3026
10621TIP3    H153278   4.331   2.379  10.537 -1.0925 -0.8463  3.5361
10621TIP3    H253279   4.462   2.324  10.484 -2.8480 -2.7028  0.8006
10622TIP3   OH253280   3.305   3.737   4.007  0.3538  0.6402  0.4262
10622TIP3    H153281   3.270   3.710   4.092 -0.1268 -1.6081 -0.4160
10622TIP3    H253282   3.399   3.745   4.022  0.6098 -1.9786  0.7329
10623TIP3   OH253283   1.925   2.862   5.470 -0.0302  0.5753 -0.4300
10623TIP3    H153284   1.945   2.948   5.434  0.3231  0.7415  0.1628
10623TIP3    H253285   1.834   2.868   5.499 -0.5180  0.2686 -1.7745
10624TIP3   OH253286   2.663   1.113  13.087  0.0026 -0.8204  0.3940
10624TIP3    H153287   2.719   1.084  13.015 -1.4124  0.6309 -1.3990
10624TIP3    H253288   2.656   1.208  13.075  0.2281 -0.4225  2.8733
10625TIP3   OH253289   6.559   0.729  12.535 -0.0536 -0.0782 -0.4728
10625TIP3    H153290   6.629   0.792  12.517  1.0255 -0.9434  0.5755
10625TIP3    H253291   6.519   0.760  12.616 -0.9835  0.4611 -1.1102
10626TIP3   OH253292   5.073   2.130  11.939  0.5647  0.2504  0.1097
10626TIP3    H153293   5.008   2.121  11.869  1.4676 -2.3121 -0.5210
10626TIP3    H253294   5.157   2.116  11.895  1.2250 -0.4839  1.5348
10627TIP3   OH253295   1.223   4.989   0.344 -0.6512 -0.0533 -0.1449
10627TIP3    H153296   1.186   5.003   0.257 -0.0955  0.6328 -0.2788
10627TIP3    H253297   1.266   4.904   0.338 -0.9263 -0.1738 -0.4300
10628TIP3   OH253298   3.294   3.556   3.363 -0.0345 -0.4071  0.1543
10628TIP3    H153299   3.390   3.558   3.366 -0.0151 -1.4077  1.2193
10628TIP3    H253300   3.273   3.467   3.333 -0.6138 -0.5661  0.9989
10629TIP3   OH253301   6.555   1.098   4.692 -0.2921 -0.0096 -0.0939
10629TIP3    H153302   6.578   1.060   4.776  0.1874  0.1614 -0.1470
10629TIP3    H253303   6.637   1.099   4.642 -0.6490 -0.5047 -0.7175
10630TIP3   OH253304   0.279   1.674  15.754  0.1225 -0.0373  0.3392
10630TIP3    H153305   0.257   1.730  15.829  0.4271 -0.0005  0.4052
10630TIP3    H253306   0.361   1.710  15.720 -0.5617  0.5988 -0.6778
10631TIP3   OH253307   1.358   3.708   2.247  0.2068 -0.0425 -0.4224
10631TIP3    H153308   1.272   3.684   2.215  0.5274 -0.6630 -0.8345
10631TIP3    H253309   1.419   3.677   2.180  0.7974 -0.2043  0.1714
10632TIP3   OH253310   4.863   0.758  11.732 -0.1794 -0.4091 -0.3141
10632TIP3    H153311   4.817   0.677  11.754  1.1083 -0.5424  2.2528
10632TIP3    H253312   4.800   0.828  11.754 -0.3365 -0.6570  0.0399
10633TIP3   OH253313   1.480   0.237  14.737 -0.1108 -0.8392  0.0371
10633TIP3    H153314   1.393   0.216  14.703 -1.0007  0.4702  1.4002
10633TIP3    H253315   1.494   0.329  14.712  0.4825 -0.7636  0.6208
10634TIP3   OH253316   4.673   6.455   4.473  0.5203  0.0719  1.1709
10634TIP3    H153317   4.615   6.400   4.525  0.3635 -1.1893 -0.2628
10634TIP3    H253318   4.761   6.423   4.493  0.4699 -0.2989  0.8318
10635TIP3   OH253319   4.649   6.436   6.189 -0.6793 -0.1261  0.0555
10635TIP3    H153320   4.732   6.422   6.235  0.1510 -1.2272 -1.6630
10635TIP3    H253321   4.635   6.356   6.139 -0.9081  1.3764 -2.4821
10636TIP3   OH253322   5.836   0.926   6.611  0.7349 -0.2236  0.1606
10636TIP3    H153323   5.838   0.999   6.673 -1.6839  1.4878 -1.6041
10636TIP3    H253324   5.832   0.968   6.525  0.6528 -2.4831 -1.0178
10637TIP3   OH253325   0.376   6.262   3.636  0.6008  0.1749 -0.1049
10637TIP3    H153326   0.304   6.318   3.665  0.9826  0.1938  0.8544
10637TIP3    H253327   0.397   6.209   3.713  0.5206 -1.0063 -0.8727
10638TIP3   OH253328   6.511   1.835   6.701  0.4066 -0.7663  0.1995
10638TIP3    H153329   6.497   1.913   6.648 -1.1648 -1.1267  0.0326
10638TIP3    H253330   6.599   1.805   6.677 -0.2934 -1.0289 -2.3658
10639TIP3   OH253331   3.398   6.402  16.752  0.5911  0.4501  0.6560
10639TIP3    H153332   3.391   6.486  16.798  1.4230 -0.2690  2.1835
10639TIP3    H253333   3.319   6.355  16.775 -0.6106  1.3052 -1.4010
10640TIP3   OH253334   5.763   2.808   2.183  0.0750 -0.3896 -0.5166
10640TIP3    H153335   5.773   2.884   2.240  1.0436 -0.8166 -0.1045
10640TIP3    H253336   5.730   2.844   2.101  1.9721  0.7022 -0.8501
10641TIP3   OH253337   4.686   1.986   3.667  0.4931  0.7682 -0.1331
10641TIP3    H153338   4.677   1.921   3.736  0.3868  0.0388 -0.8239
10641TIP3    H253339   4.779   1.987   3.647  0.5375  1.0464  0.0785
10642TIP3   OH253340   3.484   5.781  15.165 -0.3340 -0.2988  0.4732
10642TIP3    H153341   3.432   5.860  15.154 -0.7062 -0.2106  2.5074
10642TIP3    H253342   3.567   5.811  15.202 -0.0824 -0.7626  0.2988
10643TIP3   OH253343   1.522   4.367  17.020  0.0401 -0.0242  0.1133
10643TIP3    H153344   1.481   4.354  17.105 -1.1586 -2.0898 -0.6945
10643TIP3    H253345   1.559   4.282  16.998  1.0510  0.6881 -1.0810
10644TIP3   OH253346   5.444   4.144  17.328  0.0171 -0.2027  0.0687
10644TIP3    H153347   5.517   4.140  17.390 -0.3397 -1.2321  0.4555
10644TIP3    H253348   5.427   4.052  17.305 -0.6691  0.0756 -0.5893
10645TIP3   OH253349   3.589   3.019   1.736 -0.1479  0.6027 -0.5963
10645TIP3    H153350   3.624   3.012   1.647  2.2120 -0.7760  0.3429
10645TIP3    H253351   3.558   2.930   1.756  2.0237  0.0907  0.8897
10646TIP3   OH253352   0.019   4.052  12.122 -0.5002 -0.4356  0.9295
10646TIP3    H153353  -0.016   4.141  12.120  0.4951 -0.0277 -1.7515
10646TIP3    H253354   0.101   4.059  12.171 -1.0295 -0.1538  1.7919
10647TIP3   OH253355   0.109   4.331   4.038  0.0812 -0.6829 -0.2162
10647TIP3    H153356   0.203   4.347   4.044 -0.1840  0.5872  2.1620
10647TIP3    H253357   0.074   4.413   4.002 -0.2322 -0.4997  0.4876
10648TIP3   OH253358   3.519   4.599   4.611  0.3638 -0.3229 -0.5984
10648TIP3    H153359   3.544   4.534   4.676 -0.2936  0.1535  0.1493
10648TIP3    H253360   3.435   4.568   4.577  0.5155 -0.3666 -0.9350
10649TIP3   OH253361   2.110   0.005   1.014  0.4118  0.3673 -0.1748
10649TIP3    H153362   2.090   0.037   1.102 -1.0324  0.8262 -0.6410
10649TIP3    H253363   2.077  -0.085   1.013  1.6234 -0.1013  0.1434
10650TIP3   OH253364   5.222   5.314  14.997 -0.0079 -0.1354 -0.5810
10650TIP3    H153365   5.260   5.361  14.923 -0.7115  0.2157 -0.7258
10650TIP3    H253366   5.297   5.275  15.042  0.4720  0.1101 -1.1604
10651TIP3   OH253367   0.422   1.946  14.680  0.7076  0.7718 -0.0409
10651TIP3    H153368   0.437   1.944  14.774 -1.3101  0.6662  0.3196
10651TIP3    H253369   0.497   1.899  14.643  0.7319 -0.6230  1.6450
10652TIP3   OH253370   3.382   2.283  14.223 -0.5902 -0.2070  0.4332
10652TIP3    H153371   3.366   2.320  14.310  0.4455  2.3364 -0.3593
10652TIP3    H253372   3.351   2.350  14.163 -0.8059 -1.6979 -1.1668
10653TIP3   OH253373   2.431   4.367  14.012  0.4776 -0.3239  0.3226
10653TIP3    H153374   2.368   4.374  13.940  1.2800 -0.4143 -0.4062
10653TIP3    H253375   2.380   4.331  14.085 -0.7371  1.2707  0.3123
10654TIP3   OH253376   4.541   0.785  11.945  0.1307  0.2345 -0.3267
10654TIP3    H153377   4.547   0.704  11.895  1.1002  0.5250 -0.7026
10654TIP3    H253378   4.459   0.778  11.993  0.5282 -1.2696  0.1734
10655TIP3   OH253379   0.561   6.570   4.617  0.5685 -0.1271  0.0430
10655TIP3    H153380   0.654   6.557   4.636  0.2607 -1.7725  0.5568
10655TIP3    H253381   0.523   6.482   4.619 -1.1141  0.5598  0.4687
10656TIP3   OH253382   3.317   1.770   1.216  0.4176 -0.5057  0.3340
10656TIP3    H153383   3.322   1.786   1.122  0.5814 -1.3717  0.1901
10656TIP3    H253384   3.270   1.846   1.251 -0.8409 -0.8124 -0.6203
10657TIP3   OH253385   4.864   0.360  12.798 -0.5945  0.2723  0.0531
10657TIP3    H153386   4.828   0.442  12.833 -1.3460  0.0697 -0.2174
10657TIP3    H253387   4.950   0.352  12.838 -0.8680  0.7604  0.7553
10658TIP3   OH253388   0.228   0.924   6.315 -0.2120  0.3558 -0.2383
10658TIP3    H153389   0.171   0.995   6.344  1.8322  3.1938 -2.5660
10658TIP3    H253390   0.281   0.903   6.392 -0.8047  1.4217  0.4812
10659TIP3   OH253391   1.000   6.213  13.002 -0.0672  0.3453 -0.1508
10659TIP3    H153392   0.933   6.179  12.943 -2.0210 -0.8749  2.5129
10659TIP3    H253393   1.028   6.295  12.962 -2.1242  0.1983 -2.1313
10660TIP3   OH253394   6.496   6.517   0.958 -0.3029  0.4937 -0.2736
10660TIP3    H153395   6.563   6.564   0.909 -1.1548  2.4130  0.3350
10660TIP3    H253396   6.545   6.472   1.027  0.4556  1.2402 -0.3065
10661TIP3   OH253397   4.385   0.542   4.895  0.3237  0.1061  0.4759
10661TIP3    H153398   4.289   0.549   4.901  0.1171 -1.7937 -0.0918
10661TIP3    H253399   4.413   0.631   4.873 -1.2500  0.8316  1.2277
10662TIP3   OH253400   5.175   4.910   3.911 -0.2499  0.2721 -0.4256
10662TIP3    H153401   5.101   4.960   3.878  0.6069  1.5388 -0.4858
10662TIP3    H253402   5.202   4.855   3.837  0.1247  1.2990 -1.0687
10663TIP3   OH253403   2.415   5.978  14.947  0.2695  0.2039 -0.2291
10663TIP3    H153404   2.463   5.915  14.894 -0.9756 -0.4426 -0.6331
10663TIP3    H253405   2.334   5.933  14.970 -0.0391  1.1648  0.6426
10664TIP3   OH253406   3.841   2.059  12.505  0.2593 -0.2582 -0.6879
10664TIP3    H153407   3.903   1.988  12.486 -0.0329 -0.0461 -2.6497
10664TIP3    H253408   3.889   2.118  12.563  0.7783 -1.6388  0.3428
10665TIP3   OH253409   2.839   3.342  12.016 -0.7196 -0.1162 -0.1463
10665TIP3    H153410   2.785   3.266  11.994  1.2528 -1.4128 -0.7062
10665TIP3    H253411   2.876   3.370  11.932 -0.5211  0.7687  0.2199
10666TIP3   OH253412   4.755   3.711  15.856 -0.1343 -0.8527 -0.5856
10666TIP3    H153413   4.684   3.647  15.867  0.5204 -1.4103  0.5785
10666TIP3    H253414   4.820   3.686  15.922  1.2246 -0.4486 -1.7155
10667TIP3   OH253415   2.031   2.992   0.943 -0.1081  0.2338 -0.2940
10667TIP3    H153416   1.993   2.917   0.989  0.8855 -0.1839 -0.1240
10667TIP3    H253417   2.049   3.056   1.012  1.1798 -0.3056 -0.1033
10668TIP3   OH253418   1.491   1.368   0.571  0.1183 -0.0487 -0.5335
10668TIP3    H153419   1.548   1.444   0.581  0.6196 -0.5101  0.1952
10668TIP3    H253420   1.478   1.335   0.660 -0.9383 -0.2069 -0.7359
10669TIP3   OH253421   2.043   4.798   0.503 -0.6306  0.2393 -0.6186
10669TIP3    H153422   2.029   4.870   0.564 -4.7990 -0.8334  0.0221
10669TIP3    H253423   1.965   4.798   0.447  0.8015 -1.7416 -2.8458
10670TIP3   OH253424   4.366   0.109  14.156  0.3280 -0.1492  0.3284
10670TIP3    H153425   4.396   0.199  14.157  0.9884 -0.3678  0.6007
10670TIP3    H253426   4.442   0.058  14.127 -0.0327 -0.6194  0.1840
10671TIP3   OH253427   1.113   4.107  11.897  0.3081 -0.8835 -0.1085
10671TIP3    H153428   1.083   4.184  11.848 -0.6834  0.4966  2.4946
10671TIP3    H253429   1.071   4.033  11.853 -1.5992  0.4119 -0.5905
10672TIP3   OH253430   1.003   5.140   0.920 -0.1288 -0.9526  0.2500
10672TIP3    H153431   1.092   5.133   0.887  0.7907  1.4585  1.9197
10672TIP3    H253432   0.997   5.075   0.989  0.7867 -0.2900  0.9675
10673TIP3   OH253433   1.984   2.851  13.750  0.2210  0.3532 -0.1443
10673TIP3    H153434   1.973   2.896  13.666 -0.5809  1.6222  0.6265
10673TIP3    H253435   1.930   2.772  13.741 -2.3337  1.9600  0.2286
10674TIP3   OH253436   1.622   3.342   5.065  0.2937  0.0971 -0.0677
10674TIP3    H153437   1.714   3.323   5.081  0.2211  0.7003  1.1209
10674TIP3    H253438   1.602   3.416   5.122 -1.4756 -1.3401  1.2948
10675TIP3   OH253439   2.813   1.241   3.055  0.1187 -0.0429 -0.2077
10675TIP3    H153440   2.814   1.146   3.048  0.1416  0.0348 -1.4362
10675TIP3    H253441   2.738   1.260   3.111 -0.0598 -0.7696 -0.1906
10676TIP3   OH253442   5.869   0.091   3.884 -0.1738 -0.4414 -0.0947
10676TIP3    H153443   5.826   0.005   3.875  1.1083 -1.2666  1.3237
10676TIP3    H253444   5.923   0.098   3.806 -0.7824 -0.6129 -0.5471
10677TIP3   OH253445   5.517   0.648   0.639  0.0076 -0.0855 -0.4312
10677TIP3    H153446   5.554   0.636   0.552  0.1246 -0.1230 -0.3767
10677TIP3    H253447   5.457   0.574   0.650  2.7113 -2.2949  0.9577
10678TIP3   OH253448   6.235   2.756  12.100  0.1130  0.1010 -0.4673
10678TIP3    H153449   6.140   2.764  12.111  0.4319  0.0670  3.9022
10678TIP3    H253450   6.266   2.846  12.096  0.0592  0.1501  0.2244
10679TIP3   OH253451   4.271   0.071  13.282  0.0764  0.1405 -0.0938
10679TIP3    H153452   4.258  -0.012  13.236 -0.2087  0.7436 -1.1421
10679TIP3    H253453   4.312   0.047  13.365  0.9078 -0.9598 -0.8029
10680TIP3   OH253454   4.787   2.640  10.479  0.1562 -0.1755  0.2960
10680TIP3    H153455   4.848   2.647  10.405  0.1437 -0.5105  0.2524
10680TIP3    H253456   4.773   2.546  10.489 -1.8600 -0.0457 -0.9142
10681TIP3   OH253457   5.675   4.885   2.374 -0.2845  0.2562  0.3804
10681TIP3    H153458   5.670   4.970   2.331  5.2386  0.6944 -0.0439
10681TIP3    H253459   5.723   4.902   2.456  0.5421 -2.3238  0.5197
10682TIP3   OH253460   2.615   4.992  12.759 -0.6027 -0.1933 -0.2464
10682TIP3    H153461   2.599   5.085  12.747  0.2592 -0.0485 -0.3373
10682TIP3    H253462   2.668   4.967  12.683  1.1618 -0.2332  0.9423
10683TIP3   OH253463   5.936   0.680   2.011  0.3650 -0.7323  0.2700
10683TIP3    H153464   5.875   0.651   1.942 -0.8588 -1.9930  1.8129
10683TIP3    H253465   5.959   0.769   1.986 -2.1054 -0.1978 -0.4340
10684TIP3   OH253466   2.598   0.118   1.782 -0.4709 -0.1478  0.2765
10684TIP3    H153467   2.642   0.036   1.806 -2.9343 -1.4460  0.6497
10684TIP3    H253468   2.651   0.152   1.710  0.0718 -2.6036 -0.6059
10685TIP3   OH253469   5.043   2.955  14.539  0.6627 -0.0953 -0.1230
10685TIP3    H153470   5.054   3.012  14.462  1.1449  0.3379  0.2606
10685TIP3    H253471   5.019   2.870  14.503  0.7966  0.1289 -0.7522
10686TIP3   OH253472   1.960   6.054  11.788 -0.2824 -0.7045  0.0207
10686TIP3    H153473   1.935   6.108  11.713 -0.2086 -1.8013 -0.8165
10686TIP3    H253474   1.932   6.105  11.864  0.2508  0.7488 -0.7096
10687TIP3   OH253475   3.995   5.486  16.161  0.0126  0.7057 -0.2209
10687TIP3    H153476   3.941   5.514  16.088 -2.8227 -1.7773  0.7506
10687TIP3    H253477   4.043   5.410  16.128 -1.2149 -0.3735  0.4098
10688TIP3   OH253478   2.491   1.590  14.249 -0.5107 -0.5705 -0.0701
10688TIP3    H153479   2.435   1.516  14.226  0.2468 -1.6047  1.2620
10688TIP3    H253480   2.539   1.561  14.326  0.7786  0.8304 -0.2863
10689TIP3   OH253481   1.092   3.371  13.723  0.1837 -0.0305 -0.2348
10689TIP3    H153482   1.121   3.407  13.639  0.1035  0.9775  0.1580
10689TIP3    H253483   1.014   3.421  13.746  0.6009  0.1822  0.7724
10690TIP3   OH253484   2.009   2.798  14.318  0.0060 -0.0653  0.0516
10690TIP3    H153485   1.917   2.800  14.293  0.1126 -0.7001 -0.4039
10690TIP3    H253486   2.056   2.794  14.235  0.3722 -2.0339  0.2992
10691TIP3   OH253487   0.953   4.099  11.350 -0.0735 -0.0082 -0.0267
10691TIP3    H153488   0.915   4.141  11.273  1.5871 -1.0617 -1.5013
10691TIP3    H253489   1.013   4.164  11.386  0.2347 -0.0174 -0.5117
10692TIP3   OH253490   4.337   5.601   1.840 -0.7472 -0.5638  0.0495
10692TIP3    H153491   4.302   5.683   1.806 -0.2392 -0.1198  0.5780
10692TIP3    H253492   4.428   5.622   1.864 -0.9274 -1.0084  1.1658
10693TIP3   OH253493   5.377   1.820  11.969  0.0540 -0.3345  0.5215
10693TIP3    H153494   5.351   1.730  11.950 -0.7484  0.1574 -0.8958
10693TIP3    H253495   5.435   1.844  11.898  0.9388  0.0172  1.3408
10694TIP3   OH253496   6.705   6.276   4.911  0.1586  0.0007  0.1464
10694TIP3    H153497   6.760   6.212   4.957 -0.1917 -0.1046  0.4165
10694TIP3    H253498   6.721   6.259   4.818 -0.3950 -0.8924  0.2042
10695TIP3   OH253499   1.046   5.334   0.257  0.3121 -0.1439 -0.3387
10695TIP3    H153500   1.011   5.424   0.253  0.1181 -0.2066 -0.0958
10695TIP3    H253501   1.136   5.345   0.287 -0.5784 -0.2020  2.7315
10696TIP3   OH253502   1.449   3.145   2.305 -0.1102 -0.1561 -0.1777
10696TIP3    H153503   1.479   3.135   2.215 -0.2216 -0.2123 -0.2087
10696TIP3    H253504   1.462   3.238   2.325 -2.1737  0.3788 -1.0084
10697TIP3   OH253505   1.692   2.802   3.742 -0.2061 -0.3021 -0.1821
10697TIP3    H153506   1.603   2.802   3.777  0.0046  0.2583  0.3640
10697TIP3    H253507   1.738   2.869   3.793  1.0343 -1.8651  0.8694
10698TIP3   OH253508   0.226   2.521  14.894 -0.8631 -0.4099 -0.9249
10698TIP3    H153509   0.222   2.458  14.966  1.2501  0.7128  0.2716
10698TIP3    H253510   0.280   2.477  14.828  0.5348  0.0718 -0.1297
10699TIP3   OH253511   0.698   4.040  14.201  0.4333  0.3005  0.5629
10699TIP3    H153512   0.777   4.027  14.253  0.1391  2.3568  1.6239
10699TIP3    H253513   0.663   4.125  14.231 -0.4388  0.9748 -2.1195
10700TIP3   OH253514   1.302   6.206  15.149  0.5922  0.1986 -0.0955
10700TIP3    H153515   1.297   6.209  15.053  1.2918  0.3566 -0.1324
10700TIP3    H253516   1.386   6.246  15.170  0.2278  0.6238  0.6162
10701TIP3   OH253517   2.515   2.740  14.124 -0.0964 -0.2094 -0.4855
10701TIP3    H153518   2.434   2.715  14.168  0.3747 -0.2509  0.3798
10701TIP3    H253519   2.516   2.686  14.045  0.7331 -2.8397  1.1701
10702TIP3   OH253520   6.409   3.679   1.552 -0.0080 -0.4348  0.6078
10702TIP3    H153521   6.495   3.651   1.583  0.1194 -0.5882  0.1226
10702TIP3    H253522   6.374   3.602   1.507  0.4788  0.2629 -1.0324
10703TIP3   OH253523   6.608   2.112   3.206 -0.3371 -0.6607 -0.6473
10703TIP3    H153524   6.526   2.119   3.254 -0.2738 -0.8894 -0.5042
10703TIP3    H253525   6.600   2.175   3.134 -0.5989 -0.6181 -0.5787
10704TIP3   OH253526   2.388   5.632   6.213 -0.0230 -0.0198 -0.1183
10704TIP3    H153527   2.398   5.610   6.120 -1.6410 -2.3549  0.1641
10704TIP3    H253528   2.465   5.592   6.255 -0.5012 -1.0793 -0.2071
10705TIP3   OH253529   0.399   1.430  16.679 -0.2847  0.1923 -0.1179
10705TIP3    H153530   0.322   1.482  16.703  0.5949  1.2077  0.6174
10705TIP3    H253531   0.410   1.370  16.753  0.1132  0.6334  0.1894
10706TIP3   OH253532   5.294   5.552   2.726  0.5589 -0.3570 -0.4032
10706TIP3    H153533   5.388   5.549   2.740  0.4547  0.7475  0.8067
10706TIP3    H253534   5.281   5.629   2.671  0.3435 -0.3410 -0.3300
10707TIP3   OH253535   1.812   0.994   3.755 -0.2949  0.1431  0.4902
10707TIP3    H153536   1.875   0.965   3.690 -0.8873 -0.2089  0.0568
10707TIP3    H253537   1.847   0.963   3.839 -0.2530 -0.6815  0.1775
10708TIP3   OH253538   4.507   3.337  12.981 -0.3398 -0.6072  0.0421
10708TIP3    H153539   4.523   3.279  13.055 -0.7251 -0.5818  0.1474
10708TIP3    H253540   4.466   3.414  13.020 -0.0685 -0.3712 -0.1306
10709TIP3   OH253541   4.716   4.515   3.160 -0.1724 -0.1705 -0.4636
10709TIP3    H153542   4.685   4.519   3.069 -2.5697  0.1909  0.2747
10709TIP3    H253543   4.663   4.446   3.200 -0.6505  1.0413  1.1264
10710TIP3   OH253544   1.203   1.693   1.161  0.3517  0.4265  0.2290
10710TIP3    H153545   1.114   1.660   1.177  0.2617  1.2422  1.4852
10710TIP3    H253546   1.247   1.621   1.116 -0.3089 -0.8247  1.5097
10711TIP3   OH253547   1.819   3.221  13.827 -0.6456 -0.3310  0.4294
10711TIP3    H153548   1.852   3.151  13.771  0.1380  0.9760 -0.8417
10711TIP3    H253549   1.895   3.252  13.875 -0.5564  0.8003 -0.3740
10712TIP3   OH253550   1.357   1.880   4.446 -0.0554  0.1988 -0.1883
10712TIP3    H153551   1.351   1.934   4.525 -1.0803 -0.6263  0.3132
10712TIP3    H253552   1.267   1.861   4.423  0.2832 -1.7165 -0.0720
10713TIP3   OH253553   3.115   4.436  16.723  0.2456 -0.1596 -0.1156
10713TIP3    H153554   3.038   4.491  16.707  1.0022  1.4970  1.4715
10713TIP3    H253555   3.079   4.353  16.753 -0.9737  0.6226  0.7245
10714TIP3   OH253556   4.197   3.071   3.213  0.1294  1.1831  0.0642
10714TIP3    H153557   4.263   3.096   3.277  0.5556 -0.3621  0.2761
10714TIP3    H253558   4.186   2.977   3.226  1.6439  0.3887 -3.3945
10715TIP3   OH253559   2.678   4.036   3.678 -0.1200 -0.0502 -0.1152
10715TIP3    H153560   2.695   3.995   3.593  1.8206  0.9644 -0.2731
10715TIP3    H253561   2.654   3.963   3.736  2.9729 -1.4927 -0.4387
10716TIP3   OH253562   1.338   4.207  13.591  0.1559  0.3856 -0.0248
10716TIP3    H153563   1.338   4.196  13.496  0.3172  0.7226 -0.0677
10716TIP3    H253564   1.328   4.119  13.626 -0.7226  0.3419 -0.3639
10717TIP3   OH253565   6.335   5.072   2.283 -0.6017  0.2399 -0.0690
10717TIP3    H153566   6.257   5.122   2.306  0.0587  1.8471 -1.1776
10717TIP3    H253567   6.355   5.021   2.362 -1.1750  1.9024  1.1967
10718TIP3   OH253568   0.053   6.006   1.177 -0.4445 -0.0135  0.2010
10718TIP3    H153569  -0.042   5.997   1.185 -0.4406  0.8487  1.4669
10718TIP3    H253570   0.087   5.922   1.208 -0.8018 -0.5754 -0.8938
10719TIP3   OH253571   4.752   3.801   6.157  0.2744 -0.0203  0.4943
10719TIP3    H153572   4.798   3.811   6.241  0.1773  2.4765  0.3350
10719TIP3    H253573   4.677   3.745   6.177  1.1882 -0.8831  1.6522
10720TIP3   OH253574   4.919   5.041  10.729  0.1822  0.1751 -0.3876
10720TIP3    H153575   4.937   5.135  10.730 -0.5066  0.3238  1.8557
10720TIP3    H253576   5.002   5.002  10.701  0.6398  1.4146 -0.8480
10721TIP3   OH253577   4.565   3.850   5.336  0.4164 -0.0537 -0.3776
10721TIP3    H153578   4.543   3.903   5.412  1.0698  0.0825 -0.2843
10721TIP3    H253579   4.483   3.806   5.314  0.8781 -2.5912  2.3253
10722TIP3   OH253580   3.133   1.272  10.382 -0.6086 -0.4019  0.1671
10722TIP3    H153581   3.121   1.177  10.380 -0.7697 -0.4045 -2.1648
10722TIP3    H253582   3.045   1.307  10.399 -1.7414 -0.6797 -4.0041
10723TIP3   OH253583   4.099   0.085  12.010  0.0826  0.5256  0.3426
10723TIP3    H153584   4.071  -0.002  11.983  2.3476 -0.6961  1.5941
10723TIP3    H253585   4.033   0.114  12.072 -0.5993 -0.3960  0.0612
10724TIP3   OH253586   1.935   3.047  16.295  0.0108 -0.8017  0.5104
10724TIP3    H153587   1.889   3.061  16.213 -2.3111 -3.9845  1.0744
10724TIP3    H253588   1.984   3.128  16.310  0.4887 -0.0437 -3.8882
10725TIP3   OH253589   0.712   4.650  17.318  0.3855  0.0478 -0.1260
10725TIP3    H153590   0.641   4.590  17.339  1.0912 -1.5028 -1.8821
10725TIP3    H253591   0.676   4.737  17.334 -1.5043 -0.7442  0.1406
10726TIP3   OH253592   5.067   1.401  14.525 -0.2637 -0.0992 -0.0917
10726TIP3    H153593   5.067   1.349  14.444  0.1440 -0.2889  0.0294
10726TIP3    H253594   5.153   1.387  14.563 -0.3241  0.2831  0.1932
10727TIP3   OH253595   2.301   1.404  14.700  0.4142 -0.1171 -0.3892
10727TIP3    H153596   2.367   1.473  14.700 -0.7129  1.0052 -0.6487
10727TIP3    H253597   2.239   1.429  14.769  0.3920 -1.2905  0.0398
10728TIP3   OH253598   0.582   4.578  11.877  0.1023 -0.0517 -0.7667
10728TIP3    H153599   0.601   4.653  11.821 -1.3764  1.1910  0.3195
10728TIP3    H253600   0.654   4.576  11.940  0.6773 -0.1890 -1.4183
10729TIP3   OH253601   1.759   3.796   6.279 -0.2146  0.1095  0.3377
10729TIP3    H153602   1.773   3.702   6.283 -0.1218  0.1382  0.7303
10729TIP3    H253603   1.665   3.807   6.293  0.1241  0.2257  3.2533
10730TIP3   OH253604   5.533   1.115  10.825 -0.0682 -0.8955 -0.4103
10730TIP3    H153605   5.450   1.084  10.861 -0.1652 -1.0941 -0.8089
10730TIP3    H253606   5.580   1.148  10.902 -1.4541  1.4166 -0.4598
10731TIP3   OH253607   6.391   4.018   1.480  0.6104  0.2018 -0.0069
10731TIP3    H153608   6.314   4.060   1.441 -0.4674 -2.7920 -1.4267
10731TIP3    H253609   6.357   3.971   1.556  1.3052 -0.0630  0.1467
10732TIP3   OH253610   5.710   3.095  12.837  0.3620 -0.5751  0.0489
10732TIP3    H153611   5.661   3.176  12.821 -1.4364 -1.7101 -0.5324
10732TIP3    H253612   5.785   3.123  12.889  0.4384  1.6283 -1.0788
10733TIP3   OH253613   4.089   2.056   2.011  0.3674 -0.5766 -0.0866
10733TIP3    H153614   3.997   2.064   2.037  0.8592  0.6074  1.3836
10733TIP3    H253615   4.098   2.117   1.938  0.6775  1.7173  1.7814
10734TIP3   OH253616   0.941   6.459  14.991 -0.0912  0.3113  0.4019
10734TIP3    H153617   0.982   6.453  15.077  0.9170  0.2243 -0.0680
10734TIP3    H253618   0.847   6.466  15.009 -0.1395 -1.9959  1.4525
10735TIP3   OH253619   3.228   3.518  11.696 -0.5354  0.4417  0.0718
10735TIP3    H153620   3.198   3.428  11.691 -0.8700  0.5427  0.2487
10735TIP3    H253621   3.304   3.515  11.755  0.8721 -0.0845 -1.6751
10736TIP3   OH253622   0.725   3.059  11.899  0.9196  0.3894  0.1931
10736TIP3    H153623   0.802   3.109  11.873  0.1096  1.1001 -0.9138
10736TIP3    H253624   0.704   3.006  11.822  1.3696 -1.1999  1.1206
10737TIP3   OH253625   4.987   0.830   2.507  0.2286 -0.2998 -0.2081
10737TIP3    H153626   5.012   0.803   2.595  3.0112 -0.4611 -0.9759
10737TIP3    H253627   4.914   0.890   2.520  0.8642  0.0321  2.2322
10738TIP3   OH253628   3.610   2.960  15.834 -0.3370  0.4758  0.3034
10738TIP3    H153629   3.678   2.978  15.769 -0.4440 -0.0151  0.0452
10738TIP3    H253630   3.648   2.893  15.891 -0.0778  1.2159  1.0227
10739TIP3   OH253631   1.457   5.793   4.850  0.2686 -0.0777 -0.5540
10739TIP3    H153632   1.411   5.862   4.802  1.2063  0.3862 -0.8280
10739TIP3    H253633   1.531   5.770   4.793  0.4604 -0.6978 -0.0695
10740TIP3   OH253634   1.530   1.439  11.183 -0.0489 -0.3528  0.5221
10740TIP3    H153635   1.596   1.481  11.238 -0.0918  0.1587  0.1904
10740TIP3    H253636   1.477   1.511  11.151  0.0235 -0.6412 -0.2526
10741TIP3   OH253637   6.595   0.273  12.373 -0.9110  0.5242  0.1212
10741TIP3    H153638   6.638   0.203  12.322 -1.0831 -1.1951  2.1785
10741TIP3    H253639   6.503   0.268  12.348 -1.0797 -0.6397  0.8787
10742TIP3   OH253640   3.985   1.752  12.627 -0.2310  0.0659  0.2549
10742TIP3    H153641   3.934   1.686  12.674 -0.7150  1.5928  2.0042
10742TIP3    H253642   3.938   1.765  12.545 -1.5556  0.0246  0.9795
10743TIP3   OH253643   3.383   1.642   3.820 -0.0604  0.5327  0.7862
10743TIP3    H153644   3.411   1.629   3.911 -0.7535 -0.3411  0.8879
10743TIP3    H253645   3.372   1.554   3.786 -1.1480  0.8513  0.2744
10744TIP3   OH253646   2.674   3.561   2.231  0.1836  0.3288 -0.1932
10744TIP3    H153647   2.681   3.655   2.246 -1.6736  0.0426  3.7552
10744TIP3    H253648   2.623   3.553   2.151  0.6583  2.6622 -0.8032
10745TIP3   OH253649   0.079   6.429  15.451  0.4898  0.3986  0.2951
10745TIP3    H153650  -0.016   6.413  15.455  0.0912  1.2408 -3.1538
10745TIP3    H253651   0.115   6.350  15.409  0.7588  1.5160 -1.6817
10746TIP3   OH253652   6.022   3.344  14.583 -0.0883 -0.0254 -0.7222
10746TIP3    H153653   6.071   3.337  14.501  1.0519 -2.2100  0.0431
10746TIP3    H253654   5.940   3.296  14.565  0.5605 -1.3144 -0.3558
10747TIP3   OH253655   1.782   6.619   4.672  0.3134  0.4129 -0.2227
10747TIP3    H153656   1.726   6.541   4.673  0.0447  0.6055  0.6058
10747TIP3    H253657   1.720   6.693   4.672  0.5511  0.6570 -1.7334
10748TIP3   OH253658   3.609   3.728  17.335 -0.2360  0.3816 -0.6068
10748TIP3    H153659   3.553   3.695  17.265 -1.5643  0.3304  0.4245
10748TIP3    H253660   3.694   3.688  17.320 -1.5746 -3.2000  0.2665
10749TIP3   OH253661   0.990   6.189   4.752 -0.4828 -0.0183  0.5276
10749TIP3    H153662   0.956   6.261   4.700  1.5065  0.7307  0.1761
10749TIP3    H253663   1.010   6.120   4.689 -0.7334 -0.2022  0.6475
10750TIP3   OH253664   2.851   0.838  12.654 -0.0095  0.6596  0.2425
10750TIP3    H153665   2.933   0.791  12.643 -1.0737 -1.0318 -1.0789
10750TIP3    H253666   2.838   0.884  12.571  0.5522  2.5818  1.1817
10751TIP3   OH253667   3.589   0.394  16.337 -0.3671 -0.0155 -0.2189
10751TIP3    H153668   3.518   0.362  16.282 -0.5202  0.2371 -0.1730
10751TIP3    H253669   3.609   0.322  16.396 -0.5231 -0.1215 -0.2950
10752TIP3   OH253670   5.204   4.746   6.015  0.2061  1.1589  0.0912
10752TIP3    H153671   5.278   4.703   5.973  0.5472  1.2664  0.5761
10752TIP3    H253672   5.212   4.724   6.108 -0.7252  0.6527  0.0640
10753TIP3   OH253673   3.862   1.600   5.740  0.7164 -0.1073 -0.6578
10753TIP3    H153674   3.944   1.584   5.695  1.6215  0.4139  0.7169
10753TIP3    H253675   3.795   1.565   5.682  1.7630  0.8565 -2.5437
10754TIP3   OH253676   6.425   2.909   0.931 -0.5499  0.2879  0.0468
10754TIP3    H153677   6.462   2.983   0.978 -0.8435 -0.4060  1.3972
10754TIP3    H253678   6.447   2.926   0.839  0.5158  1.3820  0.4820
10755TIP3   OH253679   3.704   1.039  17.310  0.4413  0.4133  0.3572
10755TIP3    H153680   3.659   1.007  17.388  0.5360  0.5110  0.4522
10755TIP3    H253681   3.647   1.108  17.276 -0.6802 -1.0716 -0.8865
10756TIP3   OH253682   2.518   2.517  13.906  0.1612  0.4743  0.0104
10756TIP3    H153683   2.533   2.501  13.999  0.0486  1.5568  0.2331
10756TIP3    H253684   2.437   2.470  13.886  0.9103 -0.8946  0.1133
10757TIP3   OH253685   2.990   0.356   3.327  0.2541 -0.2403 -0.4077
10757TIP3    H153686   2.965   0.436   3.281 -1.7002  0.2047  1.2515
10757TIP3    H253687   3.069   0.381   3.376 -0.2183  0.6402 -0.0626
10758TIP3   OH253688   2.363   0.301  16.132  0.0108  0.2012 -0.0482
10758TIP3    H153689   2.456   0.315  16.117  0.0624 -0.8806 -0.9116
10758TIP3    H253690   2.331   0.266  16.048 -1.1261  0.3673  0.3058
10759TIP3   OH253691   6.236   5.043  13.925 -0.5583  0.1088  0.5688
10759TIP3    H153692   6.267   5.101  13.856 -0.8186  0.1383  0.4776
10759TIP3    H253693   6.306   5.044  13.990 -1.1952  1.7020  1.2859
10760TIP3   OH253694   0.257   6.167   3.868  0.0249 -0.8699 -0.0557
10760TIP3    H153695   0.163   6.179   3.853  0.1484 -0.1673 -0.3092
10760TIP3    H253696   0.283   6.242   3.920  0.6770 -0.4205 -1.0069
10761TIP3   OH253697   4.601   5.214  16.471  0.4674  0.0689 -0.3731
10761TIP3    H153698   4.514   5.254  16.471 -0.2634 -1.4402  0.1123
10761TIP3    H253699   4.590   5.133  16.421  1.6977  0.0684 -0.6707
10762TIP3   OH253700   6.755   4.363   2.504  0.4566 -0.6267  0.1288
10762TIP3    H153701   6.726   4.391   2.417 -1.1455 -1.5814  0.3096
10762TIP3    H253702   6.788   4.274   2.490 -0.7459 -1.1777  0.6210
10763TIP3   OH253703   4.883   1.210  16.576  0.3003 -0.8934  0.1816
10763TIP3    H153704   4.892   1.127  16.528 -0.3397 -1.2288  0.6251
10763TIP3    H253705   4.963   1.216  16.629  0.9786 -0.5594 -0.8456
10764TIP3   OH253706   4.874   4.451   1.034 -0.4111 -0.3488  0.2490
10764TIP3    H153707   4.957   4.472   0.991  0.1864 -1.5214  0.7926
10764TIP3    H253708   4.869   4.355   1.033 -1.2232 -0.3356  1.2187
10765TIP3   OH253709   6.451   5.497   0.300 -0.3531 -0.2878 -0.8106
10765TIP3    H153710   6.429   5.502   0.393 -2.8209  0.7462 -1.3887
10765TIP3    H253711   6.473   5.586   0.275 -0.5059 -0.4146 -1.4128
10766TIP3   OH253712   6.705   4.377  14.232 -0.0415  0.0169 -0.2054
10766TIP3    H153713   6.787   4.367  14.280 -0.2875 -1.0778  0.0258
10766TIP3    H253714   6.641   4.329  14.285 -0.1640 -1.9251 -1.9974
10767TIP3   OH253715   5.251   5.750   6.335  0.3097 -0.1105 -0.3634
10767TIP3    H153716   5.217   5.795   6.412  0.4788  0.2184 -0.4798
10767TIP3    H253717   5.175   5.742   6.277  0.6926  1.9057 -1.2360
10768TIP3   OH253718   4.626   2.616   1.824 -0.3261  0.2040  0.5765
10768TIP3    H153719   4.557   2.682   1.825  0.9540  1.5897  1.6750
10768TIP3    H253720   4.696   2.653   1.878  1.6296 -0.7549 -1.1461
10769TIP3   OH253721   5.879   2.434   2.669 -0.2370 -0.0177 -0.1045
10769TIP3    H153722   5.875   2.389   2.754  0.0497  0.0485 -0.0551
10769TIP3    H253723   5.878   2.363   2.605 -0.5913 -0.0632 -0.0508
10770TIP3   OH253724   5.723   1.928   6.245  0.3297  0.2035  0.2122
10770TIP3    H153725   5.651   1.950   6.304  0.3275  1.7933 -0.3404
10770TIP3    H253726   5.687   1.939   6.157  0.9894  0.1730 -0.0686
10771TIP3   OH253727   4.542   1.660  10.333 -0.0316 -0.3172  0.1620
10771TIP3    H153728   4.634   1.666  10.308 -0.1219  1.5722  0.1415
10771TIP3    H253729   4.503   1.602  10.268  1.1396 -1.2476  0.2449
10772TIP3   OH253730   5.102   0.788   3.318 -0.0422 -0.9594 -0.5389
10772TIP3    H153731   5.020   0.837   3.313  1.2091  1.2214 -1.0880
10772TIP3    H253732   5.144   0.821   3.398  0.5251 -1.6700 -0.5378
10773TIP3   OH253733   2.511   2.508   4.029 -0.0500  0.1571  0.3437
10773TIP3    H153734   2.524   2.547   3.942  0.3014 -1.5167 -0.3764
10773TIP3    H253735   2.515   2.414   4.015  0.5092 -0.1475  2.2694
10774TIP3   OH253736   4.041   1.409  13.650 -0.7808 -0.3779 -0.1297
10774TIP3    H153737   4.070   1.398  13.740 -1.0194 -0.2947 -0.0417
10774TIP3    H253738   4.002   1.325  13.626  0.7745 -0.9715 -0.7157
10775TIP3   OH253739   5.078   3.143   5.686  0.4146  0.3062 -0.3665
10775TIP3    H153740   5.064   3.235   5.666  4.6856  1.1035 -0.4434
10775TIP3    H253741   5.029   3.097   5.618 -2.5132  2.3580  0.1575
10776TIP3   OH253742   2.529   1.066   1.152  0.1174 -0.1405  0.2297
10776TIP3    H153743   2.621   1.089   1.159  0.4610 -0.0306 -3.2037
10776TIP3    H253744   2.524   0.976   1.186  1.2121  0.2764  1.5780
10777TIP3   OH253745   4.655   2.769  11.237 -0.1305 -0.0426  0.3050
10777TIP3    H153746   4.635   2.816  11.156 -0.4483  0.3744  0.6174
10777TIP3    H253747   4.636   2.832  11.307  0.2947 -0.3397  0.7009
10778TIP3   OH253748   5.150   3.971  13.053  0.0804 -0.1043  0.3418
10778TIP3    H153749   5.167   3.920  13.132 -0.9191 -0.3695  0.3967
10778TIP3    H253750   5.055   3.982  13.051  0.0797 -0.2188 -0.9014
10779TIP3   OH253751   1.665   3.082  14.678  0.5406 -0.3508  0.6521
10779TIP3    H153752   1.578   3.115  14.658 -0.4840 -2.0731  1.9822
10779TIP3    H253753   1.705   3.063  14.593 -0.3085  0.5583  0.0325
10780TIP3   OH253754   3.999   0.372  14.747 -0.2334  0.1089  0.3180
10780TIP3    H153755   4.023   0.325  14.667  0.8446  0.8533  0.1969
10780TIP3    H253756   3.924   0.425  14.721 -0.0750  0.1249 -0.1200
10781TIP3   OH253757   3.614   1.708  13.182 -0.1507  0.0380 -0.3218
10781TIP3    H153758   3.644   1.798  13.191 -3.0851  1.0526  0.4246
10781TIP3    H253759   3.524   1.709  13.216 -1.0198 -2.7128 -2.1732
10782TIP3   OH253760   5.357   1.213   5.828 -0.2026 -0.0356 -0.0175
10782TIP3    H153761   5.406   1.138   5.862 -0.7608 -0.8223 -0.8975
10782TIP3    H253762   5.281   1.221   5.886  0.2273  0.3160  0.5103
10783TIP3   OH253763   6.041   3.674  10.382  0.6684  0.0350 -0.1262
10783TIP3    H153764   6.011   3.763  10.401  2.6153  1.4559 -3.0617
10783TIP3    H253765   6.085   3.646  10.462 -0.8077  1.2623  1.1910
10784TIP3   OH253766   6.368   3.826  11.382  0.4178 -0.1725  0.0813
10784TIP3    H153767   6.311   3.844  11.307  1.2614 -0.5801 -0.6813
10784TIP3    H253768   6.311   3.783  11.446 -0.9186  2.3860  0.7436
10785TIP3   OH253769   3.870   3.892  11.577 -0.5742  0.6241 -0.2746
10785TIP3    H153770   3.914   3.975  11.559 -1.3497  0.9488 -0.7392
10785TIP3    H253771   3.940   3.833  11.605  0.1175  1.1847 -0.7798
10786TIP3   OH253772   2.108   5.955  16.638 -0.0845  0.0108  0.3421
10786TIP3    H153773   2.082   5.863  16.646 -2.0831  0.5142  0.1409
10786TIP3    H253774   2.061   6.000  16.708  0.0733  1.0198 -0.1712
10787TIP3   OH253775   0.342   4.824  14.937 -0.2307  0.5128  0.6714
10787TIP3    H153776   0.389   4.752  14.979 -0.2656  0.4117  0.5389
10787TIP3    H253777   0.410   4.874  14.892 -0.3218 -0.0320 -0.1061
10788TIP3   OH253778   2.841   0.604  10.477 -0.5825 -0.7035 -0.6063
10788TIP3    H153779   2.840   0.555  10.395 -0.8535 -2.2527  0.2972
10788TIP3    H253780   2.860   0.694  10.451  0.7116 -1.4147 -2.2352
10789TIP3   OH253781   4.401   5.826  16.718  0.8959  0.3925 -0.0303
10789TIP3    H153782   4.491   5.856  16.713  0.9045  0.5102  0.7194
10789TIP3    H253783   4.408   5.736  16.751  0.8327 -0.2276 -1.6288
10790TIP3   OH253784   0.413   4.154   2.357 -0.0639 -0.2676  0.2414
10790TIP3    H153785   0.442   4.085   2.297  0.2686 -0.9306  1.1400
10790TIP3    H253786   0.322   4.169   2.334  0.3947  0.3653 -1.2398
10791TIP3   OH253787   4.997   6.320   2.416  0.3786 -0.7139 -0.0775
10791TIP3    H153788   4.999   6.368   2.333  0.9162 -1.6686 -0.6280
10791TIP3    H253789   4.907   6.289   2.423  0.6179 -1.6724 -0.9357
10792TIP3   OH253790   0.442   5.509   3.631  0.5353 -0.5929 -0.6664
10792TIP3    H153791   0.492   5.432   3.603 -0.3746 -1.4618  0.0190
10792TIP3    H253792   0.489   5.542   3.707  0.7515 -0.6575 -0.7707
10793TIP3   OH253793   2.217   3.483  12.841  0.2528 -0.0803 -0.2621
10793TIP3    H153794   2.290   3.498  12.901 -0.8256  0.2643  0.9879
10793TIP3    H253795   2.257   3.486  12.754  1.5369  1.2822  0.3416
10794TIP3   OH253796   0.259   5.792   3.147 -0.0847  0.7732 -0.6990
10794TIP3    H153797   0.344   5.822   3.178 -1.3066 -0.0321  4.1483
10794TIP3    H253798   0.197   5.855   3.182 -1.7140  0.1930 -2.3727
10795TIP3   OH253799   4.745   6.081   2.096 -0.3112 -0.0101 -0.5171
10795TIP3    H153800   4.747   6.041   2.183  1.0505 -0.1609 -0.5870
10795TIP3    H253801   4.686   6.026   2.045 -1.6037  0.4322  0.4550
10796TIP3   OH253802   0.903   5.138   3.911  0.1094  0.8244  0.7111
10796TIP3    H153803   0.838   5.200   3.876  1.5974  2.0337 -0.0263
10796TIP3    H253804   0.900   5.152   4.006 -2.8493 -1.3756  1.0890
10797TIP3   OH253805   0.235   4.042  15.961  0.5234 -0.0694 -0.0726
10797TIP3    H153806   0.291   4.040  15.883 -1.3288 -0.0660 -1.4829
10797TIP3    H253807   0.164   4.102  15.938 -0.2334 -0.3162  1.5078
10798TIP3   OH253808   2.602   1.707   2.229 -0.7725  0.1116  0.4184
10798TIP3    H153809   2.533   1.755   2.275 -0.6079  1.1145 -0.3500
10798TIP3    H253810   2.639   1.649   2.295 -0.4337  1.6344  1.6241
10799TIP3   OH253811   4.893   4.012  10.779 -0.3535  0.0436  0.0205
10799TIP3    H153812   4.810   4.051  10.752 -0.0006  0.8174  0.0196
10799TIP3    H253813   4.960   4.070  10.742  0.1521  0.8188  1.9749
10800TIP3   OH253814   5.160   2.019   0.599 -0.4139 -0.1559  0.8634
10800TIP3    H153815   5.195   2.075   0.529 -0.9714 -0.7247  0.1076
10800TIP3    H253816   5.066   2.013   0.581 -0.0498 -3.5799 -0.8166
10801TIP3   OH253817   6.190   2.193   4.988 -0.4359 -0.1809  0.3195
10801TIP3    H153818   6.234   2.259   5.042  0.8652 -1.3200  0.7251
10801TIP3    H253819   6.143   2.243   4.922  0.3375  1.1540  0.7493
10802TIP3   OH253820   6.272   1.230  16.174  0.0721  0.8067 -0.2206
10802TIP3    H153821   6.261   1.137  16.195  0.6063  0.9562  0.7398
10802TIP3    H253822   6.187   1.256  16.138 -0.5994  0.3350  0.9846
10803TIP3   OH253823   5.065   0.203  14.196 -0.5166  0.0986 -0.0595
10803TIP3    H153824   5.156   0.185  14.222 -0.7458 -0.8310  0.1356
10803TIP3    H253825   5.013   0.180  14.272 -0.9572  0.2177 -0.3199
10804TIP3   OH253826   5.226   5.203  12.651 -0.1450 -0.0442  0.0176
10804TIP3    H153827   5.225   5.185  12.745  2.1355 -3.1542 -0.3770
10804TIP3    H253828   5.305   5.256  12.637 -1.2498  1.6670 -0.0679
10805TIP3   OH253829   5.923   5.543  15.726  0.8254 -0.2017 -0.2219
10805TIP3    H153830   6.009   5.550  15.683  0.0025  0.6263 -1.8207
10805TIP3    H253831   5.866   5.505  15.659 -0.1440 -0.4244  0.7058
10806TIP3   OH253832   3.247   0.125  17.306 -0.5922  0.6015  1.1244
10806TIP3    H153833   3.331   0.152  17.267 -0.7667  1.9823  1.6268
10806TIP3    H253834   3.268   0.109  17.398 -0.5147 -0.9999  0.8543
10807TIP3   OH253835   0.435   2.709   0.615  0.0718 -0.3657 -0.1626
10807TIP3    H153836   0.341   2.718   0.631  0.0517  2.0408 -1.0830
10807TIP3    H253837   0.455   2.780   0.554  2.1382 -2.0973 -1.6501
10808TIP3   OH253838   2.366   4.162  13.204  0.0719 -0.0418 -0.2109
10808TIP3    H153839   2.304   4.219  13.249  2.2065  1.5376  0.9055
10808TIP3    H253840   2.427   4.221  13.161  0.6658 -1.5187 -1.4962
10809TIP3   OH253841   0.334   3.861   4.441  0.5079 -0.3290 -0.4365
10809TIP3    H153842   0.324   3.880   4.534  3.0881 -0.7755  0.0140
10809TIP3    H253843   0.428   3.848   4.429  0.1613 -1.1249 -2.9540
10810TIP3   OH253844   0.941   1.345  13.963 -0.4760 -0.0040 -0.0703
10810TIP3    H153845   0.972   1.263  13.925  0.2248  0.6155 -0.8564
10810TIP3    H253846   0.846   1.344  13.949 -0.2647  0.0956 -1.6368
10811TIP3   OH253847   5.605   3.115   1.701 -0.3424 -0.4306 -0.7679
10811TIP3    H153848   5.589   3.140   1.791  1.3496 -0.2917 -0.4629
10811TIP3    H253849   5.560   3.031   1.691 -0.6086 -0.4100  0.1704
10812TIP3   OH253850   6.546   5.989   4.584 -0.3092  0.1723  0.1246
10812TIP3    H153851   6.466   5.993   4.532  0.4926  1.9445 -1.0864
10812TIP3    H253852   6.522   5.939   4.662 -2.8435  1.3996  0.2237
10813TIP3   OH253853   0.304   5.843  11.069  0.4563 -0.2822  0.1941
10813TIP3    H153854   0.365   5.770  11.075  0.7224  0.0144  1.7053
10813TIP3    H253855   0.280   5.848  10.977  1.3684 -1.5023 -0.1298
10814TIP3   OH253856   5.171   6.204  14.387  0.6147 -0.4557 -0.0130
10814TIP3    H153857   5.256   6.162  14.374  0.7017 -0.6394  1.0372
10814TIP3    H253858   5.192   6.297  14.397  0.6416 -0.4366 -0.2452
10815TIP3   OH253859   1.690   1.212  12.032 -0.3129  0.4988  0.0290
10815TIP3    H153860   1.605   1.170  12.015 -0.3892 -1.2162  3.6213
10815TIP3    H253861   1.683   1.243  12.123  2.4804  1.5228 -0.0094
10816TIP3   OH253862   1.081   4.279  12.625  0.8278  0.1959  0.3312
10816TIP3    H153863   1.069   4.325  12.542 -0.4248  0.5256  0.6735
10816TIP3    H253864   1.138   4.205  12.603 -0.7608 -0.6580 -1.1886
10817TIP3   OH253865   1.271   2.136   5.357  0.1151  0.3724 -0.2982
10817TIP3    H153866   1.191   2.088   5.335  0.4209 -0.6700  0.7735
10817TIP3    H253867   1.341   2.088   5.313  0.7188 -1.6641  2.6058
10818TIP3   OH253868   3.228   2.033  12.885 -0.5081  0.8494  0.6020
10818TIP3    H153869   3.287   2.066  12.953  2.2175  0.5449 -1.4568
10818TIP3    H253870   3.213   2.108  12.828 -0.6507  0.4561  0.1170
10819TIP3   OH253871   4.827   1.625   6.553  0.0829  0.1180  0.2505
10819TIP3    H153872   4.865   1.660   6.634  1.3589  3.5296 -1.6265
10819TIP3    H253873   4.902   1.594   6.503 -0.7181 -2.1654  0.3737
10820TIP3   OH253874   0.435   5.489   5.033 -0.6371 -0.1990  0.2512
10820TIP3    H153875   0.340   5.492   5.035 -0.6282 -0.1327  1.5061
10820TIP3    H253876   0.460   5.453   5.118  0.4266 -1.3689 -0.5134
10821TIP3   OH253877   5.595   1.709  15.001 -0.7231  0.2456  0.8829
10821TIP3    H153878   5.691   1.715  15.001 -0.7181  0.5164  2.3436
10821TIP3    H253879   5.572   1.700  15.093 -2.0304 -1.3497  0.4414
10822TIP3   OH253880   2.227   1.649   2.913  0.6230 -0.5779  0.1637
10822TIP3    H153881   2.146   1.696   2.931  0.7597  0.3829 -1.5339
10822TIP3    H253882   2.280   1.711   2.863  2.2708 -1.3232  0.9106
10823TIP3   OH253883   1.346   5.036   2.649 -0.5720  0.1313 -0.0623
10823TIP3    H153884   1.422   5.004   2.697 -0.4738 -0.2808 -0.4843
10823TIP3    H253885   1.291   5.079   2.715 -1.0761 -1.5573  0.6666
10824TIP3   OH253886   0.845   3.513  14.785  0.0535 -0.1105 -0.8207
10824TIP3    H153887   0.753   3.491  14.775 -0.9667  2.9581  0.4331
10824TIP3    H253888   0.866   3.490  14.876  0.3721 -0.3470 -0.9523
10825TIP3   OH253889   3.523   4.553   5.409  0.3485 -0.0484 -0.0266
10825TIP3    H153890   3.592   4.540   5.474 -1.4474 -0.0045  1.9732
10825TIP3    H253891   3.481   4.635   5.435 -0.8464 -0.3852 -0.8329
10826TIP3   OH253892   5.464   5.738  16.722 -0.0208 -0.3591 -0.1300
10826TIP3    H153893   5.510   5.818  16.747  0.6053 -0.5919 -0.5248
10826TIP3    H253894   5.513   5.704  16.647 -1.1419 -0.3266 -0.9080
10827TIP3   OH253895   1.856   1.934  13.398  0.0729  0.0225 -0.2040
10827TIP3    H153896   1.864   2.002  13.331  0.6325  0.6757  0.5122
10827TIP3    H253897   1.939   1.887  13.394 -0.4894 -0.9375 -1.0164
10828TIP3   OH253898   0.647   2.984  15.352  0.3863 -0.0445  0.6786
10828TIP3    H153899   0.567   2.970  15.302  1.1673 -1.2691 -0.3040
10828TIP3    H253900   0.623   3.048  15.419 -0.5543  2.2537 -1.6726
10829TIP3   OH253901   5.977   5.972  14.268  0.0702 -0.0176  0.5680
10829TIP3    H153902   6.006   6.047  14.321  1.0647  0.1418 -0.1811
10829TIP3    H253903   6.056   5.943  14.223 -0.6847 -0.3828 -0.5449
10830TIP3   OH253904   2.422   0.540  13.008 -0.3605  0.0211  0.6448
10830TIP3    H153905   2.427   0.523  13.102 -0.9996 -0.3165  0.6263
10830TIP3    H253906   2.356   0.478  12.977 -0.4644  0.4307  0.0454
10831TIP3   OH253907   1.694   3.720   4.689 -0.4300 -0.0401  1.0280
10831TIP3    H153908   1.646   3.659   4.744 -1.2661 -0.1457  0.2088
10831TIP3    H253909   1.686   3.804   4.735  0.0447 -0.3681  1.7429
10832TIP3   OH253910   0.568   2.558   3.603  0.9274 -0.4985 -0.6866
10832TIP3    H153911   0.534   2.471   3.580 -0.0374  0.1815 -1.9706
10832TIP3    H253912   0.538   2.573   3.693 -1.5999 -0.2608 -1.4875
10833TIP3   OH253913   2.147   3.821  13.507  0.2918 -0.5494  0.2847
10833TIP3    H153914   2.229   3.868  13.489 -0.9185  0.5673 -3.2780
10833TIP3    H253915   2.131   3.771  13.426 -1.3175 -2.7776  1.8527
10834TIP3   OH253916   5.967   0.237  12.525  0.7209 -0.6269 -0.3897
10834TIP3    H153917   5.872   0.224  12.531  0.4666  1.2185  0.3749
10834TIP3    H253918   5.989   0.215  12.435 -1.2582  3.0829 -1.9949
10835TIP3   OH253919   3.462   4.306   5.680 -0.5034 -0.1694 -0.6304
10835TIP3    H153920   3.416   4.275   5.602 -0.5092 -1.6850 -0.0559
10835TIP3    H253921   3.405   4.282   5.753 -0.1331  0.5264 -0.0954
10836TIP3   OH253922   5.109   6.479   5.250  0.5239  0.1883 -0.1678
10836TIP3    H153923   5.181   6.513   5.303  1.3929  1.2521 -1.9547
10836TIP3    H253924   5.043   6.549   5.252  0.5070  0.1794 -0.3844
10837TIP3   OH253925   5.976   0.951  17.097 -0.1315 -0.1690  0.4448
10837TIP3    H153926   5.930   0.924  17.176 -0.6886  0.8557  0.4914
10837TIP3    H253927   6.037   0.880  17.078 -0.6379 -0.8340  1.2767
10838TIP3   OH253928   2.781   0.538   3.622  0.0569 -0.2306 -0.2892
10838TIP3    H153929   2.690   0.550   3.648  0.1545  1.4150 -0.6471
10838TIP3    H253930   2.776   0.482   3.544 -0.4857 -1.8514  0.8596
10839TIP3   OH253931   3.894   5.598  11.745 -0.4279  0.1733 -0.5947
10839TIP3    H153932   3.800   5.583  11.736 -0.2457 -1.6817  0.1141
10839TIP3    H253933   3.929   5.512  11.768  1.3892  0.9303 -0.4232
10840TIP3   OH253934   1.012   3.586  16.303 -0.1120  0.2263  0.5159
10840TIP3    H153935   1.074   3.580  16.375 -0.6670  1.7308  1.1662
10840TIP3    H253936   0.927   3.600  16.346 -0.6403 -0.0549 -0.4046
10841TIP3   OH253937   5.965   1.023  11.825 -0.5821  0.6202 -0.1180
10841TIP3    H153938   5.938   0.933  11.807  0.6891  0.2312 -0.2401
10841TIP3    H253939   6.049   1.032  11.780 -0.7728  1.9295 -0.2435
10842TIP3   OH253940   2.684   3.528   5.609  0.3483 -0.2526 -0.1040
10842TIP3    H153941   2.743   3.465   5.650  0.5433 -0.6719 -1.0038
10842TIP3    H253942   2.742   3.597   5.575 -0.0245  1.9508  3.3183
10843TIP3   OH253943   5.885   4.547   4.946 -0.2036 -0.0939 -0.1903
10843TIP3    H153944   5.862   4.455   4.957  2.5651 -0.8125  0.4326
10843TIP3    H253945   5.842   4.591   5.020  0.4576 -1.3340  0.9759
10844TIP3   OH253946   2.133   4.530   1.416 -0.3853 -0.2186  0.2402
10844TIP3    H153947   2.155   4.570   1.500 -2.4011  0.6476  0.4224
10844TIP3    H253948   2.057   4.476   1.435 -0.1482 -0.9439 -0.8240
10845TIP3   OH253949   5.906   0.240  15.737 -0.0335 -0.1014  0.4694
10845TIP3    H153950   5.828   0.230  15.682  0.1311  0.8048  0.0661
10845TIP3    H253951   5.873   0.228  15.827 -0.5192 -0.3508  0.2628
10846TIP3   OH253952   1.325   6.173  11.395  0.2681 -0.0904 -0.1444
10846TIP3    H153953   1.238   6.134  11.405  0.7185 -1.0597  0.0888
10846TIP3    H253954   1.313   6.264  11.421 -0.3986 -0.5441  1.2233
10847TIP3   OH253955   3.885   3.808  14.402  0.0988  1.0739  0.7338
10847TIP3    H153956   3.925   3.735  14.449  1.8312  1.4835 -0.0186
10847TIP3    H253957   3.857   3.868  14.470  1.0401  0.8919  1.2982
10848TIP3   OH253958   4.780   3.686   2.798  0.9162  1.2628 -0.4563
10848TIP3    H153959   4.850   3.640   2.844  1.0624 -0.2465 -2.0837
10848TIP3    H253960   4.776   3.644   2.712 -0.2584  3.0507 -1.3415
10849TIP3   OH253961   6.169   6.426   2.912 -0.1667  0.4907 -0.2337
10849TIP3    H153962   6.180   6.332   2.924 -1.3879  0.3390 -0.1802
10849TIP3    H253963   6.244   6.453   2.860 -0.1257 -0.6300 -0.7774
10850TIP3   OH253964   1.642   6.126   3.809 -0.4640  0.0241  0.0354
10850TIP3    H153965   1.668   6.091   3.894  0.9442 -1.2289 -0.8582
10850TIP3    H253966   1.658   6.220   3.816  1.1400 -0.2581  0.6853
10851TIP3   OH253967   0.683   0.210  14.119  0.4239  0.3220  0.2795
10851TIP3    H153968   0.663   0.136  14.061  1.1216  0.8556 -0.6811
10851TIP3    H253969   0.757   0.254  14.077  1.2827  0.4529  1.8564
10852TIP3   OH253970   1.981   3.098  14.238 -0.3644  0.4309 -0.2036
10852TIP3    H153971   1.988   3.184  14.198  1.8315  0.3163 -0.1537
10852TIP3    H253972   1.995   3.036  14.166 -1.0445  0.1255 -0.0795
10853TIP3   OH253973   5.886   1.143  14.752 -0.8632  0.0886 -0.2707
10853TIP3    H153974   5.949   1.071  14.762 -0.5141  0.0575 -2.2814
10853TIP3    H253975   5.821   1.126  14.820  1.2738  0.1778  1.9760
10854TIP3   OH253976   3.869   3.462  13.405 -0.6965  0.4071  0.0317
10854TIP3    H153977   3.963   3.474  13.386 -0.6838  0.6846  0.2593
10854TIP3    H253978   3.866   3.394  13.471 -0.7976 -1.2876 -1.6431
10855TIP3   OH253979   4.880   3.387  12.499 -0.1924  0.6420 -0.3321
10855TIP3    H153980   4.887   3.471  12.453 -0.3817  0.4178 -0.7688
10855TIP3    H253981   4.951   3.389  12.563  0.9994  0.3443 -1.5984
10856TIP3   OH253982   1.688   3.190  16.556  0.0451  0.3737  0.4143
10856TIP3    H153983   1.642   3.266  16.594 -0.4573 -0.5264  1.6677
10856TIP3    H253984   1.767   3.181  16.608  0.8972  0.9419 -0.7261
10857TIP3   OH253985   2.031   2.636   0.037  0.3092  0.5573  0.4093
10857TIP3    H153986   1.957   2.692   0.059 -0.2527 -0.3094  0.7671
10857TIP3    H253987   2.089   2.642   0.113 -0.0962  0.0924  0.7596
10858TIP3   OH253988   4.890   3.039  12.757 -0.2068  0.1206  0.8265
10858TIP3    H153989   4.851   3.105  12.814 -1.7644 -0.1368  0.1020
10858TIP3    H253990   4.826   3.027  12.687 -0.0825 -2.3344  1.0657
10859TIP3   OH253991   3.560   1.598  11.787 -0.3367  0.1473 -1.2044
10859TIP3    H153992   3.608   1.642  11.717  1.1051 -0.5078 -0.6772
10859TIP3    H253993   3.601   1.512  11.793 -0.7836  0.0049  0.0864
10860TIP3   OH253994   4.016   4.287  10.123  0.5200 -0.3940  0.5247
10860TIP3    H153995   3.979   4.245  10.045  1.4961 -1.1970  0.4800
10860TIP3    H253996   3.939   4.313  10.174 -0.1257 -0.3821 -0.4234
10861TIP3   OH253997   5.143   1.261  16.750  0.4601 -0.4282  0.4347
10861TIP3    H153998   5.218   1.279  16.807  0.5602 -0.0983  0.2059
10861TIP3    H253999   5.090   1.340  16.755  0.7567 -0.1676 -0.3639
10862TIP3   OH254000   5.779   1.128   0.765 -0.3530  0.2213 -0.2302
10862TIP3    H154001   5.845   1.067   0.798  1.4650  0.8927 -2.3118
10862TIP3    H254002   5.721   1.145   0.839  1.0530 -1.4261  1.3220
10863TIP3   OH254003   0.607   3.673  12.318 -0.2543 -0.2104  0.0264
10863TIP3    H154004   0.524   3.680  12.365  0.0911 -0.9227  0.7646
10863TIP3    H254005   0.658   3.609  12.368  1.6899  1.9456  0.9782
10864TIP3   OH254006   5.198   5.792  14.419 -0.0028  0.7281  0.4095
10864TIP3    H154007   5.222   5.785  14.326  0.2805 -1.4409  0.5769
10864TIP3    H254008   5.242   5.871  14.450  1.7929  0.2581 -0.7903
10865TIP3   OH254009   4.272   3.062   2.313  0.4435 -0.3965  0.1960
10865TIP3    H154010   4.363   3.042   2.334  1.2439  2.1491 -0.4490
10865TIP3    H254011   4.248   3.129   2.377 -0.3072  0.3504 -0.8450
10866TIP3   OH254012   0.609   1.760   6.088 -0.4269 -0.4885 -0.2544
10866TIP3    H154013   0.553   1.711   6.028 -0.1928 -0.1565 -0.7579
10866TIP3    H254014   0.692   1.712   6.088  0.2677  0.6068 -1.8094
10867TIP3   OH254015   4.593   4.036   4.979 -0.1133 -0.0588  0.5342
10867TIP3    H154016   4.567   3.944   4.986 -1.8871  0.3157 -0.4690
10867TIP3    H254017   4.519   4.079   4.936  0.9525  1.7252  0.3551
10868TIP3   OH254018   2.095   3.879  10.376  0.0570  0.6777  0.1889
10868TIP3    H154019   2.162   3.817  10.404  0.5280  1.0583 -0.0827
10868TIP3    H254020   2.013   3.845  10.413 -0.0005 -1.1347 -1.4736
10869TIP3   OH254021   4.360   6.046  13.855 -0.2726 -0.4762  0.4745
10869TIP3    H154022   4.357   6.109  13.927  1.8216  0.4000 -0.1263
10869TIP3    H254023   4.414   5.974  13.888  0.3339 -0.2716 -0.0547
10870TIP3   OH254024   3.365   4.123   6.431  0.3628  0.2084 -0.1287
10870TIP3    H154025   3.278   4.121   6.389  0.6345 -0.2898 -0.6769
10870TIP3    H254026   3.346   4.135   6.524 -0.3872 -1.7620  0.0187
10871TIP3   OH254027   2.075   2.118  17.009 -0.5753  0.6424  0.1460
10871TIP3    H154028   2.117   2.175  16.944  0.5002 -1.3799 -1.0239
10871TIP3    H254029   2.148   2.074  17.053 -1.3786 -0.3402  0.5259
10872TIP3   OH254030   1.045   1.881  15.398  0.2794 -0.5143 -0.0108
10872TIP3    H154031   1.083   1.840  15.477  0.4524 -0.8032 -0.2427
10872TIP3    H254032   1.116   1.879  15.334 -0.2797 -1.5434 -0.6288
10873TIP3   OH254033   4.896   5.960  14.066  0.2226  0.0281 -0.0216
10873TIP3    H154034   4.852   6.009  13.997 -0.9701 -0.5241  0.3102
10873TIP3    H254035   4.904   6.021  14.138  1.7659  0.7074 -0.7214
10874TIP3   OH254036   5.127   2.017   5.170 -0.1483  0.0798  0.1825
10874TIP3    H154037   5.112   2.112   5.172  1.8629  0.4516  2.4098
10874TIP3    H254038   5.222   2.008   5.162 -0.3347 -1.7725 -0.2803
10875TIP3   OH254039   3.439   5.326  16.918  0.4897 -0.4026 -0.3387
10875TIP3    H154040   3.527   5.306  16.885  0.6724  1.5158 -1.1404
10875TIP3    H254041   3.383   5.259  16.878  1.1501  0.1578 -2.3311
10876TIP3   OH254042   5.354   5.722  10.923  0.0153 -0.0089 -0.0082
10876TIP3    H154043   5.378   5.751  11.011  0.2700 -0.6941  0.1566
10876TIP3    H254044   5.437   5.714  10.877  0.0918 -1.8024  0.3771
10877TIP3   OH254045   4.632   5.929  16.651 -0.1402  0.0771  0.2063
10877TIP3    H154046   4.588   6.007  16.619  0.7557 -0.0342 -1.3946
10877TIP3    H254047   4.667   5.886  16.572 -0.5900 -1.9281  1.0263
10878TIP3   OH254048   3.973   1.061  14.329  0.1604 -0.1846 -0.2467
10878TIP3    H154049   4.015   1.085  14.412  1.4195 -1.1642 -0.5681
10878TIP3    H254050   3.882   1.088  14.339  0.7938  1.8487  0.5610
10879TIP3   OH254051   3.713   5.550   4.597  0.1721  0.4927  0.3190
10879TIP3    H154052   3.694   5.471   4.546  0.0148  0.4040  0.5152
10879TIP3    H254053   3.805   5.568   4.580 -0.0747  0.9431 -0.6792
10880TIP3   OH254054   1.158   5.562   1.033 -0.3168  0.5692 -0.3859
10880TIP3    H154055   1.181   5.618   1.107  0.2816 -0.3663  0.1641
10880TIP3    H254056   1.068   5.535   1.050  0.0870 -0.3144  0.4754
10881TIP3   OH254057   4.481   5.302  11.840 -0.2345  0.6325 -0.6210
10881TIP3    H154058   4.440   5.327  11.757 -0.0024 -1.0869 -1.2939
10881TIP3    H254059   4.568   5.342  11.836  0.8169 -1.5747 -2.4954
10882TIP3   OH254060   0.934   4.730  12.868  0.1942 -0.2677 -1.1313
10882TIP3    H154061   1.014   4.753  12.915 -1.4755  1.7875  0.9638
10882TIP3    H254062   0.910   4.644  12.903 -0.9478  1.1494  1.9723
10883TIP3   OH254063   0.116   4.495   1.538  0.5865  0.1147 -0.4585
10883TIP3    H154064   0.125   4.449   1.621 -1.9650 -2.7219 -1.5996
10883TIP3    H254065   0.173   4.447   1.478  0.9728  0.9927 -0.8143
10884TIP3   OH254066   2.664   1.578  15.270  0.0290 -0.0238 -0.3512
10884TIP3    H154067   2.715   1.559  15.349  0.3353 -0.2732 -0.6091
10884TIP3    H254068   2.630   1.667  15.285 -1.5450 -0.7835  0.9289
10885TIP3   OH254069   4.496   5.403   6.640 -0.6909  0.6777  0.1476
10885TIP3    H154070   4.541   5.319   6.632  0.9371  1.3824  1.2821
10885TIP3    H254071   4.471   5.426   6.551  1.0516  0.1440 -0.5199
10886TIP3   OH254072   4.870   0.881  16.496 -0.3524 -0.0452  0.0046
10886TIP3    H154073   4.965   0.881  16.508 -0.6715  0.5352  3.1646
10886TIP3    H254074   4.842   0.793  16.523 -0.8452  0.2819  0.5768
10887TIP3   OH254075   0.422   5.403   4.048 -0.3505  0.9452 -0.3182
10887TIP3    H154076   0.465   5.326   4.013  1.1081  0.4852  2.2537
10887TIP3    H254077   0.459   5.476   3.999 -1.1222  0.1316 -2.1953
10888TIP3   OH254078   3.869   6.207  16.014  0.7416 -0.1933 -0.0736
10888TIP3    H154079   3.817   6.128  16.001  1.5926 -1.2943  2.5629
10888TIP3    H254080   3.958   6.181  15.988  0.8717  0.1650  0.0157
10889TIP3   OH254081   2.448   3.533   4.296  0.7453  0.0615  0.8513
10889TIP3    H154082   2.356   3.524   4.274  1.0168  1.4322 -1.0940
10889TIP3    H254083   2.466   3.627   4.289  2.3002 -0.1805  1.1296
10890TIP3   OH254084   5.166   3.292   3.531  0.2961 -0.2906 -0.1945
10890TIP3    H154085   5.188   3.258   3.444 -0.1494  1.5410 -1.0549
10890TIP3    H254086   5.245   3.339   3.559  0.3482 -0.6638  0.3114
10891TIP3   OH254087   5.153   5.765   3.502 -0.9503  0.6954  0.0868
10891TIP3    H154088   5.159   5.670   3.511 -0.4653  0.7571  0.4769
10891TIP3    H254089   5.062   5.786   3.521 -1.5216  0.1302 -1.7897
10892TIP3   OH254090   2.907   4.406  16.365 -0.5635  0.5076 -0.1823
10892TIP3    H154091   2.866   4.466  16.302 -3.8029  0.5199  1.6949
10892TIP3    H254092   2.928   4.461  16.440 -0.3064 -0.1334  0.2162
10893TIP3   OH254093   1.979   3.964   2.432  0.3049  0.2025  0.1251
10893TIP3    H154094   1.926   4.037   2.397 -0.6548 -0.2832  0.5260
10893TIP3    H254095   1.995   3.988   2.523  0.7699  0.3358  0.0111
10894TIP3   OH254096   4.516   6.496  13.666 -0.3990 -0.2715  0.5054
10894TIP3    H154097   4.427   6.463  13.667 -1.5226  2.5143 -0.1403
10894TIP3    H254098   4.563   6.437  13.607 -2.5969 -0.0078 -1.6351
10895TIP3   OH254099   3.666   2.440   1.219 -0.1830 -0.1455 -0.0373
10895TIP3    H154100   3.668   2.425   1.314  0.4809 -0.9762 -0.1624
10895TIP3    H254101   3.612   2.517   1.208  1.4234  1.2499  1.1941
10896TIP3   OH254102   4.542   3.491   1.507  0.4881  0.0048  0.7510
10896TIP3    H154103   4.458   3.449   1.523  0.3183  0.3350  0.7460
10896TIP3    H254104   4.604   3.445   1.564  0.3037 -0.2311  0.7605
10897TIP3   OH254105   4.113   6.549  12.835  0.2358 -0.2665 -0.3730
10897TIP3    H154106   4.094   6.457  12.852  2.4931 -0.4363  1.8556
10897TIP3    H254107   4.054   6.596  12.895 -0.1158 -0.3158 -0.6803
10898TIP3   OH254108   3.921   1.541  13.424 -0.2745 -0.1677 -0.3380
10898TIP3    H154109   3.969   1.488  13.488  0.1959 -0.6203 -1.0508
10898TIP3    H254110   3.832   1.544  13.458  0.5076  1.9396  1.8182
10899TIP3   OH254111   5.339   1.055  11.035 -0.5991  0.3120 -0.0984
10899TIP3    H154112   5.321   1.118  11.104 -0.3987 -0.2048  0.4344
10899TIP3    H254113   5.369   0.977  11.081  0.0939  0.1530 -0.8024
10900TIP3   OH254114   4.731   3.241  16.479 -0.2821  0.3201 -0.1957
10900TIP3    H154115   4.767   3.179  16.416 -2.9950  1.2296 -2.8727
10900TIP3    H254116   4.776   3.324  16.459  0.0609  0.2515  0.2681
10901TIP3   OH254117   1.827   0.925  13.854  0.3426  0.0104 -0.2230
10901TIP3    H154118   1.859   0.909  13.766 -3.5413 -0.8425 -1.7016
10901TIP3    H254119   1.829   1.020  13.864 -0.3543  0.2232 -1.8065
10902TIP3   OH254120   0.669   4.842   5.274  0.4563 -0.8728 -0.0401
10902TIP3    H154121   0.627   4.923   5.302  0.5783 -0.7839 -0.1157
10902TIP3    H254122   0.687   4.854   5.181  1.1053 -0.7114  0.0983
10903TIP3   OH254123   5.096   0.079  15.863  0.4094  0.6175 -0.3879
10903TIP3    H154124   5.025   0.127  15.820 -2.0680 -2.3733  0.0200
10903TIP3    H254125   5.078   0.089  15.956  0.4709 -0.2099 -0.2832
10904TIP3   OH254126   5.166   0.224   4.319  0.0595 -0.3109  0.1262
10904TIP3    H154127   5.098   0.159   4.301  1.4862 -1.8215 -0.0149
10904TIP3    H254128   5.137   0.267   4.399 -0.5058 -1.7217  0.7072
10905TIP3   OH254129   0.439   6.329   2.719  0.6527 -0.1903 -0.7331
10905TIP3    H154130   0.356   6.288   2.696  0.7597 -0.9301  0.1200
10905TIP3    H254131   0.494   6.317   2.641  0.0597  0.0331 -1.1866
10906TIP3   OH254132   0.090   0.821  12.485  0.6153  0.1616 -0.5894
10906TIP3    H154133   0.079   0.740  12.534 -0.0510 -0.0441 -1.0690
10906TIP3    H254134   0.118   0.793  12.398  0.0791  0.4272 -0.8479
10907TIP3   OH254135   4.169   2.020  11.984  0.5434 -0.5478  0.9981
10907TIP3    H154136   4.194   1.933  12.014 -0.3074 -1.2984 -0.3609
10907TIP3    H254137   4.095   2.044  12.040  0.4160 -0.9552  1.0119
10908TIP3   OH254138   0.528   0.900  15.460  0.3123  0.0992  0.2731
10908TIP3    H154139   0.475   0.867  15.533  1.1125 -0.4752  0.6221
10908TIP3    H254140   0.551   0.821  15.410  1.8187  0.1639  0.8203
10909TIP3   OH254141   0.179   5.516  14.886  0.0934  0.0469 -0.0978
10909TIP3    H154142   0.163   5.423  14.905  0.9505 -0.4709 -1.7373
10909TIP3    H254143   0.273   5.522  14.874 -0.0130  1.0321 -0.5199
10910TIP3   OH254144   3.778   1.556   2.954 -0.1150  0.2930 -0.0955
10910TIP3    H154145   3.715   1.620   2.922 -0.6206 -0.2389 -0.1775
10910TIP3    H254146   3.863   1.588   2.923 -0.3664  0.8878 -0.1840
10911TIP3   OH254147   4.714   2.203  17.128  0.2885 -0.1500  0.5015
10911TIP3    H154148   4.676   2.288  17.106 -0.6524 -0.7082 -0.1265
10911TIP3    H254149   4.651   2.140  17.093  0.8390 -1.0997  1.2023
10912TIP3   OH254150   0.001   0.552   0.567 -0.3480  0.1048 -0.2939
10912TIP3    H154151  -0.047   0.632   0.544 -1.8138 -1.0914 -1.5755
10912TIP3    H254152  -0.023   0.488   0.500 -1.1150 -2.1462  1.9553
10913TIP3   OH254153   0.509   3.598  11.576 -0.1081  0.1774 -0.1934
10913TIP3    H154154   0.506   3.598  11.672 -0.0185 -1.4198 -0.1747
10913TIP3    H254155   0.422   3.628  11.549 -1.2660 -2.3671  0.4127
10914TIP3   OH254156   1.558   0.754  11.371  0.1018  0.0640 -0.2855
10914TIP3    H154157   1.653   0.748  11.384  0.0532  0.0603  0.0847
10914TIP3    H254158   1.522   0.685  11.427 -0.0552 -0.7385 -1.3355
10915TIP3   OH254159   1.445   4.168   1.902  0.3678 -0.6944  0.0433
10915TIP3    H154160   1.398   4.211   1.973 -0.0634  1.4095 -1.4068
10915TIP3    H254161   1.423   4.220   1.824  0.8617 -2.8520 -1.6318
10916TIP3   OH254162   2.993   3.383   1.572 -0.0140  0.1386  0.2023
10916TIP3    H154163   3.086   3.385   1.551  0.1261  0.3935  0.8076
10916TIP3    H254164   2.973   3.291   1.584  0.1223  0.0691 -0.1009
10917TIP3   OH254165   4.405   5.063   5.727 -0.4450  0.2326 -0.2632
10917TIP3    H154166   4.392   5.076   5.821  1.0646 -1.2546  0.2055
10917TIP3    H254167   4.496   5.085   5.712  0.0824 -2.0888 -0.8317
10918TIP3   OH254168   6.007   6.684   5.377 -0.0546 -0.3886 -0.9542
10918TIP3    H154169   6.020   6.730   5.294 -0.4692 -0.0887 -0.8556
10918TIP3    H254170   6.086   6.703   5.427 -0.6990  1.1848 -0.4663
10919TIP3   OH254171   0.097   4.270  11.928  0.3160  0.1631 -0.1336
10919TIP3    H154172   0.113   4.325  11.851  0.1784 -2.7124 -2.3820
10919TIP3    H254173   0.178   4.222  11.940  0.2833  0.4766  1.4866
10920TIP3   OH254174   1.585   6.112  11.957 -0.1495  0.4176  0.1705
10920TIP3    H154175   1.626   6.178  11.901 -1.3546 -0.8681 -2.4314
10920TIP3    H254176   1.494   6.108  11.925 -0.4085 -1.6651  1.0246
10921TIP3   OH254177   0.163   1.558  11.345  0.5643  0.4171 -0.0523
10921TIP3    H154178   0.225   1.533  11.276  1.2586  1.1189  0.3014
10921TIP3    H254179   0.129   1.643  11.316  0.0472  0.2087 -0.0600
10922TIP3   OH254180   2.825   5.458  16.220  0.0070 -0.1432 -0.1160
10922TIP3    H154181   2.766   5.490  16.288 -0.7691  1.0629 -1.3388
10922TIP3    H254182   2.813   5.363  16.221 -1.1452 -0.0047  0.3732
10923TIP3   OH254183   2.754   3.274   2.626  0.0739 -0.1301 -0.2388
10923TIP3    H154184   2.784   3.214   2.558  0.2903 -0.3247  0.0274
10923TIP3    H254185   2.663   3.248   2.641  0.8009 -1.9139  1.4738
10924TIP3   OH254186   1.498   1.151   4.225 -0.5268 -0.1525  0.0454
10924TIP3    H154187   1.434   1.219   4.243  0.5681  0.4449  1.9097
10924TIP3    H254188   1.519   1.162   4.132  0.3986  2.7880  0.5015
10925TIP3   OH254189   0.625   1.705   1.190  0.2128  0.0016  0.3306
10925TIP3    H154190   0.644   1.688   1.282 -0.5410 -0.1806  0.4575
10925TIP3    H254191   0.536   1.740   1.190  0.4531  0.6365 -0.2681
10926TIP3   OH254192   2.248   3.210  15.666 -0.5270 -0.1003  0.2147
10926TIP3    H154193   2.177   3.254  15.620 -0.0468 -0.3516 -0.7834
10926TIP3    H254194   2.211   3.189  15.752 -1.0290  1.5324  0.4360
10927TIP3   OH254195   6.035   4.507  14.106  0.3553  0.2543  0.6215
10927TIP3    H154196   6.002   4.571  14.169 -1.4977  0.0102 -0.0512
10927TIP3    H254197   6.105   4.554  14.059  0.4661  1.0538  1.5607
10928TIP3   OH254198   1.224   3.595  10.846 -0.2047 -0.5971  0.0298
10928TIP3    H154199   1.309   3.626  10.813  1.1041 -1.8684  2.0417
10928TIP3    H254200   1.240   3.505  10.873 -2.6745 -1.4636 -1.1091
10929TIP3   OH254201   1.768   5.084  17.209  0.2677  0.1996 -0.0869
10929TIP3    H154202   1.717   5.009  17.179 -1.1456  0.6559  1.0643
10929TIP3    H254203   1.777   5.072  17.303  0.3224  1.2754  0.0600
10930TIP3   OH254204   1.120   2.927  14.208 -0.3306 -0.1103 -0.2943
10930TIP3    H154205   1.118   2.831  14.205  0.1626 -0.1427  0.2418
10930TIP3    H254206   1.059   2.954  14.140 -1.4413 -0.8023  0.3971
10931TIP3   OH254207   0.271   0.399  12.102  0.4225 -0.3954 -0.2713
10931TIP3    H154208   0.274   0.308  12.073  0.4467  0.2513 -2.4143
10931TIP3    H254209   0.183   0.409  12.141  0.4658 -1.3462  0.0883
10932TIP3   OH254210   1.875   5.199  13.769 -0.0940 -0.1195  0.3319
10932TIP3    H154211   1.856   5.105  13.761 -0.6372  0.0419 -0.3460
10932TIP3    H254212   1.970   5.205  13.766 -0.0281 -0.7007  0.9795
10933TIP3   OH254213   5.283   1.149   1.137 -0.0030 -0.1267  0.4984
10933TIP3    H154214   5.302   1.175   1.046 -1.3701 -0.7386  0.0062
10933TIP3    H254215   5.255   1.057   1.130 -2.4271  0.4771  1.1800
10934TIP3   OH254216   4.719   2.229  14.041 -0.0841  0.7012 -0.2607
10934TIP3    H154217   4.654   2.223  13.971 -2.2370  0.3970  1.6314
10934TIP3    H254218   4.729   2.139  14.072  0.9047  0.8186 -0.2105
10935TIP3   OH254219   1.777   4.810  16.247  0.3688  0.3620 -0.0291
10935TIP3    H154220   1.786   4.761  16.329 -0.5113 -1.6068 -1.0308
10935TIP3    H254221   1.855   4.786  16.197 -0.7882 -1.3960 -1.1370
10936TIP3   OH254222   2.515   6.149   2.261  0.0919  0.9276 -0.6921
10936TIP3    H154223   2.518   6.155   2.357  0.9068 -0.9425 -0.5493
10936TIP3    H254224   2.457   6.075   2.243  1.5615 -0.0854 -1.5200
10937TIP3   OH254225   6.513   1.264  11.941  0.4415 -0.1673 -0.6644
10937TIP3    H154226   6.523   1.220  11.856 -1.0816  1.0639 -1.5326
10937TIP3    H254227   6.481   1.195  12.000  2.3389 -1.2405 -0.8204
10938TIP3   OH254228   2.883   0.430  13.074  0.1078 -0.0176 -0.4896
10938TIP3    H154229   2.792   0.410  13.098  0.2629 -3.3223 -2.1269
10938TIP3    H254230   2.879   0.519  13.040 -2.6768 -0.2877 -1.1454
10939TIP3   OH254231   3.755   4.699  12.773 -0.4938 -0.1386 -0.2476
10939TIP3    H154232   3.717   4.684  12.860  0.0497  0.5642  0.1278
10939TIP3    H254233   3.704   4.772  12.737 -0.9314 -0.6424 -0.6601
10940TIP3   OH254234   2.031   6.583   1.898  0.4636  0.6676  0.3290
10940TIP3    H154235   1.967   6.588   1.969  0.0249 -1.1079  0.0871
10940TIP3    H254236   2.051   6.490   1.889  2.4965  1.1072 -0.1489
10941TIP3   OH254237   3.625   0.376  13.494 -0.1369  0.2124 -0.0841
10941TIP3    H154238   3.534   0.389  13.521  0.2134  0.3492  1.0914
10941TIP3    H254239   3.624   0.392  13.400 -1.8784 -2.6695 -0.6877
10942TIP3   OH254240   4.250   3.164  15.983  0.2660 -0.0832  0.2143
10942TIP3    H154241   4.254   3.071  16.008 -1.6099  0.0837  1.3530
10942TIP3    H254242   4.248   3.211  16.067  0.6040  0.9575 -0.3450
10943TIP3   OH254243   2.178   2.162   2.522 -0.2729 -0.1806  0.3947
10943TIP3    H154244   2.202   2.214   2.599  2.5827 -1.2994  0.4151
10943TIP3    H254245   2.155   2.227   2.455  1.4949  1.0822  0.9277
10944TIP3   OH254246   0.572   4.473  16.583 -0.0037  0.1091 -0.1480
10944TIP3    H154247   0.633   4.538  16.548 -1.2014  1.3749  0.0447
10944TIP3    H254248   0.628   4.400  16.611  1.4668  1.4696  0.5525
10945TIP3   OH254249   6.408   0.387  11.575 -0.7572  0.4957 -0.5260
10945TIP3    H154250   6.379   0.473  11.606  0.5019  1.1264 -1.0171
10945TIP3    H254251   6.369   0.378  11.488 -0.9047  0.5634 -0.4661
10946TIP3   OH254252   0.287   0.133  12.098 -0.1218 -0.1174  0.3841
10946TIP3    H154253   0.332   0.097  12.021 -0.6717 -1.5752  0.7127
10946TIP3    H254254   0.346   0.115  12.171 -0.2833 -0.0968  0.5198
10947TIP3   OH254255   2.836   4.839   0.391 -0.0142  0.3473  0.2794
10947TIP3    H154256   2.759   4.785   0.370  0.6175 -0.1174 -0.9727
10947TIP3    H254257   2.889   4.784   0.449 -0.1395  0.2506  0.3035
10948TIP3   OH254258   2.126   5.349   1.724  0.1962 -0.3449 -0.3146
10948TIP3    H154259   2.104   5.413   1.656 -2.7730  1.2635  1.9108
10948TIP3    H254260   2.046   5.297   1.734  0.8351 -1.0626  1.3884
10949TIP3   OH254261   4.360   4.294   4.123 -0.4849  0.7029 -0.1399
10949TIP3    H154262   4.396   4.206   4.111 -0.4335  0.7123 -0.0527
10949TIP3    H254263   4.330   4.320   4.036 -0.8171  0.4589 -0.1008
10950TIP3   OH254264   4.472   2.512   6.345 -0.3445  0.2396 -0.2907
10950TIP3    H154265   4.499   2.542   6.431 -0.3238 -0.2129 -0.1371
10950TIP3    H254266   4.380   2.486   6.356  0.0386 -1.1144 -0.0547
10951TIP3   OH254267   2.153   0.493  10.579 -0.2644 -0.7050 -0.0028
10951TIP3    H154268   2.211   0.564  10.552 -0.4177 -1.1849 -1.6917
10951TIP3    H254269   2.066   0.532  10.581 -0.5783 -1.1338 -2.4141
10952TIP3   OH254270   0.016   3.055   3.417  0.2534  0.2425  0.4426
10952TIP3    H154271  -0.068   3.062   3.371  0.8129  0.5680 -0.5709
10952TIP3    H254272   0.054   2.973   3.385  0.7543  0.5904  0.1161
10953TIP3   OH254273   2.124   5.473  11.379  0.1784  0.1176 -0.0931
10953TIP3    H154274   2.156   5.443  11.294  2.3486  1.1819  0.2833
10953TIP3    H254275   2.087   5.559  11.362  0.9719  0.5002  0.0904
10954TIP3   OH254276   4.519   6.008  17.240 -0.3766 -0.0318  0.2063
10954TIP3    H154277   4.560   6.094  17.251  0.1296 -0.3830  1.2760
10954TIP3    H254278   4.542   5.981  17.151  1.7247 -0.1916  0.7385
10955TIP3   OH254279   6.571   3.134  16.728 -0.0010 -0.3571  0.1766
10955TIP3    H154280   6.584   3.099  16.816 -0.6440 -2.1739 -0.3997
10955TIP3    H254281   6.495   3.192  16.736  0.4374  0.1238  0.9641
10956TIP3   OH254282   5.356   3.509  12.751 -0.9765 -0.7610 -0.1885
10956TIP3    H154283   5.340   3.565  12.827 -2.1545  0.5523 -1.3505
10956TIP3    H254284   5.344   3.567  12.676 -0.3031 -2.1370 -1.4079
10957TIP3   OH254285   3.140   6.663   5.723  0.8404  0.2740  0.1376
10957TIP3    H154286   3.082   6.604   5.771  1.6981  0.4617  1.4782
10957TIP3    H254287   3.135   6.746   5.771  1.5720  0.5262 -0.2125
10958TIP3   OH254288   2.953   1.993   3.165  0.0374  0.3468  0.3747
10958TIP3    H154289   3.026   1.951   3.211 -0.7709 -2.2349 -0.5070
10958TIP3    H254290   2.876   1.972   3.217 -0.3380  1.2463  0.1950
10959TIP3   OH254291   3.621   5.840   2.225 -0.8489  0.2208  0.5356
10959TIP3    H154292   3.591   5.816   2.312 -0.1124  1.0190  1.0199
10959TIP3    H254293   3.549   5.891   2.188 -0.5259  1.2800  1.3144
10960TIP3   OH254294   4.899   4.505   0.410  0.1613  0.0274 -0.3068
10960TIP3    H154295   4.945   4.556   0.344  1.2670 -0.9605 -0.3378
10960TIP3    H254296   4.843   4.569   0.455  0.9825  1.1171 -0.7822
10961TIP3   OH254297   0.227   2.216   1.277  0.3840  0.2244 -0.8703
10961TIP3    H154298   0.227   2.157   1.202  0.1680 -1.4005  0.3618
10961TIP3    H254299   0.162   2.283   1.255 -0.3798 -0.7657 -1.7223
10962TIP3   OH254300   4.185   5.077  15.078 -0.6349  0.3837  0.8724
10962TIP3    H154301   4.185   4.997  15.131  0.1885  0.4197  0.9452
10962TIP3    H254302   4.093   5.101  15.072 -0.6992  1.0403  3.2839
10963TIP3   OH254303   1.752   4.871   4.423  0.2208 -0.0005 -0.2327
10963TIP3    H154304   1.819   4.883   4.355  0.6606 -2.5929 -0.3551
10963TIP3    H254305   1.669   4.868   4.375  0.3418  0.0779 -0.4475
10964TIP3   OH254306   3.484   1.131   0.591  0.3683 -0.3673  0.4952
10964TIP3    H154307   3.408   1.122   0.535  2.3843  3.1474 -3.3535
10964TIP3    H254308   3.452   1.178   0.668 -1.5685 -0.1201 -0.4056
10965TIP3   OH254309   6.557   3.921   4.845 -0.0117  0.3483 -0.6612
10965TIP3    H154310   6.538   3.871   4.765  0.9646  0.8770 -1.2482
10965TIP3    H254311   6.561   4.012   4.815  0.3953  0.5468 -0.0060
10966TIP3   OH254312   2.071   0.918  14.115 -0.6610  0.1580  0.2551
10966TIP3    H154313   2.129   0.986  14.083  0.6692 -1.1708 -0.2890
10966TIP3    H254314   2.086   0.843  14.057  0.2889 -1.6475  2.6279
10967TIP3   OH254315   5.801   0.294  10.830 -0.2548 -0.5727  0.1668
10967TIP3    H154316   5.833   0.348  10.903  0.2068  2.3432 -2.0097
10967TIP3    H254317   5.875   0.238  10.807  1.1930  1.6035 -0.7557
10968TIP3   OH254318   0.113   4.873   3.184 -0.5951 -0.5682 -0.5899
10968TIP3    H154319   0.033   4.843   3.142 -2.8173  3.6035  0.1501
10968TIP3    H254320   0.092   4.960   3.217  3.9649  0.3430  0.6394
10969TIP3   OH254321   0.069   4.576  14.872  0.0170 -0.3418  0.1298
10969TIP3    H154322   0.139   4.572  14.938  0.9952 -1.3298 -0.9225
10969TIP3    H254323   0.106   4.628  14.801 -0.2171 -1.0636 -0.5308
10970TIP3   OH254324   1.904   3.656   5.508 -0.6287  0.2298  0.0912
10970TIP3    H154325   1.949   3.679   5.589 -1.1908 -3.6323  1.7682
10970TIP3    H254326   1.974   3.629   5.448 -0.3720 -1.4877  1.1004
10971TIP3   OH254327   4.915   6.343  12.937  0.4951  0.2633  0.4820
10971TIP3    H154328   4.958   6.301  12.862  1.3785  2.4371 -0.3178
10971TIP3    H254329   4.823   6.349  12.911  0.7351  0.6977 -0.2957
10972TIP3   OH254330   2.202   3.083  10.922  0.0629 -0.6810 -0.1184
10972TIP3    H154331   2.131   3.135  10.884 -0.0151 -0.8788 -0.2462
10972TIP3    H254332   2.215   3.119  11.009 -0.8422 -1.2614  0.2628
10973TIP3   OH254333   2.096   0.879   6.073 -0.3606 -0.5233 -0.1089
10973TIP3    H154334   2.081   0.966   6.036 -0.2069  0.0170  1.0498
10973TIP3    H254335   2.187   0.858   6.052 -0.3386 -0.3186 -0.2123
10974TIP3   OH254336   6.574   0.444  16.129 -0.0853 -0.1259  0.0579
10974TIP3    H154337   6.540   0.412  16.046 -0.2515  1.0715 -0.3601
10974TIP3    H254338   6.656   0.397  16.141  0.4237  0.3631 -1.2715
10975TIP3   OH254339   5.989   6.596  12.962 -0.1347  1.0731 -0.5390
10975TIP3    H154340   5.905   6.604  12.916 -0.3231 -1.6167 -0.8070
10975TIP3    H254341   6.050   6.564  12.895  0.5201  0.7598  0.1890
10976TIP3   OH254342   3.700   5.220   0.412  0.1406  0.8157 -0.5176
10976TIP3    H154343   3.639   5.203   0.484  0.4983 -1.2608 -0.6703
10976TIP3    H254344   3.785   5.229   0.454  0.1457  1.0368 -0.5701
10977TIP3   OH254345   3.693   3.861  15.603  0.0152  0.3787  0.6590
10977TIP3    H154346   3.658   3.929  15.546 -1.2816  0.5511  1.6359
10977TIP3    H254347   3.774   3.833  15.559 -1.4305 -0.2340 -1.8136
10978TIP3   OH254348   3.947   4.922  14.290 -0.5912  0.4166 -0.1278
10978TIP3    H154349   3.932   4.973  14.210  1.0977 -2.5689 -2.5869
10978TIP3    H254350   4.042   4.920  14.299 -0.7064 -0.5310  1.1132
10979TIP3   OH254351   6.122   0.986  14.758 -0.0817  0.2684 -0.1030
10979TIP3    H154352   6.207   0.951  14.734  0.9491  1.9045  0.9405
10979TIP3    H254353   6.102   0.946  14.843 -0.2209  0.1234 -0.2022
10980TIP3   OH254354   3.965   4.596   3.033 -0.3294  0.1113  0.1070
10980TIP3    H154355   4.018   4.517   3.048 -0.4013  0.2227  1.0377
10980TIP3    H254356   3.911   4.575   2.957  0.1350 -0.4842 -0.0680
10981TIP3   OH254357   1.361   3.538  12.377  0.0768 -0.0528  0.3030
10981TIP3    H154358   1.337   3.547  12.469 -0.9698  2.3588 -0.1167
10981TIP3    H254359   1.285   3.496  12.336  0.2930 -0.5727  0.4301
10982TIP3   OH254360   4.423   5.904   4.704  0.1584 -0.2523 -0.2187
10982TIP3    H154361   4.497   5.943   4.749 -1.6678  0.0489  2.8230
10982TIP3    H254362   4.404   5.824   4.754 -1.1498 -0.6761 -1.3281
10983TIP3   OH254363   3.410   0.982   4.560 -1.3559 -0.1519  0.0261
10983TIP3    H154364   3.474   0.911   4.569 -0.6749  0.5925  1.3970
10983TIP3    H254365   3.368   0.987   4.647 -2.6935 -0.0579 -0.5959
10984TIP3   OH254366   5.373   0.907  12.477  0.1752 -0.4122  0.4732
10984TIP3    H154367   5.330   0.923  12.561 -0.0529  1.1866  0.0779
10984TIP3    H254368   5.306   0.928  12.411  0.4117 -1.4534 -0.1197
10985TIP3   OH254369   2.902   4.791  15.932 -0.4934  0.3383  0.2595
10985TIP3    H154370   2.809   4.769  15.936 -0.3150 -1.1284 -2.0774
10985TIP3    H254371   2.913   4.832  15.846  0.9175  1.1942  0.8186
10986TIP3   OH254372   3.795   1.880  16.229  0.2948 -0.2511  0.1640
10986TIP3    H154373   3.771   1.875  16.137  0.0858 -0.4261  0.2269
10986TIP3    H254374   3.775   1.970  16.255  0.8516 -0.0489 -0.0949
10987TIP3   OH254375   6.042   0.688   0.446 -0.0606 -0.0914  0.3042
10987TIP3    H154376   6.117   0.654   0.494 -0.3229 -2.4131 -0.7640
10987TIP3    H254377   6.036   0.633   0.368 -2.0616  0.8970 -0.3260
10988TIP3   OH254378   0.964   1.039   1.943  0.3100  0.7297 -0.5370
10988TIP3    H154379   0.954   1.055   1.850  1.2452 -1.0477 -0.9735
10988TIP3    H254380   1.051   1.000   1.952 -0.7258 -1.5018  0.7195
10989TIP3   OH254381   3.251   1.176   4.417  0.1047  0.6296 -0.5553
10989TIP3    H154382   3.183   1.109   4.414 -0.9141  1.5831  0.1276
10989TIP3    H254383   3.322   1.136   4.467  0.1999 -0.5083 -1.5749
10990TIP3   OH254384   0.022   3.129   5.384  0.6078 -0.0030 -0.1942
10990TIP3    H154385  -0.069   3.149   5.405 -0.5481 -4.3883 -0.1518
10990TIP3    H254386   0.028   3.142   5.289  0.1531  0.8880 -0.1113
10991TIP3   OH254387   3.826   2.761   5.519  0.7435  0.2457  0.0934
10991TIP3    H154388   3.816   2.685   5.576  0.4803 -1.5673 -2.2250
10991TIP3    H254389   3.896   2.812   5.559 -0.8138  0.2135  3.1409
10992TIP3   OH254390   5.559   5.368  14.584  0.0686  0.0726 -0.3977
10992TIP3    H154391   5.484   5.316  14.615  1.8119 -2.3058  0.0826
10992TIP3    H254392   5.555   5.361  14.489 -1.8487  2.3507 -0.5805
10993TIP3   OH254393   2.480   5.775  15.136  0.1613  0.7104 -0.4360
10993TIP3    H154394   2.431   5.736  15.064 -0.4220 -0.0191  0.3330
10993TIP3    H254395   2.567   5.793  15.099  0.1490 -0.4531 -1.0714
10994TIP3   OH254396   0.685   5.207   5.191  0.3184 -0.2650  0.0295
10994TIP3    H154397   0.664   5.243   5.277  0.8023  1.1240 -0.4078
10994TIP3    H254398   0.774   5.238   5.174  0.2467 -0.5858 -0.9459
10995TIP3   OH254399   5.233   6.468  12.311 -0.1455 -0.2208  0.6450
10995TIP3    H154400   5.261   6.381  12.283 -0.8884 -0.0914 -0.5377
10995TIP3    H254401   5.314   6.511  12.339  0.0353 -1.8200  2.8360
10996TIP3   OH254402   4.571   5.617  15.309  0.4867 -0.5589 -0.0244
10996TIP3    H154403   4.505   5.566  15.261  1.1704  1.0822 -2.9930
10996TIP3    H254404   4.616   5.667  15.241  2.4433  1.0562  2.2912
10997TIP3   OH254405   2.470   6.693   5.437  0.1937  0.3138 -0.0547
10997TIP3    H154406   2.383   6.732   5.444 -0.0976 -0.2326 -0.4819
10997TIP3    H254407   2.518   6.752   5.378 -0.4573 -0.3045 -1.2505
10998TIP3   OH254408   3.453   4.825   6.096 -0.6508 -0.9448  0.4837
10998TIP3    H154409   3.531   4.818   6.041 -2.8387  2.5057 -3.6833
10998TIP3    H254410   3.472   4.897   6.157 -0.9748  1.0763 -1.6746
10999TIP3   OH254411   2.057   5.738  11.263 -0.1907 -0.0323 -0.1121
10999TIP3    H154412   2.141   5.782  11.274  0.1501  0.0967 -2.7905
10999TIP3    H254413   2.001   5.802  11.219 -1.2317 -0.6488  0.2729
11000TIP3   OH254414   2.122   3.437   5.466  0.4798  0.3132 -0.4353
11000TIP3    H154415   2.121   3.494   5.389  1.3447  1.4226  0.3223
11000TIP3    H254416   2.164   3.356   5.437  0.6357  0.6557 -1.1777
11001TIP3   OH254417   1.095   3.398   0.002 -0.3931 -0.2526  0.3059
11001TIP3    H154418   1.095   3.435  -0.087 -2.5664 -2.2499 -0.6367
11001TIP3    H254419   1.112   3.473   0.059  3.0738  0.7957 -1.8152
11002TIP3   OH254420   4.378   3.467  14.839  0.1031 -0.1048  0.0523
11002TIP3    H154421   4.354   3.465  14.932  0.1692 -0.0072  0.0724
11002TIP3    H254422   4.460   3.418  14.834  1.1635  1.5571  0.3742
11003TIP3   OH254423   6.198   3.041  14.018 -0.0128  0.6909  0.5843
11003TIP3    H154424   6.169   2.968  13.964  0.3734  1.4727 -0.7086
11003TIP3    H254425   6.202   3.004  14.107 -0.5218 -0.6497  0.0809
11004TIP3   OH254426   3.960   2.594   1.432 -0.5611  0.0653  0.3931
11004TIP3    H154427   3.988   2.510   1.469 -0.4250  1.0639  2.7213
11004TIP3    H254428   4.010   2.603   1.351  1.3677 -0.9254  1.4156
11005TIP3   OH254429   0.620   0.380  12.801  0.2078  0.1827 -0.2798
11005TIP3    H154430   0.605   0.296  12.756 -0.8263 -0.7334  1.6309
11005TIP3    H254431   0.585   0.446  12.742 -0.3857 -0.8937 -1.1621
11006TIP3   OH254432   3.111   5.839   0.806  0.0838 -0.1900  0.4246
11006TIP3    H154433   3.147   5.776   0.743 -2.1902 -1.1507 -0.0139
11006TIP3    H254434   3.053   5.786   0.861  0.8704  0.9169  2.4012
11007TIP3   OH254435   0.715   2.380  10.600 -0.2404  0.9526 -0.8612
11007TIP3    H154436   0.666   2.304  10.567  0.8173 -0.2850  0.3191
11007TIP3    H254437   0.765   2.411  10.524 -1.3307  1.0547 -1.5790
11008TIP3   OH254438   6.332   4.587  16.364  0.5235  0.0777  0.2215
11008TIP3    H154439   6.385   4.576  16.285  1.8634 -0.0487  1.0988
11008TIP3    H254440   6.391   4.628  16.427 -0.7162  0.7930  0.9622
11009TIP3   OH254441   3.904   5.797   5.553  0.4883  0.1670  0.2589
11009TIP3    H154442   3.972   5.816   5.618 -1.5805  0.9124  2.3579
11009TIP3    H254443   3.839   5.866   5.565  0.6464  1.2693 -3.7382
11010TIP3   OH254444   5.685   3.106  15.068  0.4112 -0.0484 -0.0189
11010TIP3    H154445   5.746   3.157  15.121 -1.1819  0.1721  1.7533
11010TIP3    H254446   5.663   3.031  15.124 -0.5755 -0.3468 -0.7796
11011TIP3   OH254447   4.021   2.463  16.354 -0.2158  0.2772 -0.0455
11011TIP3    H154448   4.073   2.444  16.277 -0.8008  0.0620 -0.3979
11011TIP3    H254449   4.016   2.379  16.401  1.6170  0.7904  1.1763
11012TIP3   OH254450   2.919   0.209  11.011  0.1004 -0.9844  0.0164
11012TIP3    H154451   2.997   0.261  10.997 -0.9202  0.8873  0.9200
11012TIP3    H254452   2.870   0.216  10.929 -0.2215 -0.1540  0.2720
11013TIP3   OH254453   6.088   3.722  13.264  0.0028  0.8610 -0.0876
11013TIP3    H154454   6.109   3.737  13.172 -0.6586 -0.2361 -0.4435
11013TIP3    H254455   5.993   3.729  13.268 -0.2364 -1.4439 -0.0064
11014TIP3   OH254456   0.217   1.976  14.505  0.3869  0.2231  0.0279
11014TIP3    H154457   0.284   1.961  14.572  1.1428  0.8346 -0.5677
11014TIP3    H254458   0.202   2.070  14.506 -1.5103 -0.0394  1.0993
11015TIP3   OH254459   3.166   2.218   5.589 -0.3895  0.2746  0.1115
11015TIP3    H154460   3.257   2.189   5.583 -0.3239  0.2562  1.0607
11015TIP3    H254461   3.114   2.137   5.585 -0.3001  0.1786  0.8085
11016TIP3   OH254462   2.218   4.929   5.926  0.0462  0.0857 -0.1906
11016TIP3    H154463   2.147   4.980   5.890  0.8335  0.9539 -0.5413
11016TIP3    H254464   2.251   4.877   5.853 -0.1924 -0.2865 -0.0382
11017TIP3   OH254465   5.890   0.298   5.520  0.8794 -0.2701 -0.0303
11017TIP3    H154466   5.920   0.348   5.443 -1.0140 -0.6364 -1.0726
11017TIP3    H254467   5.830   0.234   5.484 -1.5731  0.7835  1.9327
11018TIP3   OH254468   5.624   3.361  13.679  0.6841  0.0111 -0.1464
11018TIP3    H154469   5.665   3.414  13.612 -1.2459  2.5248  0.5260
11018TIP3    H254470   5.629   3.414  13.759 -1.1511 -0.8338  0.6110
11019TIP3   OH254471   4.320   5.856  17.398  0.3771 -0.0602 -0.4791
11019TIP3    H154472   4.347   5.881  17.486 -1.0609 -0.1509  0.0167
11019TIP3    H254473   4.362   5.920  17.341  0.8018  0.3927  0.3278
11020TIP3   OH254474   6.726   0.336   2.641  1.3040  0.6581 -0.4722
11020TIP3    H154475   6.664   0.345   2.714  2.7381 -0.4237  0.9628
11020TIP3    H254476   6.682   0.377   2.567 -0.1954  1.8681  1.0078
11021TIP3   OH254477   4.580   5.568   3.237  0.2435  0.2825  0.2066
11021TIP3    H154478   4.647   5.500   3.240  0.1572  0.1859  0.0047
11021TIP3    H254479   4.503   5.525   3.199  0.5405  0.7749 -1.0120
11022TIP3   OH254480   3.173   4.339   6.306  0.6585  0.0842  0.2295
11022TIP3    H154481   3.222   4.378   6.379 -0.5811  3.3936 -0.5558
11022TIP3    H254482   3.099   4.296   6.348  0.5201  1.0611  1.0258
11023TIP3   OH254483   5.339   4.682  15.857  0.4510  0.4644 -0.3509
11023TIP3    H154484   5.353   4.738  15.934 -1.3214  1.2046 -0.5053
11023TIP3    H254485   5.269   4.623  15.883  0.7235 -0.1417 -0.9787
11024TIP3   OH254486   3.176   4.853  16.588 -0.1628  0.3074  0.2376
11024TIP3    H154487   3.246   4.901  16.545 -0.5988  0.8495  0.1218
11024TIP3    H254488   3.187   4.762  16.558 -0.8184  0.7640 -1.4988
11025TIP3   OH254489   5.535   2.119  16.562  0.0336 -0.1922 -0.1845
11025TIP3    H154490   5.590   2.179  16.511 -0.2212 -1.0490 -1.5157
11025TIP3    H254491   5.562   2.133  16.652 -0.4994  2.4400 -0.3665
11026TIP3   OH254492   5.930   4.302  14.365 -0.2856 -0.3674  0.5541
11026TIP3    H154493   5.871   4.326  14.294  0.3591  0.0144  0.1357
11026TIP3    H254494   5.938   4.207  14.359 -1.7555 -0.5686  1.3467
11027TIP3   OH254495   2.534   5.234  12.590 -0.0540  0.3337  0.1224
11027TIP3    H154496   2.555   5.286  12.513 -0.2291 -0.9629 -0.8411
11027TIP3    H254497   2.441   5.212  12.580 -0.1161  0.2552  0.7738
11028TIP3   OH254498   2.180   4.396  13.135  0.5837 -0.0889  0.1190
11028TIP3    H154499   2.255   4.383  13.077  0.9978 -0.3332  0.6921
11028TIP3    H254500   2.155   4.487  13.123 -0.9729 -0.7551 -2.3510
11029TIP3   OH254501   6.724   3.139   2.762  0.0020  0.3208  0.0001
11029TIP3    H154502   6.715   3.172   2.851 -2.3985  0.3538 -0.1862
11029TIP3    H254503   6.662   3.067   2.757  0.5511 -0.0831 -1.4700
11030TIP3   OH254504   2.374   2.085   0.378  0.1254  0.4737  0.2516
11030TIP3    H154505   2.393   2.058   0.288  1.4379  1.8316  0.0876
11030TIP3    H254506   2.456   2.069   0.425 -0.1887  0.8604  0.9407
11031TIP3   OH254507   5.532   4.396   5.782 -0.1971 -0.4833 -0.0593
11031TIP3    H154508   5.491   4.311   5.764  1.2008 -1.1347 -0.2735
11031TIP3    H254509   5.584   4.415   5.704 -0.3532  0.4930  0.0653
11032TIP3   OH254510   2.759   3.088   2.019 -0.1227 -0.1346  0.2530
11032TIP3    H154511   2.751   3.156   1.952  0.0510  1.2006  1.5347
11032TIP3    H254512   2.669   3.062   2.038 -0.2579  0.4369  0.4228
11033TIP3   OH254513   2.284   4.977  11.045 -0.2358  0.8414 -0.4541
11033TIP3    H154514   2.330   4.965  10.962 -1.1671  3.7360 -1.5178
11033TIP3    H254515   2.191   4.971  11.023 -0.4894  0.6236  0.6025
11034TIP3   OH254516   6.136   2.448   1.146 -0.2392 -0.1076  0.5270
11034TIP3    H154517   6.053   2.488   1.172 -0.0556  1.4627 -1.0875
11034TIP3    H254518   6.163   2.397   1.222 -1.1740  1.8206  2.2533
11035TIP3   OH254519   0.603   1.148   5.568  0.2603 -0.2171  0.1906
11035TIP3    H154520   0.688   1.141   5.524  1.0814 -1.8000  1.9114
11035TIP3    H254521   0.554   1.072   5.536 -0.9800  1.2566 -1.6120
11036TIP3   OH254522   3.902   6.192  16.431 -0.0052  0.1361 -0.0630
11036TIP3    H154523   3.875   6.282  16.414 -0.3454 -0.1412 -1.0818
11036TIP3    H254524   3.913   6.187  16.526 -0.8836  0.9954  0.0921
11037TIP3   OH254525   6.386   2.263   3.524  0.3029  0.4415  0.1562
11037TIP3    H154526   6.417   2.199   3.459  1.7012  0.1678  1.0491
11037TIP3    H254527   6.452   2.261   3.592 -0.0503  2.2814  0.5963
11038TIP3   OH254528   5.753   2.470  11.977  0.1949  0.3228  0.0778
11038TIP3    H154529   5.726   2.415  11.904  0.2460  0.9971 -0.4624
11038TIP3    H254530   5.819   2.528  11.940 -0.0972  0.9671  0.5476
11039TIP3   OH254531   6.695   2.656  16.646 -0.2168 -0.1814 -0.5498
11039TIP3    H154532   6.684   2.747  16.672 -0.6028 -0.2200 -0.5739
11039TIP3    H254533   6.634   2.644  16.573  0.2901 -0.2862 -0.9613
11040TIP3   OH254534   0.029   5.938  14.300  0.4687  0.7676 -1.0275
11040TIP3    H154535   0.064   6.027  14.291 -0.1198  1.0498 -0.5801
11040TIP3    H254536  -0.024   5.941  14.380  1.4272 -0.3069 -0.3119
11041TIP3   OH254537   2.818   4.972  13.262 -0.4980  0.1710  0.1995
11041TIP3    H154538   2.763   4.894  13.251  0.0773 -0.2734  0.4230
11041TIP3    H254539   2.816   5.014  13.177  3.6154 -3.0191 -1.8187
11042TIP3   OH254540   5.767   6.588  16.040  0.1725 -0.6915 -0.5402
11042TIP3    H154541   5.772   6.682  16.019  0.3930 -0.9698 -1.8360
11042TIP3    H254542   5.703   6.583  16.111 -2.7213  0.1435 -2.8634
11043TIP3   OH254543   1.211   0.452   6.753  0.1661 -0.2460 -0.1261
11043TIP3    H154544   1.188   0.393   6.682  0.5348  1.3790 -1.6876
11043TIP3    H254545   1.139   0.514   6.758  0.7679  0.4678 -0.0278
11044TIP3   OH254546   4.123   4.003   5.793  0.0611  0.2611  0.4320
11044TIP3    H154547   4.200   4.058   5.807  0.6223 -0.6320  0.9313
11044TIP3    H254548   4.158   3.920   5.761 -0.6260 -0.3974  1.3322
11045TIP3   OH254549   4.807   1.633   4.910  0.0416  0.1584 -0.3223
11045TIP3    H154550   4.797   1.593   4.824  2.0322 -1.3595  0.0747
11045TIP3    H254551   4.864   1.708   4.895  0.7565 -0.3691 -0.2788
11046TIP3   OH254552   1.270   6.428  11.375 -0.2440  0.1149 -0.2088
11046TIP3    H154553   1.195   6.458  11.427 -1.6189 -1.2644 -1.2951
11046TIP3    H254554   1.272   6.488  11.300 -0.9900 -0.5049 -0.7432
11047TIP3   OH254555   3.706   2.791   0.859  0.2705 -0.2616  0.0375
11047TIP3    H154556   3.767   2.749   0.919  0.7901 -1.3246 -1.1810
11047TIP3    H254557   3.629   2.810   0.912  0.9911 -0.4986  1.1980
11048TIP3   OH254558   1.182   1.852  17.046  0.0709 -0.5242  0.0768
11048TIP3    H154559   1.258   1.843  16.988  0.3147 -2.3957  0.6337
11048TIP3    H254560   1.110   1.875  16.987  0.9143  0.6213 -0.5432
11049TIP3   OH254561   3.310   1.357  14.752 -0.0200 -0.2149 -0.1564
11049TIP3    H154562   3.362   1.336  14.830  0.4254 -0.9917 -0.6359
11049TIP3    H254563   3.219   1.345  14.779  0.1181 -4.9406 -0.7926
11050TIP3   OH254564   2.120   5.804  15.996 -0.5236  0.2295  0.3308
11050TIP3    H154565   2.097   5.761  16.079 -0.3072 -0.8321 -0.1475
11050TIP3    H254566   2.080   5.749  15.929  0.5413  0.2698 -0.3457
11051TIP3   OH254567   3.246   2.986  17.277 -0.3255  0.0764  0.3356
11051TIP3    H154568   3.293   3.024  17.352 -0.8311  0.4424  0.4740
11051TIP3    H254569   3.220   2.899  17.307 -1.1588  0.4882  0.8685
11052TIP3   OH254570   1.447   1.246  17.384 -0.3467 -0.3039 -0.4163
11052TIP3    H154571   1.469   1.338  17.376 -0.2872 -0.3965 -1.4330
11052TIP3    H254572   1.387   1.229  17.312 -1.1750 -0.8287  0.3674
11053TIP3   OH254573   1.066   4.751  14.300 -0.8225  0.9957  0.7722
11053TIP3    H154574   0.996   4.765  14.236 -0.0658 -1.1856 -0.6475
11053TIP3    H254575   1.048   4.663  14.335 -0.3707  1.5598  2.4867
11054TIP3   OH254576   4.467   5.129  13.113  0.6916  0.1902  0.7149
11054TIP3    H154577   4.551   5.168  13.090  0.8721 -0.7770 -0.4009
11054TIP3    H254578   4.490   5.042  13.147  0.1231 -0.5177 -0.6151
11055TIP3   OH254579   4.506   4.339   3.049  0.3809  0.4324 -0.0784
11055TIP3    H154580   4.576   4.311   2.990  0.7638  0.4353  0.3748
11055TIP3    H254581   4.533   4.309   3.135 -0.6387 -0.4323 -0.0278
11056TIP3   OH254582   2.784   0.545  17.301  0.0162  0.3704  0.1603
11056TIP3    H154583   2.735   0.547  17.383 -0.1298 -0.7770  0.1152
11056TIP3    H254584   2.743   0.613  17.247 -1.4923 -0.4820  0.1665
11057TIP3   OH254585   3.744   4.979  13.566  0.0410  0.0674 -0.1947
11057TIP3    H154586   3.650   4.992  13.577 -0.0393  0.1987 -0.9894
11057TIP3    H254587   3.777   5.065  13.542  0.5906  0.3484  1.4246
11058TIP3   OH254588   4.029   1.511  17.089  0.0108 -0.2577 -0.5639
11058TIP3    H154589   3.974   1.436  17.066 -0.3390  0.3609 -1.8143
11058TIP3    H254590   4.116   1.473  17.102 -0.7401 -1.3024  1.8647
11059TIP3   OH254591   5.617   4.387  15.230 -0.2134 -0.0809 -0.3544
11059TIP3    H154592   5.639   4.474  15.263 -1.1701 -0.1940  0.6625
11059TIP3    H254593   5.684   4.330  15.267  0.3856  0.2061 -0.9780
11060TIP3   OH254594   6.256   0.962   3.588 -0.1819 -0.0983  0.7818
11060TIP3    H154595   6.344   0.929   3.610 -0.1594 -0.7892 -0.2772
11060TIP3    H254596   6.268   1.010   3.506 -0.7168  0.2316  0.8901
11061TIP3   OH254597   5.081   6.687  17.255  0.2875 -0.8824  0.0925
11061TIP3    H154598   5.018   6.641  17.198  0.5445  0.1518 -1.0768
11061TIP3    H254599   5.166   6.666  17.217  0.4657 -0.2336  0.1320
11062TIP3   OH254600   3.366   0.558   0.947 -0.3784 -0.1156  0.4770
11062TIP3    H154601   3.428   0.515   0.889 -0.7912  0.7586 -0.6562
11062TIP3    H254602   3.419   0.618   1.000 -0.2983  1.0890 -0.9191
11063TIP3   OH254603   5.426   4.478  11.286 -0.3330 -0.0278  0.4115
11063TIP3    H154604   5.517   4.449  11.287 -1.0508 -2.6074 -0.9585
11063TIP3    H254605   5.421   4.541  11.214  0.1858 -0.5536 -0.0855
11064TIP3   OH254606   6.108   2.533   1.466 -0.0092 -0.4722 -0.0417
11064TIP3    H154607   6.040   2.493   1.411 -0.1199  0.8731 -0.9343
11064TIP3    H254608   6.066   2.545   1.551 -0.9846  0.5557 -0.6501
11065TIP3   OH254609   4.937   0.565  12.313  0.4369  0.4675 -0.7624
11065TIP3    H154610   4.894   0.544  12.396 -0.0940  1.8399 -0.6526
11065TIP3    H254611   4.918   0.491  12.256  0.7753 -0.4832  0.3092
11066TIP3   OH254612   4.796   6.561   3.045 -0.1084 -0.0686  0.3790
11066TIP3    H154613   4.880   6.577   3.089  0.1455  0.0484 -0.1454
11066TIP3    H254614   4.810   6.479   2.997 -0.9157 -1.1132  1.8290
11067TIP3   OH254615   6.678   2.241   4.885 -0.3004 -0.3228 -0.9667
11067TIP3    H154616   6.774   2.242   4.894 -0.3970 -0.8933  0.4990
11067TIP3    H254617   6.650   2.172   4.945 -1.6113 -0.4598 -1.7184
11068TIP3   OH254618   1.532   5.576   2.277 -0.2737  0.3272  0.2857
11068TIP3    H154619   1.531   5.654   2.333 -1.0251  0.4582  0.1084
11068TIP3    H254620   1.480   5.602   2.200 -1.3985 -0.6759  0.6769
11069TIP3   OH254621   0.605   5.708   4.914 -0.3537  0.1916 -0.3807
11069TIP3    H154622   0.582   5.616   4.905 -0.3541  0.4154 -3.6490
11069TIP3    H254623   0.661   5.711   4.992  0.8617 -2.8238 -1.0050
11070TIP3   OH254624   6.159   1.257  11.914  0.1234  0.4956  0.1035
11070TIP3    H154625   6.094   1.263  11.984  0.5697  0.5981  0.5151
11070TIP3    H254626   6.237   1.222  11.957  0.6203  1.2092 -0.1972
11071TIP3   OH254627   0.063   0.277  13.678 -0.3340 -0.1473 -0.3430
11071TIP3    H154628  -0.031   0.291  13.684 -0.7982 -2.1258 -1.6779
11071TIP3    H254629   0.101   0.330  13.748 -2.4119  0.8212  0.1145
11072TIP3   OH254630   3.339   2.269  17.347 -0.4177 -0.2978 -0.4565
11072TIP3    H154631   3.427   2.275  17.382  0.3343  0.5714 -2.3453
11072TIP3    H254632   3.299   2.196  17.394  0.6623  0.4259  1.7237
11073TIP3   OH254633   1.290   0.434  13.865 -0.9293 -0.1304  0.7450
11073TIP3    H154634   1.269   0.416  13.773 -0.2738 -0.1216  0.5890
11073TIP3    H254635   1.205   0.430  13.910 -0.8843 -3.6636  0.7625
11074TIP3   OH254636   0.280   2.694   5.126  0.4905  0.5020 -0.2616
11074TIP3    H154637   0.210   2.664   5.184  2.0494 -0.0046  1.4653
11074TIP3    H254638   0.278   2.789   5.132  0.5024  0.4611  0.4817
11075TIP3   OH254639   5.573   5.397   5.152 -0.3345  0.3781  0.3379
11075TIP3    H154640   5.646   5.354   5.107 -2.1205 -1.4339 -1.0181
11075TIP3    H254641   5.524   5.325   5.192 -2.3554  1.2837 -0.3557
11076TIP3   OH254642   5.085   5.084  11.881  0.3765 -0.4258  0.1644
11076TIP3    H154643   5.006   5.076  11.827  2.1658 -0.4255 -2.7078
11076TIP3    H254644   5.101   4.995  11.913 -1.2366 -0.2509  1.5587
11077TIP3   OH254645   6.365   4.533  13.124 -0.1851  0.1558 -0.4957
11077TIP3    H154646   6.353   4.438  13.124  1.9100 -0.1502 -0.1458
11077TIP3    H254647   6.310   4.563  13.052 -1.1083 -1.2616 -0.4472
11078TIP3   OH254648   5.949   3.266  11.400 -0.0620  0.1993 -0.8289
11078TIP3    H154649   5.981   3.187  11.356  0.5838  1.3435 -2.4792
11078TIP3    H254650   5.875   3.295  11.348 -2.1907 -0.8545  1.4039
11079TIP3   OH254651   2.824   3.002  12.576  0.3003  0.6279 -0.0412
11079TIP3    H154652   2.796   2.916  12.545 -1.7632  1.4308 -0.6552
11079TIP3    H254653   2.823   2.996  12.671 -0.9251  0.2440 -0.0586
11080TIP3   OH254654   2.776   5.154  14.512  0.6995 -0.1834 -0.6359
11080TIP3    H154655   2.800   5.078  14.566 -0.3702 -0.7720 -0.9619
11080TIP3    H254656   2.841   5.220  14.534  0.4382 -0.4809  1.2366
11081TIP3   OH254657   4.862   5.028   3.321  0.2025 -0.3463 -0.2593
11081TIP3    H154658   4.955   5.006   3.329  0.3414 -0.5952 -2.0378
11081TIP3    H254659   4.834   4.981   3.242 -1.4879 -0.4379  0.3791
11082TIP3   OH254660   3.972   3.785  14.083 -0.0027 -0.4618  0.5335
11082TIP3    H154661   3.913   3.835  14.026  0.7219 -0.7991 -0.5377
11082TIP3    H254662   3.963   3.827  14.169 -1.3857 -0.1656  0.2719
11083TIP3   OH254663   4.150   5.674  17.096  0.0223  0.0502 -0.0275
11083TIP3    H154664   4.103   5.731  17.157 -0.5540  2.2133 -2.3524
11083TIP3    H254665   4.081   5.624  17.052 -0.0442  1.7090 -1.9497
11084TIP3   OH254666   0.050   3.114  11.696 -0.0170 -0.3895 -0.4555
11084TIP3    H154667   0.075   3.074  11.780  0.7864  0.3602 -0.3225
11084TIP3    H254668   0.102   3.194  11.692  0.1723 -0.5707 -1.8066
11085TIP3   OH254669   3.507   3.432  17.317  0.5141  0.2769  0.2037
11085TIP3    H154670   3.583   3.444  17.373  0.7592 -0.0450 -0.0570
11085TIP3    H254671   3.531   3.361  17.257 -0.3343 -0.4811  0.7285
11086TIP3   OH254672   5.786   4.364   0.878  0.2130  0.3073 -0.1480
11086TIP3    H154673   5.822   4.388   0.964  0.8379  0.8808 -0.5586
11086TIP3    H254674   5.759   4.447   0.840 -2.4187 -0.1700  0.4883
11087TIP3   OH254675   1.944   5.204   2.453  0.3268  0.3650 -0.3111
11087TIP3    H154676   1.951   5.285   2.503 -1.7013 -0.2186  1.0633
11087TIP3    H254677   1.942   5.135   2.519  1.4235 -0.7826 -1.4204
11088TIP3   OH254678   1.713   0.893   5.309  0.1611  0.2137  0.4048
11088TIP3    H154679   1.670   0.809   5.323  0.5097 -0.5962 -2.6151
11088TIP3    H254680   1.643   0.951   5.280 -0.1341  1.1453  2.7684
11089TIP3   OH254681   5.513   6.511   0.759 -0.0144 -0.0195 -0.1445
11089TIP3    H154682   5.450   6.440   0.752 -0.2559  0.2335 -0.5267
11089TIP3    H254683   5.597   6.472   0.734  0.4814 -1.0171  2.6854
11090TIP3   OH254684   5.830   4.660   2.311 -0.0030  0.0512 -0.3401
11090TIP3    H154685   5.910   4.709   2.327  0.2412 -0.7883  1.1355
11090TIP3    H254686   5.760   4.726   2.317  0.5302  0.7781 -1.5980
11091TIP3   OH254687   5.968   1.300   0.664 -0.1630  0.5104 -0.2744
11091TIP3    H154688   6.021   1.264   0.735 -0.0899 -0.4058 -0.7747
11091TIP3    H254689   5.884   1.254   0.671 -0.4167  0.9548 -0.3312
11092TIP3   OH254690   5.295   3.416   1.587  0.6030  0.3702 -0.3273
11092TIP3    H154691   5.301   3.489   1.650 -0.2508 -0.4457  0.7387
11092TIP3    H254692   5.385   3.402   1.558  1.2847 -0.1699  1.8393
11093TIP3   OH254693   6.270   0.011  15.098  0.0066 -0.8761 -1.1055
11093TIP3    H154694   6.364  -0.008  15.095  0.0605 -0.6604 -0.7960
11093TIP3    H254695   6.229  -0.075  15.093  0.2724 -1.3842  2.3807
11094TIP3   OH254696   3.270   6.051  11.358 -0.1824  0.0737  0.1215
11094TIP3    H154697   3.220   5.999  11.421  1.0461  1.1212  2.0923
11094TIP3    H254698   3.206   6.112  11.322 -0.9461 -0.6259  0.2591
11095TIP3   OH254699   1.964   4.221   1.254 -0.2454  0.5966 -0.2869
11095TIP3    H154700   1.947   4.274   1.332  0.4963  0.9777 -0.3798
11095TIP3    H254701   1.883   4.226   1.203 -0.1832  1.6544 -0.2990
11096TIP3   OH254702   6.636   0.005   5.424  0.0553  0.0815  0.6887
11096TIP3    H154703   6.695  -0.010   5.350 -0.1516  1.3071  0.2566
11096TIP3    H254704   6.691   0.048   5.490  0.3005 -1.2218  1.3675
11097TIP3   OH254705   2.322   2.769  16.810  0.9169  0.3612  1.3925
11097TIP3    H154706   2.286   2.831  16.873 -2.5788 -1.4094  1.3221
11097TIP3    H254707   2.293   2.803  16.725  0.6905 -0.3259  1.1949
11098TIP3   OH254708   1.831   2.886  17.144  0.5352 -0.0390 -0.8837
11098TIP3    H154709   1.833   2.912  17.236 -0.4780 -1.6878 -0.3512
11098TIP3    H254710   1.918   2.850  17.128  0.8200  0.5408 -0.6721
11099TIP3   OH254711   4.381   6.458   4.191 -0.5067  0.2116 -0.1377
11099TIP3    H154712   4.359   6.444   4.283 -0.5642  0.9659 -0.0287
11099TIP3    H254713   4.337   6.387   4.145 -2.2252  1.0022  0.1968
11100TIP3   OH254714   4.957   4.448  11.623 -0.2877 -0.3251 -0.3839
11100TIP3    H154715   4.993   4.531  11.653 -0.7224 -0.0730 -0.5406
11100TIP3    H254716   4.872   4.471  11.585 -0.6914 -0.9164  0.1223
11101TIP3   OH254717   3.971   3.389  14.672  0.2349  0.1100 -0.4727
11101TIP3    H154718   4.039   3.346  14.723 -0.8576  0.4303  1.3833
11101TIP3    H254719   3.935   3.321  14.617 -0.5351 -1.0925  1.4022
11102TIP3   OH254720   2.254   6.384  15.818  0.1333  0.4035 -0.3625
11102TIP3    H154721   2.243   6.412  15.908 -0.0021  0.2505 -0.3323
11102TIP3    H254722   2.172   6.341  15.795  0.3662 -0.0499 -0.3800
11103TIP3   OH254723   2.081   0.390  13.141 -0.4297 -0.1970  0.6587
11103TIP3    H154724   2.008   0.333  13.162 -0.3073 -0.5134  0.2369
11103TIP3    H254725   2.159   0.340  13.168 -0.3283 -0.1859  0.3852
11104TIP3   OH254726   1.366   3.215  16.603  0.5481 -0.1056  0.0729
11104TIP3    H154727   1.404   3.128  16.597 -0.9160 -0.7237 -0.9910
11104TIP3    H254728   1.315   3.225  16.522  0.2761  1.5365  0.4038
11105TIP3   OH254729   3.670   4.410   4.439  0.0342  0.5607 -0.3503
11105TIP3    H154730   3.691   4.463   4.515  2.3850 -1.3454  0.4721
11105TIP3    H254731   3.652   4.473   4.369  0.6662  2.3846  1.0601
11106TIP3   OH254732   2.290   0.875  16.206  0.0243  0.5136 -0.2343
11106TIP3    H154733   2.320   0.920  16.128 -0.8410  1.6141  0.0412
11106TIP3    H254734   2.341   0.794  16.208 -1.2460 -0.4722 -2.9427
11107TIP3   OH254735   5.678   0.826   4.599 -0.2616 -0.0022  0.0752
11107TIP3    H154736   5.655   0.749   4.650 -1.3913  0.5954  0.5118
11107TIP3    H254737   5.595   0.854   4.560  0.1936  0.7852 -0.3472
11108TIP3   OH254738   5.303   3.412   0.237  0.0387 -0.4506 -0.8699
11108TIP3    H154739   5.216   3.388   0.269  0.3975  0.9579  1.4138
11108TIP3    H254740   5.362   3.386   0.308  0.9781  2.2338 -0.5476
11109TIP3   OH254741   0.413   3.180   1.216  0.0045 -0.1180  0.3113
11109TIP3    H154742   0.503   3.171   1.187 -0.3732 -0.8590 -0.6927
11109TIP3    H254743   0.374   3.243   1.155  0.3124  1.7442  1.9283
11110TIP3   OH254744   3.669   5.408  13.330  0.4062  0.1076 -0.2706
11110TIP3    H154745   3.714   5.418  13.246 -1.8308  1.7689 -1.3765
11110TIP3    H254746   3.702   5.480  13.384  0.5151  0.1527 -0.3965
11111TIP3   OH254747   1.741   4.779   1.360  0.2138  0.1437 -0.1364
11111TIP3    H154748   1.718   4.694   1.398  0.2215 -0.8458 -2.2069
11111TIP3    H254749   1.835   4.788   1.377  0.3427 -0.5653 -0.4422
11112TIP3   OH254750   0.680   3.393   2.682  0.3015  0.1367 -0.5232
11112TIP3    H154751   0.622   3.431   2.616 -0.1839  0.9291  0.3343
11112TIP3    H254752   0.752   3.456   2.690  1.9138 -1.3444 -2.3555
11113TIP3   OH254753   2.539   4.843  14.772  0.1786 -0.0822 -0.4917
11113TIP3    H154754   2.522   4.933  14.797  1.1832  0.4888 -1.6949
11113TIP3    H254755   2.581   4.803  14.848  0.3117  0.6636 -0.1724
11114TIP3   OH254756   4.724   6.163   2.663  0.0260  0.2070 -0.0272
11114TIP3    H154757   4.631   6.142   2.657  0.3568 -1.3421 -0.1372
11114TIP3    H254758   4.745   6.201   2.578 -0.7281  1.5984  0.3834
11115TIP3   OH254759   3.277   3.760   2.960  0.5650  0.0467  0.1110
11115TIP3    H154760   3.241   3.768   3.049 -0.5526 -0.9634 -0.2273
11115TIP3    H254761   3.292   3.666   2.949  2.3808  0.3282 -0.1566
11116TIP3   OH254762   4.121   2.227   5.938 -0.6930 -0.4994 -0.2763
11116TIP3    H154763   4.033   2.219   5.973 -1.0857  1.3926 -0.7591
11116TIP3    H254764   4.170   2.274   6.005 -0.3509 -0.5391 -0.4953
11117TIP3   OH254765   0.028   0.740   1.456  0.1403 -0.3405  0.7619
11117TIP3    H154766   0.045   0.692   1.375  0.4615  0.6678  0.2175
11117TIP3    H254767  -0.032   0.683   1.505 -0.2026 -0.8865 -0.2576
11118TIP3   OH254768   3.554   3.894  13.281 -0.5464 -0.4691  0.3709
11118TIP3    H154769   3.583   3.867  13.194 -0.8053 -0.6921  0.3509
11118TIP3    H254770   3.618   3.856  13.341 -1.4471 -1.9980  0.4182
11119TIP3   OH254771   3.968   4.040   2.996 -0.5477  0.0039 -1.0008
11119TIP3    H154772   4.018   4.085   2.928  0.3089 -1.7868 -1.6299
11119TIP3    H254773   3.961   3.950   2.964 -0.5183 -0.7805  1.0576
11120TIP3   OH254774   2.792   1.240   1.602 -0.4764 -0.5176 -0.2582
11120TIP3    H154775   2.764   1.308   1.540 -0.0380 -0.4730 -0.4125
11120TIP3    H254776   2.715   1.185   1.613 -1.4716  1.0964  1.3804
11121TIP3   OH254777   2.930   4.503   4.884 -0.3078  0.4643 -0.1303
11121TIP3    H154778   2.993   4.572   4.903  3.5961 -2.6210 -0.7355
11121TIP3    H254779   2.932   4.494   4.789 -0.2784 -0.8830 -0.0136
11122TIP3   OH254780   1.599   2.015  15.631 -0.2916  0.0888  0.8294
11122TIP3    H154781   1.523   1.983  15.679  0.3447 -1.4261  0.8913
11122TIP3    H254782   1.650   1.937  15.611 -0.4290  0.6444 -2.2003
11123TIP3   OH254783   3.388   0.532  11.593 -0.1612 -0.8179 -0.4800
11123TIP3    H154784   3.358   0.620  11.618  0.3603 -0.3542 -1.4236
11123TIP3    H254785   3.482   0.543  11.575  0.3895 -2.0186  1.4048
11124TIP3   OH254786   1.612   6.563  14.342 -0.1271  0.4825 -0.4741
11124TIP3    H154787   1.676   6.529  14.404 -0.3317  0.8239 -0.0669
11124TIP3    H254788   1.611   6.499  14.270 -1.6747 -1.2791  0.9946
11125TIP3   OH254789   1.001   4.064   1.548 -0.2536  0.0502  0.2191
11125TIP3    H154790   1.037   3.981   1.578 -4.3609 -1.7671  0.7937
11125TIP3    H254791   0.977   4.110   1.628  1.1811  1.4995 -0.1256
11126TIP3   OH254792   3.097   6.263  12.846 -0.0603  0.3449 -0.7021
11126TIP3    H154793   3.162   6.198  12.821  0.1229  0.0078  0.5881
11126TIP3    H254794   3.038   6.269  12.770  1.0764  0.1738 -1.6175
11127TIP3   OH254795   1.123   5.500   5.967  0.3795  0.5857  0.2059
11127TIP3    H154796   1.028   5.502   5.976  0.2933 -3.7483  3.4557
11127TIP3    H254797   1.138   5.462   5.880 -0.7728  1.7740 -0.5482
11128TIP3   OH254798   5.452   0.820   5.193 -0.2315  0.0689  0.0233
11128TIP3    H154799   5.544   0.819   5.220  0.3487 -0.0730 -1.8134
11128TIP3    H254800   5.434   0.911   5.171 -0.5805  0.1198  0.5031
11129TIP3   OH254801   4.436   3.401   4.990 -0.0777  0.2911 -0.1758
11129TIP3    H154802   4.519   3.435   5.024  0.4249 -1.1296  0.0827
11129TIP3    H254803   4.408   3.336   5.054 -0.6333 -0.2992 -0.9912
11130TIP3   OH254804   5.962   4.782  10.673  0.1602 -0.9151 -0.4385
11130TIP3    H154805   5.908   4.836  10.616  0.8868 -0.3843 -0.6486
11130TIP3    H254806   5.913   4.775  10.754  0.3342  0.6468 -0.1576
11131TIP3   OH254807   0.167   4.199   3.293  0.0869  0.7788 -0.2766
11131TIP3    H154808   0.146   4.264   3.361  0.2587  0.9530 -0.3886
11131TIP3    H254809   0.241   4.151   3.330  0.0809  0.7713 -0.2746
11132TIP3   OH254810   5.164   3.607   3.324  0.2216  0.9966  0.3592
11132TIP3    H154811   5.195   3.565   3.243 -0.5034  2.3786 -0.6752
11132TIP3    H254812   5.239   3.602   3.383  0.1487 -1.8682  0.3931
11133TIP3   OH254813   2.563   4.191   0.800 -0.5759 -0.3407 -0.3728
11133TIP3    H154814   2.529   4.133   0.732 -1.2815  0.7977 -1.0385
11133TIP3    H254815   2.486   4.242   0.829  0.0290  0.3166  0.1181
11134TIP3   OH254816   6.031   0.100   4.812  0.2989  0.5548  0.8660
11134TIP3    H154817   6.041   0.159   4.886  2.0548  1.0582  0.2847
11134TIP3    H254818   6.047   0.155   4.735 -1.4677  0.0382  0.0907
11135TIP3   OH254819   5.060   4.289  14.832 -0.5152 -0.1240  0.0992
11135TIP3    H154820   5.108   4.208  14.847 -0.9178 -0.0987  1.6795
11135TIP3    H254821   5.094   4.350  14.898 -2.0132  0.1903  0.6196
11136TIP3   OH254822   2.621   1.581   5.515  0.0065 -0.0624 -0.2203
11136TIP3    H154823   2.530   1.611   5.512 -0.2991 -0.4882  2.2838
11136TIP3    H254824   2.628   1.519   5.442 -2.2579 -1.2858  0.4881
11137TIP3   OH254825   6.064   2.681   0.371 -0.3944  0.5590 -0.4887
11137TIP3    H154826   6.042   2.737   0.445  0.3784  0.3321 -0.0793
11137TIP3    H254827   6.011   2.603   0.383  2.3456 -1.1422  1.9425
11138TIP3   OH254828   6.038   2.226  12.479  0.0828  0.3175  0.6540
11138TIP3    H154829   6.020   2.205  12.571 -1.2954 -1.3146  0.0641
11138TIP3    H254830   5.963   2.191  12.431  0.7770  1.1292 -1.1107
11139TIP3   OH254831   4.853   1.284  16.303  0.0124 -0.3824  0.0025
11139TIP3    H154832   4.825   1.298  16.394 -0.8054 -0.5705 -0.2154
11139TIP3    H254833   4.794   1.216  16.270  1.0068 -1.1111 -0.3410
11140TIP3   OH254834   4.528   6.183  13.501  0.5703 -0.2652 -0.2367
11140TIP3    H154835   4.475   6.144  13.432  2.8380  1.1484 -3.0006
11140TIP3    H254836   4.525   6.120  13.573 -0.7261 -2.5677 -2.1718
11141TIP3   OH254837   6.374   6.468  16.941  0.5148 -0.0883 -0.2451
11141TIP3    H154838   6.410   6.380  16.947  1.2116  0.0667 -1.7251
11141TIP3    H254839   6.295   6.458  16.888  0.1030  0.0667  0.3170
11142TIP3   OH254840   0.916   5.201   4.595 -0.4134  0.0009 -0.6826
11142TIP3    H154841   0.834   5.228   4.636  0.8256  0.8918  1.4224
11142TIP3    H254842   0.919   5.106   4.607 -0.8908  0.0326 -0.2731
11143TIP3   OH254843   5.958   0.388  12.984 -0.2649 -0.6278  0.1029
11143TIP3    H154844   6.037   0.433  13.014  0.8985 -2.1613 -0.4901
11143TIP3    H254845   5.951   0.413  12.892 -1.3540  0.6804  0.5210
11144TIP3   OH254846   4.380   6.491   0.903 -0.2152 -0.1069 -0.2396
11144TIP3    H154847   4.468   6.483   0.940  0.2873  0.3661 -1.2963
11144TIP3    H254848   4.338   6.408   0.925  0.7927 -0.7036 -0.4777
11145TIP3   OH254849   4.434   4.222   1.855 -0.4258  0.3723 -0.3971
11145TIP3    H154850   4.471   4.298   1.899  0.2763  1.2210 -2.3255
11145TIP3    H254851   4.497   4.151   1.872  0.1053  0.8236 -0.4419
11146TIP3   OH254852   3.640   2.470  14.343 -0.3301  0.2849 -0.0690
11146TIP3    H154853   3.653   2.494  14.251 -1.8531 -1.5876 -0.8237
11146TIP3    H254854   3.551   2.498  14.363  0.1031  1.0050  0.9920
11147TIP3   OH254855   3.944   4.350   3.589  0.1857 -0.3265 -0.2485
11147TIP3    H154856   3.876   4.283   3.592 -1.0876  0.9650  0.5466
11147TIP3    H254857   3.923   4.401   3.511  0.6990 -0.3663 -0.4172
11148TIP3   OH254858   2.430   1.300   4.253 -0.1078 -0.3939 -0.7082
11148TIP3    H154859   2.352   1.345   4.286  0.1657 -0.5447  0.1709
11148TIP3    H254860   2.402   1.210   4.241  0.6762 -1.1992  2.5694
11149TIP3   OH254861   1.983   2.900  14.945  0.3016 -0.0233 -0.1204
11149TIP3    H154862   1.910   2.959  14.962 -1.0257 -1.5206 -0.3079
11149TIP3    H254863   1.965   2.863  14.858  0.8786 -0.9567  0.1346
11150TIP3   OH254864   3.342   1.075  10.571  0.4827 -0.6045 -0.0044
11150TIP3    H154865   3.283   1.033  10.509  1.2053 -2.5251  0.5527
11150TIP3    H254866   3.301   1.161  10.588 -0.4930 -0.6207 -1.9573
11151TIP3   OH254867   4.634   2.382   6.556 -0.5028 -0.2568  0.1000
11151TIP3    H154868   4.669   2.324   6.623 -0.5107 -0.8995 -0.4449
11151TIP3    H254869   4.709   2.436   6.529 -0.1928 -0.8656 -0.2733
11152TIP3   OH254870   1.091   1.984  10.537  0.0032 -0.9249 -0.5908
11152TIP3    H154871   1.160   2.003  10.601 -0.1230 -2.1554 -0.0767
11152TIP3    H254872   1.103   2.051  10.469 -0.5007  1.0739  1.1956
11153TIP3   OH254873   1.892   5.825  13.519  0.3617  0.1433  0.1107
11153TIP3    H154874   1.867   5.747  13.470  2.1046 -0.2031 -0.2939
11153TIP3    H254875   1.818   5.884  13.509  0.1487 -0.3824 -1.9413
11154TIP3   OH254876   6.075   5.240   5.539  0.4795  0.3925 -0.1779
11154TIP3    H154877   6.012   5.220   5.469 -0.1669  0.3889  0.3968
11154TIP3    H254878   6.080   5.160   5.591  1.3274  0.2325 -0.4826
11155TIP3   OH254879   6.227   0.968   4.102  0.1865  0.0722 -0.0004
11155TIP3    H154880   6.271   0.899   4.052 -0.2414  0.4430 -0.9133
11155TIP3    H254881   6.256   0.955   4.192  0.1906 -1.2384 -0.1767
11156TIP3   OH254882   5.387   6.516  12.724 -0.2231 -0.2039  0.5937
11156TIP3    H154883   5.364   6.424  12.726  1.0740 -0.6324 -1.5347
11156TIP3    H254884   5.320   6.559  12.778 -2.3761 -2.0615 -0.4451
11157TIP3   OH254885   4.284   4.785  13.124  0.2258  0.3307  0.2807
11157TIP3    H154886   4.295   4.705  13.175 -1.1526  0.0426  0.1672
11157TIP3    H254887   4.190   4.801  13.125  0.0281 -0.1089 -2.7991
11158TIP3   OH254888   3.736   3.056  16.081 -0.0274  0.3561  0.3177
11158TIP3    H154889   3.820   3.052  16.035  0.6428  0.6094  1.4860
11158TIP3    H254890   3.672   3.023  16.017  1.2104 -1.5864  0.0201
11159TIP3   OH254891   1.746   3.054   6.479 -0.1104  0.9626 -0.0872
11159TIP3    H154892   1.666   3.009   6.451 -0.9638  1.8947  0.7722
11159TIP3    H254893   1.744   3.138   6.432  0.1368  1.1758  0.2784
11160TIP3   OH254894   6.618   5.832   5.040  0.0806 -0.4071 -0.2802
11160TIP3    H154895   6.586   5.765   5.100 -0.4980  0.4276  0.3625
11160TIP3    H254896   6.713   5.819   5.038  0.0547 -0.7176  0.4731
11161TIP3   OH254897   0.944   6.434   0.704  0.4797 -0.7543  0.2796
11161TIP3    H154898   0.897   6.393   0.632  1.6192 -0.8535 -0.4272
11161TIP3    H254899   0.937   6.372   0.776  1.6961 -1.9675 -0.6089
11162TIP3   OH254900   3.922   5.120   4.225 -0.3148  0.7038 -0.1436
11162TIP3    H154901   3.959   5.129   4.312  1.0864  0.2266 -0.6492
11162TIP3    H254902   3.942   5.202   4.181  0.8842  0.1638 -0.6587
11163TIP3   OH254903   5.883   0.754   3.293  0.0736  0.3822 -0.1107
11163TIP3    H154904   5.810   0.706   3.332 -0.3352  2.2389  1.6041
11163TIP3    H254905   5.959   0.724   3.342 -0.2846  1.9018  1.4818
11164TIP3   OH254906   2.784   0.792  15.860 -0.5800  0.1571 -0.4992
11164TIP3    H154907   2.801   0.833  15.775 -0.3015 -2.9507 -2.1184
11164TIP3    H254908   2.693   0.760  15.853 -0.5586 -0.1252  0.3826
11165TIP3   OH254909   3.581   4.204  10.622 -0.2149 -0.1758  0.7963
11165TIP3    H154910   3.584   4.204  10.527 -2.5928 -2.2659  0.6182
11165TIP3    H254911   3.560   4.295  10.646 -1.4320  0.0074 -0.8056
11166TIP3   OH254912   4.025   4.777  15.479  0.2421  0.5923  0.4439
11166TIP3    H154913   4.067   4.791  15.564  0.3529  1.0312  0.3190
11166TIP3    H254914   4.007   4.683  15.476  1.1389  0.4115  0.5350
11167TIP3   OH254915   3.396   0.963   1.494  0.2526  0.0462  0.0099
11167TIP3    H154916   3.456   0.888   1.495 -0.0638 -0.2326  1.9641
11167TIP3    H254917   3.453   1.040   1.501  0.4701 -0.1178  0.0465
11168TIP3   OH254918   2.203   3.987  15.711 -0.9065  0.4787  0.4147
11168TIP3    H154919   2.212   3.964  15.803  0.1778 -0.1687  0.1568
11168TIP3    H254920   2.144   3.921  15.675  0.9944 -1.1000  0.0188
11169TIP3   OH254921   3.576   0.853  12.943  0.0447 -1.0867  0.0411
11169TIP3    H154922   3.618   0.814  13.021 -0.6880  0.5824  1.3361
11169TIP3    H254923   3.491   0.809  12.938 -0.7734  0.2228  1.4866
11170TIP3   OH254924   3.942   5.482  11.400 -0.4820 -0.4582 -0.6692
11170TIP3    H154925   4.032   5.471  11.371 -0.8134 -1.0324 -1.5353
11170TIP3    H254926   3.949   5.516  11.489  0.5874 -1.5507 -0.3146
11171TIP3   OH254927   6.036   0.535   5.807  0.1767 -0.2895  0.4154
11171TIP3    H154928   6.077   0.552   5.892  1.0944 -1.2370  0.1812
11171TIP3    H254929   5.944   0.519   5.827  0.2359  0.2279  1.1361
11172TIP3   OH254930   0.792   4.770   0.240  0.7731 -0.2839  0.4268
11172TIP3    H154931   0.867   4.714   0.262  0.2889 -0.7686  0.8569
11172TIP3    H254932   0.716   4.725   0.276 -0.1252 -1.2195 -2.3833
11173TIP3   OH254933   6.591   5.226   1.233 -1.0057  0.4070 -0.3274
11173TIP3    H154934   6.579   5.175   1.153 -0.8647  0.8323 -0.6224
11173TIP3    H254935   6.534   5.302   1.222 -1.0168  0.4464 -0.0082
11174TIP3   OH254936   6.633   5.551   3.111  0.6723  0.1145  0.0807
11174TIP3    H154937   6.645   5.623   3.048 -0.3842 -0.3202 -0.6550
11174TIP3    H254938   6.717   5.544   3.156  0.7480  1.9197  0.2866
11175TIP3   OH254939   2.372   0.845  12.541  0.0759 -0.1763  0.0267
11175TIP3    H154940   2.441   0.865  12.604  0.5888  0.1995 -0.6340
11175TIP3    H254941   2.405   0.771  12.491 -0.3556 -0.5161  0.2409
11176TIP3   OH254942   6.048   3.030  13.330  0.6092 -0.5044 -0.4111
11176TIP3    H154943   6.004   3.025  13.415 -1.6957 -1.1309 -1.5481
11176TIP3    H254944   6.092   3.115  13.332  1.0973 -0.7485  1.6031
11177TIP3   OH254945   6.466   5.331  14.038  0.2037 -0.5867 -0.0858
11177TIP3    H154946   6.495   5.292  13.955 -0.0889  2.0278 -1.5022
11177TIP3    H254947   6.546   5.356  14.082  0.4361  2.8584 -2.1176
11178TIP3   OH254948   5.776   4.630   4.025  0.0018  0.4664 -0.3138
11178TIP3    H154949   5.746   4.559   3.967 -1.1956  0.9487 -0.3064
11178TIP3    H254950   5.770   4.593   4.113 -2.9136  1.2713 -0.0785
11179TIP3   OH254951   5.013   1.714   6.155 -1.0041 -0.7582 -0.0826
11179TIP3    H154952   4.949   1.780   6.182 -1.6535 -1.0462 -0.8619
11179TIP3    H254953   4.980   1.683   6.070 -0.1109 -1.2921 -0.2423
11180TIP3   OH254954   3.759   3.496  16.976 -0.3148  0.0167 -0.8739
11180TIP3    H154955   3.845   3.508  16.936  0.0542  1.5475  0.2717
11180TIP3    H254956   3.758   3.405  17.006  1.6131  0.4186  0.6238
11181TIP3   OH254957   6.572   4.213   4.828 -0.1703 -0.1599 -0.1100
11181TIP3    H154958   6.566   4.308   4.836  2.3734  0.2853 -1.9982
11181TIP3    H254959   6.631   4.187   4.899  0.3625 -0.0753 -0.5111
11182TIP3   OH254960   5.982   5.421  11.235 -0.1691  0.2196  0.4347
11182TIP3    H154961   6.058   5.451  11.285 -0.9474  3.1442  0.0133
11182TIP3    H254962   6.012   5.340  11.194  2.0354  0.2045  1.8870
11183TIP3   OH254963   0.083   1.940   2.565  0.2529 -0.4977  0.0856
11183TIP3    H154964   0.091   1.949   2.660  0.9023 -2.2531  0.2366
11183TIP3    H254965   0.172   1.922   2.534  0.3994  1.9124 -1.1509
11184TIP3   OH254966   6.328   0.079  11.601  0.4549 -0.8973 -0.0513
11184TIP3    H154967   6.323   0.035  11.516 -0.1109  0.4662 -0.7609
11184TIP3    H254968   6.380   0.157  11.584  0.5685 -0.7544  0.9271
11185TIP3   OH254969   0.303   5.248   1.884 -0.5561 -0.2770 -0.5259
11185TIP3    H154970   0.220   5.294   1.897  0.4123  1.4272 -0.0466
11185TIP3    H254971   0.316   5.198   1.964  0.0151  1.3941  0.4761
11186TIP3   OH254972   2.675   1.056  12.057  0.0146  0.6300 -0.9378
11186TIP3    H154973   2.607   1.110  12.096  2.8831  2.2029  2.4662
11186TIP3    H254974   2.682   0.981  12.116  0.5749 -0.0405 -1.8290
11187TIP3   OH254975   4.873   3.017   4.671  0.0999  0.2933  0.0909
11187TIP3    H154976   4.885   2.988   4.581 -0.2275  1.5165 -0.3652
11187TIP3    H254977   4.811   2.954   4.708 -0.8458  0.5729 -0.9650
11188TIP3   OH254978   1.455   2.701  12.436  0.2482 -0.2563 -0.3478
11188TIP3    H154979   1.499   2.632  12.387 -0.5842 -1.1695  0.1581
11188TIP3    H254980   1.521   2.770  12.445  0.3146  0.1422 -3.0856
11189TIP3   OH254981   0.043   0.579  11.130  0.3244 -0.0307  0.6950
11189TIP3    H154982   0.129   0.620  11.136  1.0916 -1.3062 -0.8159
11189TIP3    H254983  -0.008   0.637  11.073  1.5942 -1.2851 -1.9419
11190TIP3   OH254984   1.328   2.698  16.670  0.6891 -0.3473  0.0651
11190TIP3    H154985   1.395   2.632  16.652  0.5397 -1.0828  2.0232
11190TIP3    H254986   1.334   2.713  16.764  0.1490  1.8504 -0.1981
11191TIP3   OH254987   3.690   1.106  13.963  0.3854  0.1055  0.2263
11191TIP3    H154988   3.690   1.123  13.869  2.3837  1.8448  0.4641
11191TIP3    H254989   3.683   1.010  13.971 -0.2144 -0.0296 -1.6557
11192TIP3   OH254990   6.478   0.458  14.505  0.0700 -0.0323  0.1131
11192TIP3    H154991   6.499   0.486  14.594 -2.4261  0.3204  0.6474
11192TIP3    H254992   6.521   0.522  14.449 -0.7588  1.4763  1.1621
11193TIP3   OH254993   0.924   6.078  13.868 -0.2279  0.0780  0.3613
11193TIP3    H154994   0.839   6.038  13.887 -0.1317 -0.1422  0.3283
11193TIP3    H254995   0.923   6.094  13.774  1.1329 -3.1887 -0.3614
11194TIP3   OH254996   2.724   1.159   5.560 -0.2330 -0.2674 -0.0297
11194TIP3    H154997   2.634   1.143   5.532 -0.0295  0.5678 -1.2229
11194TIP3    H254998   2.774   1.086   5.524 -0.3863 -0.6330  0.4784
11195TIP3   OH254999   4.670   1.394  12.298  0.1121  0.5835 -0.4759
11195TIP3    H155000   4.657   1.478  12.342  0.4119  1.3708 -1.8667
11195TIP3    H255001   4.765   1.387  12.288 -0.0133  1.0682 -2.2116
11196TIP3   OH255002   4.514   6.140  12.183  0.2143 -0.1252 -0.4711
11196TIP3    H155003   4.494   6.047  12.193  0.1575 -0.0770 -0.1166
11196TIP3    H255004   4.514   6.154  12.088  0.8652 -0.6190 -0.5532
11197TIP3   OH255005   3.238   2.485   3.345 -0.1596 -0.1055 -0.3631
11197TIP3    H155006   3.243   2.421   3.274  0.5403  0.0311 -0.4498
11197TIP3    H255007   3.192   2.560   3.307  0.0181 -0.1198 -0.6127
11198TIP3   OH255008   1.832   0.114   4.512  0.5340 -0.4105  0.1085
11198TIP3    H155009   1.855   0.034   4.464 -0.0921 -1.9372  2.1980
11198TIP3    H255010   1.741   0.101   4.538  1.1772 -0.2721  2.6988
11199TIP3   OH255011   4.516   2.334  16.478  0.1110  0.5408  0.1876
11199TIP3    H155012   4.560   2.251  16.494 -0.1556  0.1454 -1.0279
11199TIP3    H255013   4.548   2.392  16.547 -1.0764 -1.0570  2.2006
11200TIP3   OH255014   0.396   4.001  12.593 -0.3812  0.3361  0.5007
11200TIP3    H155015   0.479   3.966  12.559 -0.5791  0.6804 -0.3574
11200TIP3    H255016   0.407   4.096  12.590 -0.8006  0.3841  0.3946
11201TIP3   OH255017   1.846   3.214   2.866 -0.0555 -0.0642  0.5200
11201TIP3    H155018   1.842   3.119   2.855 -0.5489 -0.0009  0.1380
11201TIP3    H255019   1.847   3.227   2.961  0.1533 -0.4537  0.5742
11202TIP3   OH255020   3.960   6.050  13.925  0.0138  0.0917  0.2711
11202TIP3    H155021   3.963   6.026  14.018  1.6067  0.6112  0.4029
11202TIP3    H255022   3.998   6.138  13.923  1.1533 -0.3997 -0.9983
11203TIP3   OH255023   1.847   2.630  13.684  0.7049  0.4260 -0.2642
11203TIP3    H155024   1.782   2.589  13.741  1.9211  0.6064  1.3446
11203TIP3    H255025   1.839   2.584  13.601  0.3701 -1.4252  0.7323
11204TIP3   OH255026   3.171   1.123  11.582 -0.1378 -0.3311 -0.0476
11204TIP3    H155027   3.204   1.212  11.567  1.6907 -1.2516 -2.1643
11204TIP3    H255028   3.077   1.134  11.599 -0.0848  1.9491 -0.9191
11205TIP3   OH255029   4.474   4.308  13.853 -0.4603 -0.1536  0.5848
11205TIP3    H155030   4.488   4.247  13.780  1.1941  0.2796  0.5104
11205TIP3    H255031   4.488   4.255  13.932  1.2208  0.1347  0.5181
11206TIP3   OH255032   4.037   1.601  10.838  0.3288 -0.6610  0.2449
11206TIP3    H155033   3.974   1.629  10.772  0.3114 -0.7880  0.2071
11206TIP3    H255034   4.042   1.506  10.828 -2.6113 -1.2894  2.9938
11207TIP3   OH255035   1.132   3.888   1.297  0.0795 -0.6070  0.4510
11207TIP3    H155036   1.164   3.941   1.371  0.2018  0.1950 -0.1663
11207TIP3    H255037   1.195   3.904   1.227 -0.4277 -0.8056 -0.0584
11208TIP3   OH255038   1.086   2.728   3.579 -0.6601  0.1649 -0.0013
11208TIP3    H155039   0.993   2.733   3.601 -0.7679  0.2577 -0.4612
11208TIP3    H255040   1.131   2.721   3.663 -1.1754 -1.5641  0.1617
11209TIP3   OH255041   3.239   6.389  15.577  0.1045 -0.4336 -0.5050
11209TIP3    H155042   3.238   6.454  15.507 -0.7911 -1.6146 -1.6377
11209TIP3    H255043   3.299   6.424  15.642  0.4436  1.0158 -1.5660
11210TIP3   OH255044   3.834   3.080  14.802 -0.0218 -0.7071 -0.2278
11210TIP3    H155045   3.804   3.152  14.746  0.2669 -0.1940  0.2605
11210TIP3    H255046   3.909   3.043  14.756 -0.6864 -1.2463 -0.8905
11211TIP3   OH255047   0.250   2.267  15.444 -0.4135  0.0928 -0.1535
11211TIP3    H155048   0.343   2.285  15.434 -0.4089  0.4607  0.4505
11211TIP3    H255049   0.245   2.201  15.513 -0.5801 -0.1758 -0.4220
11212TIP3   OH255050   2.631   5.452   5.117 -0.2265 -0.4566 -1.2378
11212TIP3    H155051   2.717   5.467   5.157 -0.7243  2.1662 -0.9418
11212TIP3    H255052   2.640   5.369   5.070  1.6744 -1.5213  0.8304
11213TIP3   OH255053   5.721   4.923   2.789 -0.2932 -0.2397  0.0186
11213TIP3    H155054   5.653   4.962   2.735 -0.2784 -1.1795 -0.7180
11213TIP3    H255055   5.782   4.885   2.726  1.0232  0.7449  0.6605
11214TIP3   OH255056   6.517   5.060  12.119 -0.5926  0.2231  0.6610
11214TIP3    H155057   6.431   5.020  12.112 -0.1211 -0.6998 -0.1585
11214TIP3    H255058   6.570   4.995  12.166 -0.3654  0.8357  1.2747
11215TIP3   OH255059   1.933   5.252  13.220 -0.0960 -0.1666 -0.5748
11215TIP3    H155060   1.961   5.335  13.182  0.4995 -1.0337 -2.1512
11215TIP3    H255061   1.896   5.203  13.146 -1.4978 -0.8702  0.5456
11216TIP3   OH255062   3.297   4.457   2.202  0.6441 -0.4091 -0.2906
11216TIP3    H155063   3.321   4.541   2.240  0.2165 -1.2566  2.0231
11216TIP3    H255064   3.376   4.428   2.156  0.7398  1.2823 -1.2772
11217TIP3   OH255065   0.712   2.715   4.496  0.8782 -0.2102 -0.5427
11217TIP3    H155066   0.647   2.668   4.549 -0.4908  0.0824 -1.8881
11217TIP3    H255067   0.675   2.802   4.485  2.1533  0.3848 -0.2443
11218TIP3   OH255068   6.059   6.046   1.890 -0.0701 -0.0706 -0.8008
11218TIP3    H155069   6.101   6.079   1.969 -0.5428 -0.2439 -0.4677
11218TIP3    H255070   5.967   6.036   1.914  0.2327 -2.8822 -0.4424
11219TIP3   OH255071   4.107   3.832  14.668 -0.0996 -0.4788  0.1724
11219TIP3    H155072   4.048   3.761  14.640 -0.0488 -0.7789  0.7996
11219TIP3    H255073   4.189   3.787  14.690 -0.0690 -0.2280  0.5770
11220TIP3   OH255074   3.274   4.835  17.279 -0.5417 -0.9131  0.2811
11220TIP3    H155075   3.219   4.851  17.203  1.9093  2.9740 -0.9791
11220TIP3    H255076   3.362   4.825  17.243  0.3096 -1.9880  2.4611
11221TIP3   OH255077   4.161   6.110  15.785  0.4939  0.2139 -0.5978
11221TIP3    H155078   4.205   6.151  15.711  2.3269 -0.2486  0.1969
11221TIP3    H255079   4.175   6.170  15.858 -1.3079  0.6742 -0.5770
11222TIP3   OH255080   1.442   5.270   4.958 -0.4944  0.2009  0.1035
11222TIP3    H155081   1.370   5.327   4.985 -0.5144  1.1516 -1.7740
11222TIP3    H255082   1.520   5.325   4.963 -0.3299  0.0409 -0.5459
11223TIP3   OH255083   4.054   1.138  11.953 -0.4220  0.1277 -0.0322
11223TIP3    H155084   4.145   1.115  11.937  0.0346  3.4852 -3.8687
11223TIP3    H255085   4.057   1.206  12.019 -0.0628  0.5504 -0.4801
11224TIP3   OH255086   0.663   2.002  13.525  0.0967  0.5742  0.3074
11224TIP3    H155087   0.576   1.982  13.560 -0.1789  2.3060  0.6929
11224TIP3    H255088   0.660   2.096  13.507  1.2297  0.2782 -1.6083
11225TIP3   OH255089   1.538   1.056   3.765  0.3113  0.7074  0.4552
11225TIP3    H155090   1.549   1.054   3.670 -3.0194 -0.4594 -0.0382
11225TIP3    H255091   1.597   0.988   3.798  0.4257  0.1118 -0.9360
11226TIP3   OH255092   3.017   5.441  12.286 -0.0971 -0.0499  0.1700
11226TIP3    H155093   3.019   5.528  12.248 -0.9181  0.5564  1.4698
11226TIP3    H255094   3.080   5.445  12.358 -1.3369 -0.0057  1.2799
11227TIP3   OH255095   3.346   5.117  11.293 -0.6386 -0.2741 -0.4400
11227TIP3    H155096   3.279   5.148  11.353 -1.4846 -2.2709 -0.2578
11227TIP3    H255097   3.377   5.035  11.332  0.4612 -0.4071 -1.5316
11228TIP3   OH255098   5.935   0.681  16.715 -0.2895  0.2850  0.1240
11228TIP3    H155099   5.946   0.771  16.746  0.5932 -0.3227  1.7294
11228TIP3    H255100   5.888   0.689  16.632 -0.8660  2.1667  0.5869
11229TIP3   OH255101   4.360   6.220   1.955  0.0562 -0.3984 -0.5320
11229TIP3    H155102   4.383   6.178   2.038 -0.5024 -2.6692 -1.4389
11229TIP3    H255103   4.442   6.257   1.923  0.8094 -1.5933 -0.0611
11230TIP3   OH255104   3.684   0.516   5.615  0.0879  0.3988  0.4251
11230TIP3    H155105   3.614   0.577   5.590 -0.4058 -0.2198  0.2770
11230TIP3    H255106   3.743   0.568   5.669 -1.1611  0.6056  1.6395
11231TIP3   OH255107   4.599   1.255   5.966 -0.2192 -0.7490  0.9832
11231TIP3    H155108   4.647   1.331   5.933  0.6412 -1.8935 -0.5447
11231TIP3    H255109   4.570   1.281   6.054 -0.2958  1.4536  0.3551
11232TIP3   OH255110   1.813   3.409   0.114 -0.1871 -0.0965  0.4920
11232TIP3    H155111   1.769   3.326   0.131  0.3946 -0.4467  0.3259
11232TIP3    H255112   1.797   3.461   0.193  0.0316 -0.6298  0.8954
11233TIP3   OH255113   3.747   4.339   1.796 -0.0274 -0.1648 -0.0505
11233TIP3    H155114   3.723   4.266   1.853  0.4747  1.6387  2.6460
11233TIP3    H255115   3.840   4.325   1.776 -0.0745 -0.5299 -0.0224
11234TIP3   OH255116   5.511   3.877   5.486  0.0860  0.5071 -0.1879
11234TIP3    H155117   5.594   3.877   5.437  0.4101  1.3094  0.3332
11234TIP3    H255118   5.446   3.907   5.424 -0.0512 -1.2658 -0.9503
11235TIP3   OH255119   0.686   6.767  12.968  0.5439  0.3442  0.4644
11235TIP3    H155120   0.612   6.708  12.984  0.8095  0.3615  1.8593
11235TIP3    H255121   0.650   6.834  12.909  0.1741 -1.0290 -0.9431
11236TIP3   OH255122   5.201   2.365  16.840 -0.2011  0.3234  0.4472
11236TIP3    H155123   5.213   2.416  16.920 -1.6454 -2.0501  2.3194
11236TIP3    H255124   5.269   2.397  16.781  1.7890  1.3081  3.0634
11237TIP3   OH255125   2.219   5.684   2.877  0.1572  0.0254 -0.3113
11237TIP3    H155126   2.240   5.776   2.891  0.4313  0.0899 -1.1355
11237TIP3    H255127   2.155   5.684   2.807  0.3734 -0.4285 -0.5150
11238TIP3   OH255128   4.061   1.611   2.303 -0.0344  0.3799 -0.1000
11238TIP3    H155129   4.001   1.536   2.309 -0.1950  0.4173 -1.0706
11238TIP3    H255130   4.026   1.674   2.366  0.1922 -0.4116  0.8421
11239TIP3   OH255131   3.734   0.029   3.757  0.1376 -0.1826  0.3208
11239TIP3    H155132   3.788  -0.019   3.819  1.7561 -0.0594 -0.9324
11239TIP3    H255133   3.686  -0.039   3.709  2.0733 -0.6045 -1.1342
11240TIP3   OH255134   1.304   2.913  12.430 -0.0743 -0.0177  0.1259
11240TIP3    H155135   1.348   2.831  12.408 -0.2004  0.0590 -0.4260
11240TIP3    H255136   1.374   2.977  12.435  0.0347 -0.1745  0.6441
11241TIP3   OH255137   6.094   5.400  12.041  0.0125 -0.1474 -0.1912
11241TIP3    H155138   6.136   5.328  11.994  0.7465  1.2408 -1.7231
11241TIP3    H255139   6.165   5.443  12.089 -0.1792  0.3984 -0.3891
11242TIP3   OH255140   3.557   0.335  15.450  0.2260  0.1558 -0.7952
11242TIP3    H155141   3.550   0.412  15.507  1.4817  0.8892 -1.5849
11242TIP3    H255142   3.494   0.272  15.486  1.8874  0.0696  2.1883
11243TIP3   OH255143   4.235   4.934   5.571 -0.7676  0.1811  0.1360
11243TIP3    H155144   4.196   4.878   5.638  1.2453 -2.6108 -0.8376
11243TIP3    H255145   4.287   4.998   5.620 -0.9303 -0.5288  1.2661
11244TIP3   OH255146   6.631   1.348  10.764  0.1368 -0.0161 -0.7790
11244TIP3    H155147   6.705   1.381  10.814 -0.3321  0.4915 -0.3965
11244TIP3    H255148   6.564   1.329  10.831 -0.9054  1.7302 -1.2517
11245TIP3   OH255149   4.117   4.091  17.368 -0.2566 -0.5877 -0.1279
11245TIP3    H155150   4.099   3.999  17.390 -2.3170 -0.3407 -0.5740
11245TIP3    H255151   4.102   4.138  17.450 -0.0511 -0.5640 -0.1058
11246TIP3   OH255152   5.246   3.847   1.980 -0.3934 -0.0147 -0.1788
11246TIP3    H155153   5.189   3.790   2.032 -2.5931  0.4855 -1.8933
11246TIP3    H255154   5.270   3.918   2.039 -0.3190 -0.9936  1.0066
11247TIP3   OH255155   1.469   3.921  12.771 -0.3490  0.0890  0.0728
11247TIP3    H155156   1.484   3.836  12.729  1.0429  0.4544 -0.2405
11247TIP3    H255157   1.444   3.900  12.861  1.3689 -0.6759  0.4191
11248TIP3   OH255158   3.100   0.833   5.676 -0.0647  0.1062 -0.1136
11248TIP3    H155159   3.014   0.789   5.671 -1.2131  2.2550 -0.3620
11248TIP3    H255160   3.163   0.762   5.666 -1.8232 -1.4424 -0.8892
11249TIP3   OH255161   5.659   4.109  16.639  0.1739  0.1932  0.1259
11249TIP3    H155162   5.706   4.028  16.661  1.1772  0.8226  0.3167
11249TIP3    H255163   5.722   4.179  16.654 -0.4157  0.9596 -0.8381
11250TIP3   OH255164   5.186   0.817  15.882  0.1736  0.2860 -0.1131
11250TIP3    H155165   5.102   0.826  15.837  0.1506  1.3678  0.1215
11250TIP3    H255166   5.243   0.777  15.816 -0.1200  0.9639 -0.7973
11251TIP3   OH255167   5.991   6.376  13.150 -0.4462 -0.1408  0.3314
11251TIP3    H155168   5.955   6.441  13.090 -3.7761 -1.3216  0.8696
11251TIP3    H255169   5.915   6.341  13.197  1.7113 -1.0936  3.4349
11252TIP3   OH255170   0.610   6.164   5.307  0.1281 -0.4796  0.2876
11252TIP3    H155171   0.517   6.188   5.306 -0.2145 -1.4883 -2.5835
11252TIP3    H255172   0.616   6.094   5.372 -1.1397 -0.4423  0.4735
11253TIP3   OH255173   1.290   1.610   0.666 -0.2080  0.0738  0.0902
11253TIP3    H155174   1.306   1.621   0.572  1.4182  4.5434  0.6690
11253TIP3    H255175   1.377   1.606   0.705 -0.8541 -0.3622  1.5410
11254TIP3   OH255176   3.695   3.330   1.415 -0.1436 -0.4345 -0.3244
11254TIP3    H155177   3.785   3.314   1.386  0.1732  0.4790  0.1334
11254TIP3    H255178   3.646   3.346   1.334  0.2745 -0.1136 -0.5124
11255TIP3   OH255179   3.403   5.938  17.068 -0.2161 -0.1297  0.2740
11255TIP3    H155180   3.441   5.855  17.098 -1.0568 -0.7623 -0.3646
11255TIP3    H255181   3.475   5.982  17.023 -0.1136 -1.1248 -0.5600
11256TIP3   OH255182   3.217   3.715   0.256  0.0477  0.2117 -0.5328
11256TIP3    H155183   3.307   3.681   0.250 -0.2696 -1.0412  0.9515
11256TIP3    H255184   3.168   3.663   0.192  0.1992  0.2093 -0.6480
11257TIP3   OH255185   3.739   0.215  10.806  0.1497 -0.3294  0.0519
11257TIP3    H155186   3.780   0.296  10.837 -0.9364 -0.9902  3.7318
11257TIP3    H255187   3.654   0.242  10.772 -0.4238  0.1238  1.7319
11258TIP3   OH255188   6.322   0.441   2.131 -0.2665  0.1997 -0.4712
11258TIP3    H155189   6.256   0.505   2.156 -1.5435 -0.2721 -2.4382
11258TIP3    H255190   6.392   0.492   2.092  0.4987  0.6768  1.3914
11259TIP3   OH255191   3.520   4.438  17.072 -0.3190 -0.0102 -0.3283
11259TIP3    H155192   3.468   4.463  17.148  0.5294  1.2076 -0.1166
11259TIP3    H255193   3.589   4.504  17.067  1.1782 -1.5211 -0.6320
11260TIP3   OH255194   0.609   4.579   0.956  0.5327  0.4317  0.0048
11260TIP3    H155195   0.652   4.555   1.037 -0.0034  0.7911  0.4063
11260TIP3    H255196   0.580   4.669   0.969 -0.3424  0.2060 -0.2343
11261TIP3   OH255197   6.044   3.607   2.568 -0.4481 -0.1733  0.0743
11261TIP3    H155198   6.097   3.564   2.636  0.0564  0.1621 -0.1034
11261TIP3    H255199   5.977   3.654   2.617 -1.0604 -1.2187  0.2731
11262TIP3   OH255200   0.531   6.357  14.696  0.1164  0.0857 -0.1376
11262TIP3    H155201   0.497   6.430  14.645 -0.8478  0.2016  0.6316
11262TIP3    H255202   0.619   6.341  14.661 -0.1627  0.7597 -1.1800
11263TIP3   OH255203   1.979   4.852  12.837 -0.2173  0.1570  0.2087
11263TIP3    H155204   1.913   4.883  12.775 -0.8841  1.2359  1.4083
11263TIP3    H255205   2.033   4.792  12.786 -0.7784  0.9460 -1.3960
11264TIP3   OH255206   0.632   4.545   5.475  0.5750 -0.1927  0.5248
11264TIP3    H155207   0.724   4.526   5.496 -0.1008 -1.5748  2.4870
11264TIP3    H255208   0.637   4.602   5.398  2.9891 -2.1887 -0.9380
11265TIP3   OH255209   6.651   2.772   1.269  0.5844 -0.4588 -0.3307
11265TIP3    H155210   6.743   2.774   1.295  0.3312 -1.4794  0.7113
11265TIP3    H255211   6.653   2.771   1.173  1.5882  1.4286 -0.3878
11266TIP3   OH255212   3.325   2.411  10.677  0.2918  0.1485 -0.0843
11266TIP3    H155213   3.318   2.445  10.766  1.1399  1.7227 -0.5764
11266TIP3    H255214   3.248   2.444  10.632  0.2623  0.0164 -0.1303
11267TIP3   OH255215   5.740   4.682   2.952  0.3867  0.2596 -0.2105
11267TIP3    H155216   5.725   4.751   2.888  0.0910 -0.0149 -0.4432
11267TIP3    H255217   5.653   4.663   2.988  0.2183 -0.9389 -1.1442
11268TIP3   OH255218   2.169   5.224   5.802 -0.0107  0.0362  0.2685
11268TIP3    H155219   2.143   5.313   5.776  3.1141  0.5497 -1.5595
11268TIP3    H255220   2.257   5.234   5.836  0.7117 -2.4561 -0.6616
11269TIP3   OH255221   2.836   5.948   5.330 -0.4268  0.0065 -0.1707
11269TIP3    H155222   2.777   5.905   5.268  0.3457  0.3822 -1.1901
11269TIP3    H255223   2.807   6.039   5.332 -0.2306  0.0703 -0.2383
11270TIP3   OH255224   0.195   4.830  13.534 -0.2249 -0.5834 -0.1748
11270TIP3    H155225   0.252   4.765  13.493 -1.2578 -2.4180  1.1340
11270TIP3    H255226   0.120   4.837  13.475  0.3892  0.2719 -0.8660
11271TIP3   OH255227   2.322   0.189  15.881 -0.2317  1.0083  0.2690
11271TIP3    H155228   2.274   0.143  15.812 -0.5689  3.1246 -1.0160
11271TIP3    H255229   2.371   0.257  15.834  1.1359  1.2427  1.9389
11272TIP3   OH255230   0.978   3.030  11.370  0.1473 -0.0355  0.5483
11272TIP3    H155231   0.890   3.037  11.405 -0.1000 -0.7149  0.0823
11272TIP3    H255232   1.000   2.937  11.379  0.4766 -0.0281 -0.1398
11273TIP3   OH255233   2.245   0.726   1.607 -0.0099  0.0602 -0.7742
11273TIP3    H155234   2.288   0.758   1.528  0.8249  0.1287 -0.2990
11273TIP3    H255235   2.283   0.640   1.623  2.6491  1.5246  1.6196
11274TIP3   OH255236   1.231   4.658  12.216 -0.1415 -0.3319 -0.0989
11274TIP3    H155237   1.296   4.723  12.187 -0.4534 -0.0723 -0.2321
11274TIP3    H255238   1.191   4.698  12.293 -1.2331  0.2345 -0.9235
11275TIP3   OH255239   0.401   6.603  13.922 -0.8755  0.1089 -0.1225
11275TIP3    H155240   0.311   6.595  13.955 -1.0128  2.0158  0.0495
11275TIP3    H255241   0.393   6.588  13.828 -1.2229 -0.6146  0.0121
11276TIP3   OH255242   5.322   2.795   0.167  0.5691  0.5713  0.2147
11276TIP3    H155243   5.246   2.793   0.108  0.3708  2.6226  0.3270
11276TIP3    H255244   5.397   2.807   0.108  0.4831  1.5045  0.2800
11277TIP3   OH255245   6.622   3.669  16.359 -0.0326 -0.4984  0.2808
11277TIP3    H155246   6.584   3.587  16.391  1.5444 -1.5228 -0.3394
11277TIP3    H255247   6.685   3.694  16.426  2.3667 -1.9810 -1.2643
11278TIP3   OH255248   3.089   3.856  15.917 -0.1498  0.1423  0.0399
11278TIP3    H155249   3.141   3.777  15.925 -0.6050 -0.1419  0.2387
11278TIP3    H255250   3.015   3.831  15.863  0.0402  0.6072 -0.4483
11279TIP3   OH255251   6.722   6.610  14.538  0.3572 -0.0480 -0.5011
11279TIP3    H155252   6.697   6.521  14.511 -0.5826  0.1356 -0.2544
11279TIP3    H255253   6.762   6.598  14.624  1.5764 -0.3957 -1.0859
11280TIP3   OH255254   0.952   3.544  15.345 -0.3457 -0.4067  0.3247
11280TIP3    H155255   0.982   3.583  15.427 -0.8498 -0.1909  0.4098
11280TIP3    H255256   0.986   3.455  15.348  3.3248  0.7642 -1.1911
11281TIP3   OH255257   6.508   2.594  12.783 -0.3026  0.2506 -0.1902
11281TIP3    H155258   6.466   2.636  12.858 -0.5339  1.3256 -0.9085
11281TIP3    H255259   6.594   2.634  12.777  0.4917 -1.2366  0.6647
11282TIP3   OH255260   2.938   5.391   0.113 -0.1847 -0.1738 -0.3694
11282TIP3    H155261   2.938   5.377   0.208 -0.4294 -0.7828 -0.4588
11282TIP3    H255262   2.962   5.483   0.103 -0.4128 -0.0362  0.2934
11283TIP3   OH255263   4.929   6.462   1.907  0.2309  0.1259  0.2889
11283TIP3    H155264   4.929   6.422   1.994 -0.2517  1.6308  1.0162
11283TIP3    H255265   4.952   6.391   1.848 -0.0347 -1.0729  1.5775
11284TIP3   OH255266   3.992   4.859   4.097 -0.6867  0.3525 -0.6778
11284TIP3    H155267   3.977   4.801   4.172  0.9704  1.6329  0.6903
11284TIP3    H255268   3.945   4.939   4.119  1.2558  1.3868 -0.1317
11285TIP3   OH255269   1.106   6.169  16.229  0.4799  0.3265  0.0246
11285TIP3    H155270   1.197   6.149  16.252  1.0597  2.1263 -0.5282
11285TIP3    H255271   1.058   6.089  16.250  2.5226 -1.5037 -1.7519
11286TIP3   OH255272   6.145   6.228   4.351  0.1486 -0.4385  0.0706
11286TIP3    H155273   6.153   6.256   4.442  0.9366 -1.0892  0.2064
11286TIP3    H255274   6.169   6.136   4.351 -0.6312 -0.6502 -0.6729
11287TIP3   OH255275   2.711   2.543   2.610  0.0163 -0.4521  0.0932
11287TIP3    H155276   2.748   2.473   2.662  1.4980 -0.4443 -0.8978
11287TIP3    H255277   2.632   2.570   2.658  0.5633 -1.3733  1.5567
11288TIP3   OH255278   5.041   3.898  12.455 -0.3353  0.1814 -0.7178
11288TIP3    H155279   5.102   3.966  12.487  1.9418 -1.8225 -0.4946
11288TIP3    H255280   5.017   3.927  12.367  1.5690  0.7176 -1.1116
11289TIP3   OH255281   6.224   3.924   1.133  0.0552  0.0928  0.4460
11289TIP3    H155282   6.293   3.879   1.181 -1.7476 -1.5813  1.6091
11289TIP3    H255283   6.195   3.994   1.191 -1.2230 -1.1092  1.3343
11290TIP3   OH255284   6.369   6.116   6.073  0.1113 -0.3242 -0.4244
11290TIP3    H155285   6.279   6.142   6.090  0.7619  1.0032  1.2704
11290TIP3    H255286   6.380   6.034   6.122  0.3345  0.5176  0.9901
11291TIP3   OH255287   3.410   3.626   1.034  0.4133 -0.4728 -0.5234
11291TIP3    H155288   3.354   3.674   1.095 -0.7905 -1.6019 -0.6950
11291TIP3    H255289   3.470   3.692   1.000 -1.9934  1.2757 -1.7256
11292TIP3   OH255290   2.194   2.126  15.524 -0.2707  0.0814 -0.3570
11292TIP3    H155291   2.186   2.060  15.593 -1.5314 -0.4021 -0.9335
11292TIP3    H255292   2.282   2.114  15.489  0.5254  0.5643  1.3773
11293TIP3   OH255293   6.738   5.055  14.786 -0.1677  0.2303 -0.5681
11293TIP3    H155294   6.726   4.968  14.823  0.6985 -0.1179 -1.0689
11293TIP3    H255295   6.652   5.079  14.751 -0.3018 -0.6106 -0.8217
11294TIP3   OH255296   6.645   2.395   3.895 -0.0075  0.1705  0.6333
11294TIP3    H155297   6.719   2.438   3.939  0.9786 -0.8661  0.0379
11294TIP3    H255298   6.606   2.339   3.962  0.9330 -0.7191  0.4547
11295TIP3   OH255299   3.399   6.406   0.388 -0.2037 -0.4893  0.2505
11295TIP3    H155300   3.460   6.354   0.439 -0.9251 -0.8221  0.7833
11295TIP3    H255301   3.382   6.483   0.442  1.9291  1.0450 -1.1145
11296TIP3   OH255302   6.390   4.408   1.552  0.0495  0.2956 -0.6124
11296TIP3    H155303   6.384   4.494   1.593 -0.2751 -0.3995  0.8469
11296TIP3    H255304   6.300   4.378   1.547  0.2330 -0.3043 -0.3561
11297TIP3   OH255305   6.337   3.630  16.797 -0.5012 -0.4147 -0.5319
11297TIP3    H155306   6.417   3.578  16.805 -0.5914 -0.3300  1.4376
11297TIP3    H255307   6.267   3.564  16.789 -0.5887 -0.6827  1.7153
11298TIP3   OH255308   5.210   0.907   0.887 -0.2683 -0.1021  0.3497
11298TIP3    H155309   5.299   0.886   0.859 -0.3889  0.5757 -0.6134
11298TIP3    H255310   5.160   0.827   0.871 -0.2024  0.0697 -0.8713
11299TIP3   OH255311   1.510   0.977   6.118  0.3458  0.0031  0.2732
11299TIP3    H155312   1.517   1.070   6.142 -0.3717  0.1745 -0.1387
11299TIP3    H255313   1.416   0.958   6.125  0.3912 -0.4905 -0.3512
11300TIP3   OH255314   1.536   1.927   0.906  0.2765 -0.0385  0.1059
11300TIP3    H155315   1.553   1.920   1.000 -0.4351  2.4650  0.4972
11300TIP3    H255316   1.441   1.927   0.899  0.3261 -0.2368 -0.6192
11301TIP3   OH255317   4.090   6.649  14.300 -0.0154 -0.2634  0.1048
11301TIP3    H155318   4.160   6.713  14.315 -0.0505 -0.2610  0.2579
11301TIP3    H255319   4.127   6.588  14.237 -0.1072  0.1055 -0.3072
11302TIP3   OH255320   3.896   0.287   2.423 -0.0767  0.4865  0.2732
11302TIP3    H155321   3.802   0.276   2.417 -0.5115  1.8211  3.0096
11302TIP3    H255322   3.928   0.202   2.455 -0.4188  0.2349 -0.0459
11303TIP3   OH255323   1.292   5.439  14.523 -0.4401  0.0863  0.6894
11303TIP3    H155324   1.360   5.372  14.527  0.5935  1.1252  1.3537
11303TIP3    H255325   1.291   5.467  14.431  0.6026  0.5951  0.8147
11304TIP3   OH255326   3.661   4.161  16.374  0.6503 -0.1035 -0.2027
11304TIP3    H155327   3.735   4.128  16.323  2.0716  1.4572  0.7192
11304TIP3    H255328   3.697   4.171  16.463 -0.9769 -0.2500  0.5006
11305TIP3   OH255329   2.213   4.342   0.489  0.0893  0.2531  0.6565
11305TIP3    H155330   2.165   4.386   0.418 -0.0550  0.4711  0.8882
11305TIP3    H255331   2.300   4.328   0.453 -1.0567 -3.4868 -1.1954
11306TIP3   OH255332   0.228   1.067   2.109 -0.2191 -0.2338 -0.1945
11306TIP3    H155333   0.319   1.079   2.079 -0.6073  0.7633 -1.0384
11306TIP3    H255334   0.225   0.977   2.140  0.7807 -0.6415 -1.2107
11307TIP3   OH255335   4.700   4.444   1.378 -0.4933 -0.2429 -0.2022
11307TIP3    H155336   4.676   4.499   1.304 -1.0941 -0.4105 -0.1399
11307TIP3    H255337   4.703   4.355   1.342 -0.7260 -0.3177 -0.0368
11308TIP3   OH255338   1.171   1.961   0.558  0.0738 -0.4631  0.6688
11308TIP3    H155339   1.257   2.000   0.577 -0.7790  1.1990  1.3026
11308TIP3    H255340   1.109   2.015   0.606 -1.2325 -2.5242  1.4331
11309TIP3   OH255341   1.688   6.686   3.572  0.3315 -0.0561  0.0687
11309TIP3    H155342   1.771   6.712   3.532 -0.0318 -0.4430 -0.9836
11309TIP3    H255343   1.666   6.758   3.631  1.3045  0.1531  0.1908
11310TIP3   OH255344   1.105   6.322   2.545  0.2615 -0.3851  0.2897
11310TIP3    H155345   1.036   6.266   2.510 -0.6593  0.8150  0.1251
11310TIP3    H255346   1.060   6.383   2.602  1.3250 -0.1881  0.9521
11311TIP3   OH255347   4.464   6.483  14.236  0.1230  0.0500 -0.0253
11311TIP3    H155348   4.474   6.486  14.331 -2.9632  1.8492  0.3897
11311TIP3    H255349   4.502   6.566  14.206  1.1494 -0.5426 -0.4089
11312TIP3   OH255350   5.411   4.623  11.042 -0.7053  0.3627 -0.1456
11312TIP3    H155351   5.426   4.706  10.997  1.2886 -0.1051 -0.4410
11312TIP3    H255352   5.323   4.596  11.013 -1.1499  2.0663 -0.4864
11313TIP3   OH255353   2.817   1.641  11.765  0.5677 -0.0373  0.0626
11313TIP3    H155354   2.797   1.731  11.736  1.5791 -0.4849 -2.2504
11313TIP3    H255355   2.884   1.652  11.832 -0.8519  1.0040  1.3813
11314TIP3   OH255356   4.458   0.175   0.747 -0.4712 -0.4568  0.2571
11314TIP3    H155357   4.453   0.190   0.841 -0.9293 -1.4639  0.4170
11314TIP3    H255358   4.417   0.089   0.735 -0.8978 -0.1090 -0.9241
11315TIP3   OH255359   1.032   6.625  13.228 -0.1029  0.0528  0.7040
11315TIP3    H155360   1.026   6.546  13.174 -2.1462  1.5903 -1.5249
11315TIP3    H255361   1.099   6.679  13.184  0.3814  0.1005  1.4844
11316TIP3   OH255362   1.866   2.595  14.488 -0.2901  0.2189  0.1229
11316TIP3    H155363   1.797   2.571  14.550  0.0143  0.3919  0.5397
11316TIP3    H255364   1.822   2.601  14.404 -0.8170  0.4748  0.4113
11317TIP3   OH255365   3.507   1.162  16.447  0.0926 -0.1456 -0.1361
11317TIP3    H155366   3.567   1.111  16.500  1.0913 -1.5022 -2.4117
11317TIP3    H255367   3.511   1.121  16.360 -3.1086  0.5399 -0.7471
11318TIP3   OH255368   1.850   1.336  14.115 -0.1253 -0.2885  0.1850
11318TIP3    H155369   1.883   1.295  14.195 -0.6430  1.4979  1.3746
11318TIP3    H255370   1.871   1.273  14.046 -1.5217 -2.9051  1.9447
11319TIP3   OH255371   2.009   2.314  15.045 -0.2410  0.3852  0.1159
11319TIP3    H155372   1.915   2.298  15.031 -0.2985  1.2101 -0.5438
11319TIP3    H255373   2.031   2.381  14.981  0.8949 -0.0602  0.0314
11320TIP3   OH255374   1.676   6.021   5.358 -0.4543  0.1682 -0.5881
11320TIP3    H155375   1.597   5.998   5.309  0.0469  0.2403 -1.4570
11320TIP3    H255376   1.723   5.939   5.371 -0.6619  0.1269 -0.0848
11321TIP3   OH255377   0.708   3.430   1.338 -0.1227  0.4543  0.4354
11321TIP3    H155378   0.731   3.496   1.404  1.2507  1.8959 -1.3889
11321TIP3    H255379   0.775   3.439   1.271  0.1573 -2.9052  0.1145
11322TIP3   OH255380   2.940   5.727  12.122 -0.5282  0.0689  1.0133
11322TIP3    H155381   2.943   5.648  12.069 -1.0037  0.1520  0.8594
11322TIP3    H255382   2.944   5.799  12.059  0.3972  0.1719  1.1816
11323TIP3   OH255383   6.696   0.924  13.206  0.4146  0.5422  0.1775
11323TIP3    H155384   6.695   0.988  13.277  1.7450  1.3663 -0.5039
11323TIP3    H255385   6.789   0.903  13.193  0.0107 -2.0684  0.8210
11324TIP3   OH255386   4.501   5.317   3.988  0.4598 -0.3626  0.2920
11324TIP3    H155387   4.493   5.306   4.082 -1.5236 -0.3446  0.1574
11324TIP3    H255388   4.594   5.299   3.970  1.2210  1.1055  2.4043
11325TIP3   OH255389   4.492   0.128   2.396  0.1664 -0.4431 -0.3233
11325TIP3    H155390   4.450   0.212   2.374  0.5334 -0.6488 -1.9677
11325TIP3    H255391   4.515   0.137   2.488  0.0140  1.1950 -0.3989
11326TIP3   OH255392   6.666   0.220  16.497 -1.0441 -0.1874  0.1637
11326TIP3    H155393   6.749   0.226  16.450 -0.9543 -0.4107  0.2909
11326TIP3    H255394   6.634   0.132  16.478 -1.1441 -0.1798  0.2958
11327TIP3   OH255395   3.948   1.070   2.297  0.2741 -0.0754  0.8327
11327TIP3    H155396   4.023   1.061   2.238  0.4252 -3.5665  1.3670
11327TIP3    H255397   3.871   1.063   2.241  0.3079  1.6129  0.5224
11328TIP3   OH255398   3.237   3.235   2.818 -0.0758  0.0217  0.1790
11328TIP3    H155399   3.302   3.259   2.752  1.0709 -1.4478  0.7155
11328TIP3    H255400   3.261   3.146   2.844 -1.0787  0.2047  1.8799
11329TIP3   OH255401   0.012   6.276  10.838  0.0505  0.4973  0.3813
11329TIP3    H155402  -0.043   6.345  10.874 -0.8371  0.1466 -0.2778
11329TIP3    H255403   0.027   6.303  10.747 -0.3899 -0.2157  0.0896
11330TIP3   OH255404   1.778   3.011   3.897  0.1396 -0.9662 -0.2568
11330TIP3    H155405   1.793   3.106   3.901  1.2390 -0.9068 -3.2062
11330TIP3    H255406   1.715   2.994   3.967  0.5208  1.7971  0.8999
11331TIP3   OH255407   3.389   5.717   0.883  0.4417 -0.2242 -0.0880
11331TIP3    H155408   3.330   5.668   0.941  2.9405 -0.6871  2.3238
11331TIP3    H255409   3.344   5.800   0.867 -1.6895 -1.2981 -0.0788
11332TIP3   OH255410   5.955   1.435   6.271  0.1432 -0.1899 -0.6369
11332TIP3    H155411   6.034   1.489   6.267 -0.1458  0.3055  0.0611
11332TIP3    H255412   5.888   1.494   6.307 -0.6390 -0.4884 -1.5747
11333TIP3   OH255413   2.034   5.406   0.420  0.1636 -0.5547  0.1571
11333TIP3    H155414   2.073   5.353   0.351 -0.7359 -1.2831  0.1974
11333TIP3    H255415   2.025   5.346   0.494  0.2591 -0.0218  0.6098
11334TIP3   OH255416   2.588   0.613  16.736 -0.4741 -0.5932  0.2420
11334TIP3    H155417   2.675   0.583  16.707 -0.2326 -0.8081  1.1589
11334TIP3    H255418   2.595   0.617  16.831 -1.6164 -1.0641  0.3580
11335TIP3   OH255419   6.233   5.939   2.747 -0.0956 -0.6029  0.5366
11335TIP3    H155420   6.277   5.855   2.756  0.9156  0.0011  1.5920
11335TIP3    H255421   6.301   6.004   2.767 -0.5886  0.5255 -1.1777
11336TIP3   OH255422   4.150   6.269   5.204  0.0313  0.3326 -0.4769
11336TIP3    H155423   4.056   6.251   5.213 -0.0071  1.1472  1.2039
11336TIP3    H255424   4.182   6.272   5.294  1.6917  0.0264 -1.0257
11337TIP3   OH255425   5.844   3.061  13.844 -0.3840 -0.1086  0.4126
11337TIP3    H155426   5.879   3.145  13.875  1.2318 -1.1252  1.5145
11337TIP3    H255427   5.776   3.039  13.908  0.9446 -0.8021  1.6615
11338TIP3   OH255428   1.277   2.247   2.853  0.2094 -0.1001  0.2092
11338TIP3    H155429   1.243   2.298   2.926  1.1203 -0.4898  0.9321
11338TIP3    H255430   1.324   2.310   2.799 -1.2471  0.3648 -0.5747
11339TIP3   OH255431   2.198   0.161  14.332 -0.0731 -0.0056  0.2205
11339TIP3    H155432   2.151   0.163  14.248  0.2737 -1.0695 -0.0146
11339TIP3    H255433   2.181   0.247  14.371  1.9811  1.5935 -2.1444
11340TIP3   OH255434   2.910   2.089  10.666  0.1174 -0.1635 -0.2960
11340TIP3    H155435   2.897   2.001  10.629  1.0063 -0.1917 -0.5834
11340TIP3    H255436   2.944   2.141  10.593 -0.2868  0.3908 -0.0940
11341TIP3   OH255437   5.506   6.034   3.530 -0.1237  0.6354  0.1655
11341TIP3    H155438   5.417   6.023   3.566 -0.1668  1.4194  0.3170
11341TIP3    H255439   5.564   6.024   3.605 -0.1514  1.1851  0.2658
11342TIP3   OH255440   1.597   6.378  14.144  0.2908 -0.4015  0.2687
11342TIP3    H155441   1.513   6.348  14.180  0.0142 -0.5416 -0.4757
11342TIP3    H255442   1.655   6.303  14.154  0.0761 -0.6108 -0.0233
11343TIP3   OH255443   5.861   3.799  11.267  0.1786  0.7004 -0.1886
11343TIP3    H155444   5.852   3.735  11.197  0.0717  2.1078 -1.5071
11343TIP3    H255445   5.780   3.850  11.265  0.3261  1.0066  0.7294
11344TIP3   OH255446   4.485   2.694  17.152  0.1533  0.3504 -0.1986
11344TIP3    H155447   4.408   2.696  17.096 -0.7102  0.2082  0.9515
11344TIP3    H255448   4.469   2.761  17.218 -0.0544 -1.1457  1.3597
11345TIP3   OH255449   4.863   3.669   0.757 -0.1367  0.3026 -0.1930
11345TIP3    H155450   4.915   3.697   0.832  0.7605  0.0882 -0.7198
11345TIP3    H255451   4.923   3.615   0.706 -1.2731 -1.0645 -0.1339
11346TIP3   OH255452   6.656   6.130  11.044 -0.3394 -0.7592 -0.2901
11346TIP3    H155453   6.713   6.185  10.991 -1.7641 -0.4702 -1.5812
11346TIP3    H255454   6.716   6.085  11.104  1.0077  1.1839 -0.0685
11347TIP3   OH255455   0.706   6.248   0.992 -0.1506 -0.6245  0.2862
11347TIP3    H155456   0.780   6.246   0.932 -0.1900 -1.7984  0.2385
11347TIP3    H255457   0.746   6.261   1.078 -0.0282  0.2876  0.0971
11348TIP3   OH255458   1.597   4.564   1.128  0.5586 -0.4750 -0.5415
11348TIP3    H155459   1.670   4.506   1.107 -0.3905 -1.5170 -1.0591
11348TIP3    H255460   1.536   4.553   1.055  0.1118  0.7879 -0.3836
11349TIP3   OH255461   3.467   0.973   4.293  0.1223  0.3635  0.1272
11349TIP3    H155462   3.540   0.911   4.296 -0.3342 -0.1917 -0.1353
11349TIP3    H255463   3.443   0.986   4.385 -0.9436 -1.2514  0.1148
11350TIP3   OH255464   0.949   1.788   3.666 -0.3405 -0.4796  0.3206
11350TIP3    H155465   0.944   1.853   3.596 -0.1333 -0.8364 -0.0261
11350TIP3    H255466   1.006   1.829   3.731  0.9135 -0.8551 -0.4987
11351TIP3   OH255467   5.359   0.814  12.770  0.0772 -0.2492 -0.1144
11351TIP3    H155468   5.359   0.738  12.711 -0.6866 -0.5471  0.2496
11351TIP3    H255469   5.450   0.822  12.799 -0.2430 -2.6421  1.8660
11352TIP3   OH255470   1.793   2.859  16.777 -0.0703 -0.0119  0.4972
11352TIP3    H155471   1.720   2.888  16.722 -0.8536 -0.5875  1.2130
11352TIP3    H255472   1.860   2.927  16.766 -0.1491 -0.1653 -1.2645
11353TIP3   OH255473   6.426   5.689  16.252  0.0795  0.0798 -0.0384
11353TIP3    H155474   6.378   5.750  16.195  0.1134  3.5294  3.2115
11353TIP3    H255475   6.517   5.694  16.221  0.1530  2.1099  0.3631
11354TIP3   OH255476   4.005   4.718  14.630 -0.3558  0.3051  0.1017
11354TIP3    H155477   3.998   4.793  14.690 -1.4540 -0.1820  0.6052
11354TIP3    H255478   3.936   4.658  14.659  0.1342 -0.6454 -0.6652
11355TIP3   OH255479   0.227   2.015  10.507  0.2839 -0.4029  0.6218
11355TIP3    H155480   0.315   2.027  10.543  0.5818 -2.0268  0.5190
11355TIP3    H255481   0.173   1.996  10.582  0.0550  0.3380  0.6541
11356TIP3   OH255482   1.286   4.771  13.987  0.0826  0.6561 -0.0954
11356TIP3    H155483   1.238   4.773  13.904 -0.2623 -0.3386  0.0672
11356TIP3    H255484   1.276   4.681  14.018  1.9602  0.4563  0.0032
11357TIP3   OH255485   1.597   3.565  13.676  0.4897  0.2840  0.4036
11357TIP3    H155486   1.654   3.603  13.610 -0.5585  1.4380  0.1224
11357TIP3    H255487   1.509   3.597  13.654 -0.2696 -1.3661  0.8594
11358TIP3   OH255488   3.942   2.354   1.180 -0.3799 -0.2737  0.0615
11358TIP3    H155489   3.962   2.262   1.200 -0.6581 -0.5257 -0.7483
11358TIP3    H255490   3.846   2.358   1.181 -0.4048  0.7173  3.0454
11359TIP3   OH255491   1.868   3.725   2.831 -0.2258 -0.3819 -0.3236
11359TIP3    H155492   1.838   3.683   2.912  0.5467 -1.1643 -0.4257
11359TIP3    H255493   1.828   3.812   2.833  1.6962  0.5735  2.1373
11360TIP3   OH255494   3.146   0.260   1.174  0.0371  0.1208  0.0474
11360TIP3    H155495   3.084   0.307   1.229  1.2757  0.5579  1.1479
11360TIP3    H255496   3.232   0.281   1.212  1.1040  1.4091 -2.7629
11361TIP3   OH255497   1.775   3.095  12.447 -0.1059 -0.2085 -0.3400
11361TIP3    H155498   1.860   3.078  12.406 -0.6094 -2.4928 -0.5599
11361TIP3    H255499   1.796   3.146  12.526  1.4926 -0.8287 -0.3281
11362TIP3   OH255500   6.342   3.279  16.722  0.0806  0.1336 -0.5721
11362TIP3    H155501   6.337   3.292  16.816  0.6615  1.9294 -0.7606
11362TIP3    H255502   6.252   3.257  16.697  0.0139 -0.8192  0.4445
11363TIP3   OH255503   4.590   3.144  16.173  0.3143 -0.5468  0.4762
11363TIP3    H155504   4.657   3.199  16.215 -0.3394 -1.0546  2.2666
11363TIP3    H255505   4.610   3.055  16.203 -0.5153 -0.8573  0.1282
11364TIP3   OH255506   6.376   4.501  14.158  0.1338 -0.3132  0.4632
11364TIP3    H155507   6.433   4.519  14.233 -0.1106 -0.8845  0.7913
11364TIP3    H255508   6.298   4.460  14.196 -0.1151 -0.3506 -0.0750
11365TIP3   OH255509   0.714   0.452  11.079 -0.0847  0.0593  0.2448
11365TIP3    H155510   0.682   0.423  11.164 -0.6869 -0.7316 -0.2374
11365TIP3    H255511   0.707   0.548  11.082 -0.0674  0.0353  1.0943
11366TIP3   OH255512   1.104   3.491  14.274  0.5571  0.0720 -0.5662
11366TIP3    H155513   1.143   3.436  14.342 -2.2409 -1.7519 -0.2707
11366TIP3    H255514   1.075   3.430  14.207 -2.1571  1.1725 -0.5204
11367TIP3   OH255515   6.419   3.452   0.385 -0.1475 -0.0738  0.4217
11367TIP3    H155516   6.368   3.526   0.351 -1.2611 -0.6476  0.7819
11367TIP3    H255517   6.508   3.486   0.392  0.0030  0.2924 -2.3107
11368TIP3   OH255518   6.533   1.078  11.198  0.0895 -0.3589 -0.6119
11368TIP3    H155519   6.624   1.052  11.184  0.0853 -0.1872 -0.9697
11368TIP3    H255520   6.522   1.077  11.293  0.7324  0.5251 -0.5149
11369TIP3   OH255521   4.252   4.409  10.120 -0.5519  0.1526 -0.0659
11369TIP3    H155522   4.283   4.351  10.189 -0.2986  0.0723 -0.2476
11369TIP3    H255523   4.168   4.372  10.093 -0.9333  0.5099  0.5987
11370TIP3   OH255524   1.133   4.688   6.362  0.1541 -0.4142  0.4361
11370TIP3    H155525   1.075   4.732   6.300  1.0437 -0.6985 -0.6296
11370TIP3    H255526   1.144   4.599   6.327  0.5172 -0.6457  1.1061
11371TIP3   OH255527   1.449   4.793  11.361 -0.2304  0.2323 -0.1852
11371TIP3    H155528   1.386   4.865  11.373 -1.1399 -0.3852 -1.0058
11371TIP3    H255529   1.444   4.774  11.267  0.9033 -0.1041 -0.1870
11372TIP3   OH255530   4.584   2.125   4.187 -0.1580  0.4833  0.4766
11372TIP3    H155531   4.545   2.164   4.109  0.8992 -0.1959 -0.4237
11372TIP3    H255532   4.626   2.199   4.231  2.1046  0.4411 -1.3826
11373TIP3   OH255533   3.222   4.223   1.942 -0.4156 -0.5166 -0.1661
11373TIP3    H155534   3.129   4.227   1.922 -0.2859  0.1336 -0.6854
11373TIP3    H255535   3.245   4.312   1.970 -0.0807 -0.8262  0.5586
11374TIP3   OH255536   4.332   1.350   3.976 -0.3561 -0.0258 -0.4065
11374TIP3    H155537   4.283   1.403   3.912  2.4175  1.2835 -1.5913
11374TIP3    H255538   4.371   1.280   3.924 -0.5659 -0.7762  0.4271
11375TIP3   OH255539   6.383   0.166   1.515  0.7336 -0.1011 -0.1224
11375TIP3    H155540   6.365   0.072   1.521  0.3230 -0.0933 -0.9868
11375TIP3    H255541   6.348   0.191   1.429  0.9959  0.8069  0.0267
11376TIP3   OH255542   5.552   0.639   5.695 -0.3518  0.1188 -0.0971
11376TIP3    H155543   5.465   0.618   5.728 -0.5500  0.1341 -0.5977
11376TIP3    H255544   5.559   0.734   5.707 -0.2316  0.0558  0.3435
11377TIP3   OH255545   0.068   0.407   1.650  0.2196 -0.9764  0.1502
11377TIP3    H155546   0.100   0.471   1.714  1.2294 -1.4146  0.1097
11377TIP3    H255547   0.018   0.459   1.588 -0.7542 -0.5419  1.2667
11378TIP3   OH255548   3.595   6.126   3.521  0.5030 -0.2292  0.3812
11378TIP3    H155549   3.640   6.063   3.466  1.7213  1.4086 -0.5989
11378TIP3    H255550   3.537   6.073   3.576  1.8127 -2.2070 -0.0371
11379TIP3   OH255551   5.543   2.168  16.130  0.1623  0.1940 -0.0831
11379TIP3    H155552   5.562   2.133  16.042  1.3472 -1.7728  0.8884
11379TIP3    H255553   5.449   2.154  16.141  0.5890 -3.1615  0.3517
11380TIP3   OH255554   4.844   5.852  17.078 -0.3500 -0.5492 -0.1003
11380TIP3    H155555   4.898   5.912  17.129  0.4595 -1.7847  0.5665
11380TIP3    H255556   4.831   5.777  17.135 -1.6456 -0.8576 -0.7701
11381TIP3   OH255557   4.188   1.601   0.095 -0.2811  0.1735 -0.6744
11381TIP3    H155558   4.172   1.513   0.060  0.3543 -0.2618  0.0960
11381TIP3    H255559   4.127   1.657   0.048 -1.6022 -0.8739 -0.2688
11382TIP3   OH255560   0.726   3.503   0.748 -0.1305  0.4187  0.4281
11382TIP3    H155561   0.660   3.451   0.702 -0.1590  1.1143 -0.3336
11382TIP3    H255562   0.693   3.510   0.837 -0.9800  0.5517  0.1149
11383TIP3   OH255563   5.448   2.024   3.817 -0.5966 -0.6320  0.0413
11383TIP3    H155564   5.424   2.025   3.910 -1.3843  0.3978 -0.1518
11383TIP3    H255565   5.494   2.107   3.803 -0.8573 -0.5833 -0.5725
11384TIP3   OH255566   2.743   3.929  11.035  0.2343  0.4451 -0.2664
11384TIP3    H155567   2.772   3.840  11.053  3.4831  1.6581  1.4617
11384TIP3    H255568   2.724   3.930  10.941  0.3836 -1.9606 -0.3738
11385TIP3   OH255569   1.058   1.988  13.880  0.0712  0.1128  0.4386
11385TIP3    H155570   0.987   1.978  13.943  0.2043 -1.6640  0.3587
11385TIP3    H255571   1.014   2.009  13.798 -0.7587 -3.9784 -0.3550
11386TIP3   OH255572   4.100   1.885   1.088  0.6387 -0.1820  0.1602
11386TIP3    H155573   4.062   1.853   1.170 -0.8691  2.4598  0.5998
11386TIP3    H255574   4.195   1.880   1.103  0.4180  0.8551  2.3932
11387TIP3   OH255575   3.156   1.051   1.831 -0.3366 -0.2631 -0.2394
11387TIP3    H155576   3.098   1.098   1.891 -1.8046 -2.5330  0.2414
11387TIP3    H255577   3.112   1.055   1.746 -0.1977 -0.2786 -0.3117
11388TIP3   OH255578   0.872   2.341  12.017 -0.8801 -0.8966 -0.3193
11388TIP3    H155579   0.879   2.327  11.922 -1.7266 -0.4939 -0.4522
11388TIP3    H255580   0.902   2.431  12.030 -1.8364 -0.5542 -0.3699
11389TIP3   OH255581   3.356   2.088  16.508  0.2625 -0.4050 -0.4444
11389TIP3    H155582   3.389   2.128  16.428  0.4021 -2.2314 -1.3420
11389TIP3    H255583   3.270   2.128  16.521  0.7823  0.8738 -0.7386
11390TIP3   OH255584   0.931   3.527   1.189 -0.2097 -0.4276 -0.1084
11390TIP3    H155585   1.001   3.543   1.252  0.1993 -0.6085 -0.5076
11390TIP3    H255586   0.977   3.505   1.108 -0.7116 -2.4238  0.0962
11391TIP3   OH255587   3.536   0.361   0.208 -0.0781 -0.3008 -0.5500
11391TIP3    H155588   3.626   0.332   0.194 -0.2750 -1.2763  0.1253
11391TIP3    H255589   3.488   0.328   0.132  0.1498  0.3320 -0.9758
11392TIP3   OH255590   2.060   1.614  11.541  0.9727 -0.1979 -0.2139
11392TIP3    H155591   2.052   1.563  11.460  0.8095  1.6452 -1.4373
11392TIP3    H255592   2.124   1.567  11.593 -2.4646 -4.2385  0.9050
11393TIP3   OH255593   4.391   5.544   4.194 -0.3043 -0.2179 -0.6007
11393TIP3    H155594   4.360   5.573   4.109  1.4284 -2.2224 -2.0132
11393TIP3    H255595   4.479   5.581   4.201 -0.7199  0.6172  0.7504
11394TIP3   OH255596   3.935   4.260   4.563  0.2397 -0.6459 -0.1870
11394TIP3    H155597   3.872   4.235   4.496  0.5749 -0.2654 -0.6485
11394TIP3    H255598   3.887   4.322   4.618 -0.1604 -1.2538  0.1664
11395TIP3   OH255599   4.496   4.514   0.953 -0.0221 -0.1459  0.1079
11395TIP3    H155600   4.550   4.539   1.028  1.2087  1.1106 -1.1364
11395TIP3    H255601   4.406   4.536   0.979  0.3928  0.3655  1.1514
11396TIP3   OH255602   6.189   0.924   5.584  0.5081 -0.4968  0.1724
11396TIP3    H155603   6.146   0.987   5.526  1.1468 -0.2866 -0.0918
11396TIP3    H255604   6.118   0.880   5.630  0.0799  1.2915  1.3062
11397TIP3   OH255605   1.039   5.118  16.311 -0.3014  0.7232  0.5499
11397TIP3    H155606   0.957   5.078  16.339  0.7285 -2.0597 -0.0916
11397TIP3    H255607   1.073   5.162  16.389 -1.7095  0.7549  1.1718
11398TIP3   OH255608   1.712   5.082  15.854  0.2723  0.1268 -0.4506
11398TIP3    H155609   1.623   5.081  15.820  0.1903  0.8255 -0.2660
11398TIP3    H255610   1.729   5.174  15.875  0.8627 -0.0725 -0.0298
11399TIP3   OH255611   6.029   5.486   0.637 -0.6821 -0.0770  0.1692
11399TIP3    H155612   6.063   5.534   0.562 -0.6960 -1.5586 -0.8467
11399TIP3    H255613   6.104   5.435   0.668 -0.2880  1.5839  2.1107
11400TIP3   OH255614   0.288   0.249  13.507  0.1325  0.3549 -0.5228
11400TIP3    H155615   0.237   0.229  13.429 -0.0564 -0.6288 -0.1603
11400TIP3    H255616   0.226   0.290  13.567 -0.9445 -2.9473  0.8487
11401TIP3   OH255617   5.430   1.959  13.604 -0.2965  0.5340 -0.4312
11401TIP3    H155618   5.494   1.983  13.670 -1.6242 -0.1012  1.1486
11401TIP3    H255619   5.436   2.028  13.538  2.5532  0.0556 -0.7781
11402TIP3   OH255620   5.454   3.338   1.188 -0.0915 -0.7321 -0.0702
11402TIP3    H155621   5.493   3.254   1.213 -0.6237 -0.2956  2.5528
11402TIP3    H255622   5.391   3.316   1.120  1.1729 -2.1400 -0.8527
11403TIP3   OH255623   4.670   5.724   4.266  0.0790  0.7640 -0.0185
11403TIP3    H155624   4.598   5.747   4.325  0.0740  1.5953 -0.3266
11403TIP3    H255625   4.699   5.638   4.295 -0.0687  1.0600  1.0554
11404TIP3   OH255626   2.010   2.428  16.306 -0.3611 -0.2976  0.5277
11404TIP3    H155627   2.044   2.490  16.242 -0.4726 -0.9028 -0.1273
11404TIP3    H255628   2.028   2.342  16.268  1.7957 -0.7855  2.3654
11405TIP3   OH255629   5.764   1.888  11.328  0.3310  0.0809 -0.1532
11405TIP3    H155630   5.758   1.968  11.275  3.4763  0.9852  0.6549
11405TIP3    H255631   5.805   1.824  11.269 -1.0065 -0.5930 -0.3914
11406TIP3   OH255632   3.060   6.704   6.035  0.2487 -0.0088  0.1464
11406TIP3    H155633   3.037   6.629   5.979  1.0750  0.2008 -0.4911
11406TIP3    H255634   3.079   6.775   5.973  0.1771  0.5292  0.7301
11407TIP3   OH255635   2.829   2.137   4.193 -1.0288 -0.1166 -0.1584
11407TIP3    H155636   2.835   2.055   4.243  0.4710 -0.5039 -0.9109
11407TIP3    H255637   2.890   2.124   4.120  0.0147  2.0452  0.2518
11408TIP3   OH255638   1.606   4.583  12.267  0.4287 -0.6864 -0.2749
11408TIP3    H155639   1.674   4.616  12.326  0.4461 -1.6199  0.2440
11408TIP3    H255640   1.558   4.661  12.239  0.5521 -0.2062  0.8164
11409TIP3   OH255641   2.141   6.109  17.105  0.5857  0.1561 -0.5191
11409TIP3    H155642   2.112   6.089  17.194  1.1609 -1.9142 -0.7511
11409TIP3    H255643   2.126   6.204  17.096 -1.4987  0.0422  1.0055
11410TIP3   OH255644   5.153   5.648   1.619  0.1450 -0.4707  0.3751
11410TIP3    H155645   5.206   5.582   1.664  0.9988 -0.4933 -0.6183
11410TIP3    H255646   5.190   5.732   1.647  0.1677 -0.4644  0.3263
11411TIP3   OH255647   1.690   5.283   5.944  0.0966 -0.1693  0.2757
11411TIP3    H155648   1.750   5.236   5.886  0.5620 -0.2893  0.8551
11411TIP3    H255649   1.617   5.222   5.957 -0.3328  0.1155 -0.7170
11412TIP3   OH255650   1.830   0.632   4.446 -0.3653 -0.1338  0.0506
11412TIP3    H155651   1.888   0.589   4.510  0.7211  0.3616 -0.5704
11412TIP3    H255652   1.889   0.661   4.376 -0.9106  2.9682  0.7375
11413TIP3   OH255653   6.523   4.615   2.439 -0.2632  0.5553 -0.3701
11413TIP3    H155654   6.581   4.671   2.387  1.6882 -0.8015  0.2443
11413TIP3    H255655   6.549   4.631   2.529  1.2291 -2.1665 -0.2232
11414TIP3   OH255656   0.453   2.377  10.995 -0.5822  0.1423 -0.1068
11414TIP3    H155657   0.546   2.355  10.996  0.0793  2.7089  0.7058
11414TIP3    H255658   0.436   2.406  10.905 -0.3576  0.6457  0.0158
11415TIP3   OH255659   1.738   2.289  15.034 -0.0137 -0.1266  0.0235
11415TIP3    H155660   1.686   2.209  15.042  0.4222 -0.3950  0.1968
11415TIP3    H255661   1.728   2.317  14.943 -1.3629  0.4404  0.3212
11416TIP3   OH255662   0.042   4.530   1.871 -0.1937  0.4250  0.2436
11416TIP3    H155663  -0.043   4.525   1.827 -0.5164 -1.2308  0.9639
11416TIP3    H255664   0.021   4.547   1.963 -0.1020 -3.3208  1.1391
11417TIP3   OH255665   6.303   1.184  17.055  0.1114  0.3240  0.7946
11417TIP3    H155666   6.341   1.272  17.048  1.3533 -0.0211  2.5769
11417TIP3    H255667   6.209   1.199  17.060  0.3012  1.5639  1.0143
11418TIP3   OH255668   5.366   4.413  16.010 -0.1908  0.8445 -0.3241
11418TIP3    H155669   5.444   4.417  16.066  0.2989 -1.7335 -0.7088
11418TIP3    H255670   5.298   4.455  16.063  0.9410  1.1786  0.9413
11419TIP3   OH255671   5.863   4.882   4.265  0.1283  0.5591 -0.0223
11419TIP3    H155672   5.882   4.925   4.182  0.5463 -0.4268 -0.4509
11419TIP3    H255673   5.769   4.897   4.278 -0.0475  0.3228 -0.9152
11420TIP3   OH255674   2.182   5.497   5.775  0.1306 -0.0514  0.2411
11420TIP3    H155675   2.168   5.570   5.715  0.8651  0.5508  0.7830
11420TIP3    H255676   2.154   5.530   5.860  2.2906  0.3015  0.8597
11421TIP3   OH255677   2.360   0.074   3.506 -0.1659  0.1960  0.2961
11421TIP3    H155678   2.409   0.043   3.430  0.5805  0.2900  0.7269
11421TIP3    H255679   2.427   0.111   3.564 -0.9059  1.6472  0.2670
11422TIP3   OH255680   3.118   5.518   3.784  0.0152  0.7715  0.0239
11422TIP3    H155681   3.075   5.591   3.739 -1.2477  0.4128  0.5893
11422TIP3    H255682   3.159   5.468   3.715 -0.4982  1.1273 -0.5533
11423TIP3   OH255683   6.664   5.140   4.146  0.4920  0.0317 -0.3060
11423TIP3    H155684   6.612   5.216   4.120  0.0044 -0.2018 -0.0271
11423TIP3    H255685   6.602   5.082   4.191  1.0652 -0.0941  0.3440
11424TIP3   OH255686   6.417   4.169   0.198 -0.1543  0.7256  0.1252
11424TIP3    H155687   6.468   4.103   0.151 -2.0505  0.4216 -1.6632
11424TIP3    H255688   6.357   4.204   0.132 -1.0123  2.3701  1.6769
11425TIP3   OH255689   0.478   6.515  15.529  0.1427  0.9166 -0.5845
11425TIP3    H155690   0.420   6.496  15.603  1.2382  1.3320  0.4290
11425TIP3    H255691   0.487   6.431  15.483  0.2373  0.3957  0.3564
11426TIP3   OH255692   1.128   4.838   2.525 -0.4510  0.2103 -0.5482
11426TIP3    H155693   1.117   4.773   2.593 -0.3609  0.9759  0.2129
11426TIP3    H255694   1.076   4.806   2.451 -0.5728 -0.6045 -0.1111
11427TIP3   OH255695   5.149   5.568  15.713 -0.1248 -0.2134 -0.0969
11427TIP3    H155696   5.169   5.637  15.650  0.8445 -1.5868 -1.3520
11427TIP3    H255697   5.223   5.507  15.706 -0.5424 -0.9589  1.5870
11428TIP3   OH255698   0.217   5.564   0.556  0.4049 -0.8959 -0.3066
11428TIP3    H155699   0.135   5.607   0.532 -0.4416 -2.2726 -0.0130
11428TIP3    H255700   0.191   5.492   0.613  1.9023 -0.8727  0.4743
11429TIP3   OH255701   1.308   4.693   5.624  0.1523  0.5815  0.1198
11429TIP3    H155702   1.402   4.708   5.617  0.0904  0.5964 -0.7562
11429TIP3    H255703   1.300   4.621   5.686  0.8912 -0.9526 -1.4718
11430TIP3   OH255704   4.671   3.741  16.272  0.4482 -0.1742 -0.4740
11430TIP3    H155705   4.670   3.669  16.209  0.0936  0.0103 -0.6820
11430TIP3    H255706   4.599   3.720  16.332  0.2456  0.0829 -0.6242
11431TIP3   OH255707   0.563   2.458   2.097 -0.0917 -0.0348 -0.4081
11431TIP3    H155708   0.523   2.377   2.064  0.2483 -0.9516  1.3103
11431TIP3    H255709   0.493   2.502   2.144  0.2993 -0.5268  0.6736
11432TIP3   OH255710   1.118   5.785   1.483  0.3801 -0.4710  0.5554
11432TIP3    H155711   1.160   5.843   1.547 -0.5020 -2.8067  3.4864
11432TIP3    H255712   1.164   5.702   1.493  1.2908 -0.5596 -3.1555
11433TIP3   OH255713   2.658   3.846  16.781  0.5845 -0.6227 -0.0924
11433TIP3    H155714   2.630   3.756  16.764 -0.2532 -0.6507  1.3096
11433TIP3    H255715   2.639   3.893  16.700  0.0823 -1.4792 -0.4834
11434TIP3   OH255716   5.894   4.175   2.555 -0.3499  0.4802  0.0874
11434TIP3    H155717   5.900   4.269   2.541  0.1817  0.5029  0.4373
11434TIP3    H255718   5.961   4.156   2.621 -1.8243  0.1736  1.5587
11435TIP3   OH255719   6.321   3.236   2.668  0.0619  0.2946 -0.5142
11435TIP3    H155720   6.266   3.177   2.718  0.3573 -0.8042 -1.4411
11435TIP3    H255721   6.360   3.294   2.734  1.0497 -1.5931  0.6561
11436TIP3   OH255722   3.028   4.199   4.667 -0.3374  0.0263 -0.3671
11436TIP3    H155723   3.116   4.163   4.671 -0.4075 -0.0056  1.7292
11436TIP3    H255724   3.020   4.231   4.577  2.3317  1.2969 -0.2573
11437TIP3   OH255725   3.049   5.571  14.788  0.3227  0.3392  0.3803
11437TIP3    H155726   3.115   5.501  14.794 -0.5614 -0.4087  2.4832
11437TIP3    H255727   3.095   5.644  14.747  1.4027 -1.2977 -1.5710
11438TIP3   OH255728   1.708   6.105   5.006 -0.4025 -0.2886 -0.4622
11438TIP3    H155729   1.614   6.123   4.997 -0.5961 -1.4919 -0.9558
11438TIP3    H255730   1.750   6.181   4.967 -1.1575  0.5334  0.2677
11439TIP3   OH255731   2.656   0.675  13.069 -0.4478 -0.1847 -0.0686
11439TIP3    H155732   2.571   0.635  13.049 -1.4208  0.7478  1.9474
11439TIP3    H255733   2.643   0.720  13.152  1.5697  1.4030 -0.5177
11440TIP3   OH255734   6.700   0.034   1.587 -0.3861  0.7953  0.1513
11440TIP3    H155735   6.647   0.110   1.562 -1.5400 -0.0805 -0.1654
11440TIP3    H255736   6.732  -0.001   1.504 -0.1874  0.6980  0.2681
11441TIP3   OH255737   5.535   1.590   6.212  0.1151 -0.3284 -0.0388
11441TIP3    H155738   5.580   1.541   6.143 -3.1089 -1.9261 -1.1856
11441TIP3    H255739   5.481   1.654   6.165  0.1157  0.6339  1.2098
11442TIP3   OH255740   4.177   0.972   2.623 -0.0716  0.8782 -0.4682
11442TIP3    H155741   4.130   1.050   2.653  0.6968  2.0295 -2.0718
11442TIP3    H255742   4.153   0.964   2.531  0.8378 -0.0466 -0.6429
11443TIP3   OH255743   5.287   5.417  16.694 -0.3279 -0.7457 -0.0610
11443TIP3    H155744   5.209   5.430  16.748  0.3706 -1.8826  1.2911
11443TIP3    H255745   5.354   5.387  16.756  1.2887  0.5164 -1.1301
11444TIP3   OH255746   0.799   2.862  11.685 -0.3822  0.2965  0.0429
11444TIP3    H155747   0.783   2.783  11.737  1.0571 -1.3610 -1.9000
11444TIP3    H255748   0.894   2.870  11.682 -0.3408 -0.2615 -3.0648
11445TIP3   OH255749   2.195   6.758  15.040  0.9830 -0.1842 -0.1404
11445TIP3    H155750   2.165   6.755  15.131 -0.1956 -0.8729 -0.5429
11445TIP3    H255751   2.119   6.789  14.990  0.6354 -2.6341 -1.2686
11446TIP3   OH255752   4.652   3.492  11.168  0.8550  0.4087 -0.1689
11446TIP3    H155753   4.638   3.485  11.263  1.9861 -0.1611 -0.0287
11446TIP3    H255754   4.656   3.587  11.152  0.9015  0.5041  0.3823
11447TIP3   OH255755   4.074   5.999  17.402 -0.7102 -0.1540  0.4234
11447TIP3    H155756   4.140   5.930  17.402 -0.3414  0.1920  0.9026
11447TIP3    H255757   4.083   6.041  17.317  0.2933  0.4487  0.8078
11448TIP3   OH255758   2.210   0.728  15.777 -0.1164 -0.1223  0.6494
11448TIP3    H155759   2.154   0.650  15.778  2.4651 -2.1093  0.2544
11448TIP3    H255760   2.294   0.698  15.812  0.9627  2.5233  0.5517
11449TIP3   OH255761   1.192   4.488   1.668 -0.0731 -0.3941 -0.2424
11449TIP3    H155762   1.142   4.462   1.746  0.3906 -0.2757  0.0977
11449TIP3    H255763   1.149   4.442   1.596  0.6507 -2.0233  0.3154
11450TIP3   OH255764   1.607   6.482  16.206 -0.3114 -0.1764 -0.5067
11450TIP3    H155765   1.604   6.502  16.300  0.7792  0.8674 -0.6688
11450TIP3    H255766   1.659   6.403  16.201 -0.5844 -0.3795 -0.2164
11451TIP3   OH255767   3.013   6.103   5.127  0.0598  0.2827  0.2084
11451TIP3    H155768   2.920   6.081   5.132  0.1677 -0.1740  0.2830
11451TIP3    H255769   3.031   6.153   5.206 -0.4879  1.8305 -0.6018
11452TIP3   OH255770   5.221   0.372  12.058  0.4015 -0.1450 -0.2950
11452TIP3    H155771   5.276   0.442  12.024 -0.8288  0.5015 -1.0552
11452TIP3    H255772   5.139   0.416  12.082  0.8069 -0.7442  2.5699
11453TIP3   OH255773   2.981   2.421  11.123  0.3945  0.0763  0.0833
11453TIP3    H155774   3.005   2.378  11.205  1.8440  2.0630  0.8034
11453TIP3    H255775   2.951   2.508  11.150  1.2644  0.9155 -1.4822
11454TIP3   OH255776   3.677   5.226  14.571 -0.2969  0.4378 -0.1754
11454TIP3    H155777   3.643   5.225  14.481  1.0756 -1.9092 -0.7443
11454TIP3    H255778   3.761   5.181  14.566 -0.9584 -1.3290  2.5512
11455TIP3   OH255779   2.360   2.342   4.696  0.3860  0.3928  0.1111
11455TIP3    H155780   2.288   2.299   4.741 -0.0637  2.9059  2.0202
11455TIP3    H255781   2.427   2.354   4.763  1.2182  1.0321 -0.8083
11456TIP3   OH255782   1.104   1.857  13.397 -0.0908 -0.4093 -0.7390
11456TIP3    H155783   1.164   1.868  13.323  2.5831 -0.2152  1.3141
11456TIP3    H255784   1.131   1.923  13.460 -2.2235 -0.6244  0.4960
11457TIP3   OH255785   1.511   6.208   3.509  0.5842 -0.2562 -0.0962
11457TIP3    H155786   1.510   6.288   3.458  1.4026  0.4644  0.9666
11457TIP3    H255787   1.508   6.138   3.444  1.5274  0.6246 -1.1229
11458TIP3   OH255788   5.121   4.402   1.273 -0.2965 -0.6927  0.4612
11458TIP3    H155789   5.061   4.407   1.199  1.5184  0.6743 -1.0195
11458TIP3    H255790   5.148   4.310   1.276  0.6434 -0.5529 -1.5368
11459TIP3   OH255791   0.746   4.899   2.117 -0.0911 -0.1552 -0.4571
11459TIP3    H155792   0.811   4.889   2.047  1.2289 -0.1944  0.7251
11459TIP3    H255793   0.680   4.959   2.080  1.7623  1.7047 -0.9524
11460TIP3   OH255794   3.409   0.621   0.135  0.0457  0.0825 -0.0378
11460TIP3    H155795   3.474   0.579   0.192 -1.7374 -3.3643 -0.2818
11460TIP3    H255796   3.451   0.623   0.049  0.5212 -0.3872  0.1782
11461TIP3   OH255797   3.791   6.083   4.330  0.4669 -0.6115  0.0633
11461TIP3    H155798   3.740   6.053   4.406 -0.3707 -0.9172 -0.6055
11461TIP3    H255799   3.762   6.173   4.316  0.9583 -0.4034  0.3878
11462TIP3   OH255800   1.471   6.012   3.335  0.3472 -0.4834  0.0567
11462TIP3    H155801   1.512   5.926   3.346 -0.9745 -1.1671 -0.1370
11462TIP3    H255802   1.431   6.008   3.248  1.8989  1.0648 -0.8030
11463TIP3   OH255803   0.607   4.241   4.400  0.0541  0.6940 -0.4957
11463TIP3    H155804   0.698   4.267   4.386  0.4844 -0.1411  0.6214
11463TIP3    H255805   0.606   4.206   4.489 -1.1263 -0.3311 -0.8912
11464TIP3   OH255806   2.337   2.252   5.418 -0.4277  0.3049 -0.1204
11464TIP3    H155807   2.359   2.216   5.332  1.2303  1.4105 -0.1943
11464TIP3    H255808   2.320   2.345   5.402 -0.5780  0.4224  0.6775
11465TIP3   OH255809   5.310   2.927   4.514  0.1995  0.1720  0.2274
11465TIP3    H155810   5.314   2.919   4.610 -0.1775  2.7444  0.5368
11465TIP3    H255811   5.322   2.838   4.482  2.4993 -0.4951  2.5794
11466TIP3   OH255812   5.761   6.167   6.575  0.5363 -0.6151 -0.5676
11466TIP3    H155813   5.675   6.180   6.537  0.4152 -1.1092 -0.4755
11466TIP3    H255814   5.812   6.244   6.548  0.2334 -0.5949 -1.0979
11467TIP3   OH255815   0.614   1.393   4.171 -0.1361  0.1496  0.1643
11467TIP3    H155816   0.644   1.484   4.171 -1.8440  0.7615 -0.7118
11467TIP3    H255817   0.672   1.349   4.109  1.2174  0.4247  1.1871
11468TIP3   OH255818   6.486   5.804  16.889  0.3103 -0.2529 -0.0680
11468TIP3    H155819   6.458   5.890  16.858  1.0803 -0.6038 -1.8940
11468TIP3    H255820   6.416   5.775  16.946 -1.1782  0.5385 -1.3917
11469TIP3   OH255821   1.912   4.073   3.973 -0.2910  0.2287 -0.2243
11469TIP3    H155822   1.836   4.130   3.961 -0.1186  0.7195  0.8688
11469TIP3    H255823   1.892   4.023   4.053  0.9540  1.0948  0.6657
11470TIP3   OH255824   1.397   6.742  16.326  0.2101  0.2420  0.5159
11470TIP3    H155825   1.336   6.813  16.343  0.8659  0.4126  2.5117
11470TIP3    H255826   1.404   6.737  16.231 -1.9866  0.9678  0.2710
11471TIP3   OH255827   1.841   1.650   3.484  0.1792 -0.0789  0.1688
11471TIP3    H155828   1.788   1.591   3.431  1.3952 -1.1204  0.0459
11471TIP3    H255829   1.778   1.709   3.525 -0.9234 -0.3311 -1.0978
11472TIP3   OH255830   2.762   6.405  11.163 -0.4389  0.5514  0.5003
11472TIP3    H155831   2.786   6.473  11.224 -0.5617  1.9674 -0.9655
11472TIP3    H255832   2.684   6.365  11.201 -1.2493  2.2324  0.6994
11473TIP3   OH255833   0.928   1.889   0.890 -0.3939 -0.4612  0.3061
11473TIP3    H155834   0.920   1.862   0.982 -1.4380  1.2596  0.7728
11473TIP3    H255835   1.021   1.884   0.871  0.0695  0.6902  2.0033
11474TIP3   OH255836   6.051   1.070   5.375  0.4254 -0.2873  0.5607
11474TIP3    H155837   5.988   1.118   5.322  0.1423  1.0802  2.0444
11474TIP3    H255838   6.042   0.979   5.347 -0.3178  0.2466 -1.0763
11475TIP3   OH255839   6.438   3.658  15.283  0.1155 -0.1235  0.5327
11475TIP3    H155840   6.511   3.602  15.256 -1.7257 -1.5317 -1.9378
11475TIP3    H255841   6.360   3.613  15.251 -1.8936  1.3781  2.9431
11476TIP3   OH255842   1.302   0.170   3.351 -0.0365  0.0274  0.2270
11476TIP3    H155843   1.369   0.220   3.305 -0.4119  0.0521 -0.2997
11476TIP3    H255844   1.304   0.084   3.311 -0.1474 -0.0504  0.3855
11477TIP3   OH255845   3.983   0.169  16.424  0.3436  0.3287  0.2607
11477TIP3    H155846   4.004   0.153  16.333 -2.3510  0.9564 -0.5671
11477TIP3    H255847   3.980   0.264  16.432 -1.1275  0.2853  0.5176
11478TIP3   OH255848   2.723   4.909   6.739 -0.2758 -0.0785 -0.5102
11478TIP3    H155849   2.765   4.995   6.750 -0.5487 -0.1346  1.4467
11478TIP3    H255850   2.792   4.846   6.759 -0.4210 -0.2717 -0.6127
11479TIP3   OH255851   6.695   5.640   0.476  0.5901  0.2235  0.2535
11479TIP3    H155852   6.718   5.711   0.536  1.2074  0.1244  0.1408
11479TIP3    H255853   6.608   5.611   0.505  0.6611  0.5212  0.7700
11480TIP3   OH255854   0.434   3.913  12.295 -0.2038  0.1617  0.1891
11480TIP3    H155855   0.462   3.926  12.205 -0.3567 -2.0056 -0.2218
11480TIP3    H255856   0.515   3.920  12.346  0.1241 -0.0706 -0.2909
11481TIP3   OH255857   2.516   4.971  17.123  0.1278 -0.2584  0.1808
11481TIP3    H155858   2.439   5.021  17.095  0.1899 -1.4795 -2.4854
11481TIP3    H255859   2.480   4.888  17.154  0.2630 -0.0881  0.7977
11482TIP3   OH255860   1.649   5.439  11.112  0.1521 -0.0555 -0.6106
11482TIP3    H155861   1.565   5.395  11.126  0.9789 -1.6991 -0.5385
11482TIP3    H255862   1.654   5.504  11.182 -1.0418  0.0558 -0.6083
11483TIP3   OH255863   0.669   4.093  11.536  0.4759 -1.0053  0.1519
11483TIP3    H155864   0.603   4.080  11.467 -0.3612  0.5402  0.6274
11483TIP3    H255865   0.750   4.110  11.489  0.0892 -0.8186 -0.4548
11484TIP3   OH255866   1.076   1.033   3.914 -0.4100  0.0170  0.8805
11484TIP3    H155867   1.013   1.086   3.963 -0.0614  2.4664 -1.1320
11484TIP3    H255868   1.133   0.994   3.981 -1.6534  0.9254  2.5191
11485TIP3   OH255869   0.835   4.999  15.605  0.2079 -0.2677 -0.1009
11485TIP3    H155870   0.835   5.062  15.677  0.6383 -0.6529  0.2423
11485TIP3    H255871   0.857   4.916  15.646  0.6158 -0.4642 -0.7047
11486TIP3   OH255872   6.377   6.173  17.275 -0.3010 -0.4050 -0.2422
11486TIP3    H155873   6.330   6.253  17.297 -0.0868 -0.3124 -0.1198
11486TIP3    H255874   6.340   6.146  17.191 -0.5782 -0.3394 -0.1434
11487TIP3   OH255875   2.830   4.608  16.154 -0.2438  0.0110  0.4330
11487TIP3    H155876   2.745   4.652  16.151 -0.3830 -0.2934 -1.5471
11487TIP3    H255877   2.884   4.657  16.091 -0.0604 -1.9104 -0.9855
11488TIP3   OH255878   2.231   1.726   3.418 -0.0364  0.0205  0.2332
11488TIP3    H155879   2.138   1.712   3.433  0.3193 -2.9138  0.3096
11488TIP3    H255880   2.240   1.726   3.322 -0.0369 -0.7169  0.2227
11489TIP3   OH255881   1.817   6.013   1.985  0.7513  0.3259  0.0644
11489TIP3    H155882   1.769   5.936   2.013  1.9932 -0.8375 -0.8703
11489TIP3    H255883   1.864   5.985   1.906  1.6093  1.8882 -0.0263
11490TIP3   OH255884   4.120   6.239   5.628  0.0038  0.0268 -0.0733
11490TIP3    H155885   4.126   6.169   5.563  1.6886  0.4195 -0.3803
11490TIP3    H255886   4.147   6.199   5.710 -1.4975 -0.3010  0.2942
11491TIP3   OH255887   1.661   6.675  12.251 -0.7761 -0.3285  0.3955
11491TIP3    H155888   1.643   6.630  12.168 -0.9817  0.5177 -0.0238
11491TIP3    H255889   1.582   6.727  12.268 -0.2005  0.5499  0.4330
11492TIP3   OH255890   0.149   5.031   0.282 -0.7020 -0.0807 -0.3707
11492TIP3    H155891   0.155   5.001   0.192  2.3267 -0.3812 -0.1824
11492TIP3    H255892   0.148   5.126   0.276 -0.2477 -0.0924 -0.7600
11493TIP3   OH255893   0.290   4.166  11.743 -0.2823 -0.1573 -0.0889
11493TIP3    H155894   0.241   4.238  11.705 -1.9799 -1.2232 -0.0581
11493TIP3    H255895   0.360   4.208  11.793  0.5980  1.3321 -2.4366
11494TIP3   OH255896   1.900   4.259  13.111  0.3157  0.2809  0.4976
11494TIP3    H155897   1.975   4.271  13.054 -0.7349 -0.5761 -1.1411
11494TIP3    H255898   1.826   4.296  13.063 -0.5653 -0.2456  1.3889
11495TIP3   OH255899   4.098   5.460   0.869  0.0434  0.1229  0.3612
11495TIP3    H155900   4.050   5.382   0.896  1.0696 -0.9934 -0.9359
11495TIP3    H255901   4.121   5.444   0.778  2.1431  0.9848  0.6908
11496TIP3   OH255902   5.381   3.233   5.053 -0.5726 -0.1881 -0.3384
11496TIP3    H155903   5.316   3.169   5.080  1.0528 -1.4604  0.7460
11496TIP3    H255904   5.383   3.297   5.125 -1.0274  0.1941 -0.6566
11497TIP3   OH255905   4.557   0.264   0.182  0.1114 -0.2928  0.2356
11497TIP3    H155906   4.554   0.322   0.106 -1.0150 -1.3412 -0.5683
11497TIP3    H255907   4.507   0.310   0.249  0.0726  0.1002 -0.0584
11498TIP3   OH255908   0.545   1.407  16.444  0.4565  0.3907 -0.1689
11498TIP3    H155909   0.494   1.332  16.414  2.2956 -0.3913 -1.5037
11498TIP3    H255910   0.530   1.410  16.539 -0.0578 -1.3332 -0.1637
11499TIP3   OH255911   6.586   3.103  17.012  0.4144 -0.6354  0.5196
11499TIP3    H155912   6.586   3.025  17.067 -0.0663 -0.6812  0.4592
11499TIP3    H255913   6.496   3.133  17.014  0.2416 -1.0256 -0.7964
11500TIP3   OH255914   6.666   4.190  13.723 -0.1780 -0.0750  0.2197
11500TIP3    H155915   6.579   4.201  13.684 -0.2552 -1.0062  0.1091
11500TIP3    H255916   6.658   4.227  13.811 -0.1032  1.7176 -0.4818
11501TIP3   OH255917   4.161   5.753  12.413 -0.6764 -0.0253  0.6586
11501TIP3    H155918   4.198   5.842  12.413  1.1184 -0.7258  0.2542
11501TIP3    H255919   4.163   5.727  12.321 -0.6948 -0.6735  0.8415
11502TIP3   OH255920   4.345   3.677  17.216 -0.5201  0.0461 -0.2805
11502TIP3    H155921   4.396   3.608  17.174  0.9612  1.1483 -0.3794
11502TIP3    H255922   4.402   3.710  17.286 -1.0666  1.3448 -0.4111
11503TIP3   OH255923   1.503   6.483   2.513 -0.2593  0.6193  0.1956
11503TIP3    H155924   1.518   6.390   2.501  1.6807  0.7338  1.3006
11503TIP3    H255925   1.485   6.517   2.425 -1.6491 -0.8550 -0.1359
11504TIP3   OH255926   4.668   4.437   5.415 -0.2829  0.6043  0.8877
11504TIP3    H155927   4.673   4.481   5.330 -2.7810  1.2678  0.9977
11504TIP3    H255928   4.729   4.364   5.407  0.6797  1.5224 -0.9089
11505TIP3   OH255929   2.598   0.553  12.715 -0.5525  0.4660 -0.3256
11505TIP3    H155930   2.560   0.485  12.660 -1.6783  1.5385 -0.9207
11505TIP3    H255931   2.565   0.535  12.803  0.6271 -0.7941 -0.0958
11506TIP3   OH255932   5.243   4.288   2.910  0.2390  0.6325  0.1988
11506TIP3    H155933   5.243   4.192   2.905  0.2376  0.5618  1.2459
11506TIP3    H255934   5.166   4.308   2.964 -1.6238  1.4178 -2.5273
11507TIP3   OH255935   1.832   1.931  13.777  0.0252  0.1206  0.6197
11507TIP3    H155936   1.829   1.852  13.723 -0.8948  0.0110  0.8093
11507TIP3    H255937   1.873   1.902  13.859 -0.8736 -0.3317  0.9292
11508TIP3   OH255938   6.198   5.625  12.912 -0.1086  0.2612 -0.0415
11508TIP3    H155939   6.216   5.635  12.819 -1.1755 -2.3652 -0.6348
11508TIP3    H255940   6.134   5.693  12.932  0.6311  1.2809 -1.0385
11509TIP3   OH255941   4.758   3.329  14.070  0.3793  0.2646  0.1542
11509TIP3    H155942   4.843   3.293  14.095  0.0614 -0.2948  0.4639
11509TIP3    H255943   4.697   3.256  14.081 -0.3402  0.9882  1.1044
11510TIP3   OH255944   6.370   0.868   4.857  0.5447 -0.0380  0.6102
11510TIP3    H155945   6.383   0.958   4.825  0.3681 -0.1137  0.3187
11510TIP3    H255946   6.341   0.879   4.947 -1.4509  0.2966 -0.0142
11511TIP3   OH255947   6.524   1.172  12.871 -0.0880 -0.0996  0.5509
11511TIP3    H155948   6.529   1.198  12.963  0.6300  2.0144 -0.0330
11511TIP3    H255949   6.598   1.112  12.859  0.3229  0.2765  1.1627
11512TIP3   OH255950   0.677   5.694   3.798  0.4785  0.2312 -0.1825
11512TIP3    H155951   0.687   5.688   3.893  0.0003 -0.4125 -0.1594
11512TIP3    H255952   0.609   5.760   3.785 -0.1332 -0.3530 -0.0238
11513TIP3   OH255953   1.037   6.626  11.708 -0.3436  0.3115  0.0865
11513TIP3    H155954   1.064   6.642  11.618 -3.4537 -0.8922 -1.2135
11513TIP3    H255955   1.045   6.531  11.719 -0.2629  0.4111  0.9771
11514TIP3   OH255956   2.139   2.545   1.884  0.2578  0.3228 -0.0831
11514TIP3    H155957   2.061   2.576   1.929 -0.7788 -0.6900 -1.0927
11514TIP3    H255958   2.106   2.504   1.804  1.5327 -2.6072  0.7225
11515TIP3   OH255959   5.444   3.759  14.494 -0.3018  0.1788 -0.1988
11515TIP3    H155960   5.427   3.843  14.450 -1.0007  0.8560  1.3051
11515TIP3    H255961   5.467   3.783  14.583  1.6838 -1.1359 -0.2946
11516TIP3   OH255962   6.390   2.573   2.525  0.6420  0.7624 -0.1124
11516TIP3    H155963   6.331   2.543   2.456 -1.2469  0.6300  1.4851
11516TIP3    H255964   6.401   2.667   2.508  1.3573  0.4761 -1.3727
11517TIP3   OH255965   6.002   4.837  15.978 -0.2679 -0.0833  0.0463
11517TIP3    H155966   6.036   4.913  16.026 -2.2216  1.2112 -0.4964
11517TIP3    H255967   5.964   4.874  15.899  2.6550 -2.1150 -2.5722
11518TIP3   OH255968   6.665   4.282   1.060  0.1532  0.7488  0.2568
11518TIP3    H155969   6.586   4.228   1.059  0.9189 -0.4494  1.2794
11518TIP3    H255970   6.669   4.320   0.972  0.1144 -1.6735 -0.8688
11519TIP3   OH255971   5.957   2.952   6.277 -0.5152  0.3424  0.0180
11519TIP3    H155972   5.929   2.989   6.361 -1.8963 -0.8863  0.1386
11519TIP3    H255973   5.902   2.995   6.212  0.1012  0.8159 -0.1979
11520TIP3   OH255974   2.942   2.461  10.838 -0.4021 -0.0530 -0.2759
11520TIP3    H155975   2.986   2.521  10.777  0.0133  0.2092  0.2746
11520TIP3    H255976   2.978   2.483  10.924 -1.2964 -0.1303  0.1276
11521TIP3   OH255977   1.275   2.392  14.989  0.0016 -0.3000  0.0446
11521TIP3    H155978   1.254   2.316  14.937  0.5151  0.4380 -1.2817
11521TIP3    H255979   1.329   2.359  15.061  0.8330 -1.0767 -0.9306
11522TIP3   OH255980   2.124   3.450   0.980 -0.4532 -0.3795 -0.0363
11522TIP3    H155981   2.102   3.540   0.957 -1.5397 -0.8243 -0.8340
11522TIP3    H255982   2.198   3.458   1.040 -1.1623  1.0802  0.6940
11523TIP3   OH255983   1.824   0.595   6.105 -0.0335 -0.5929  0.4541
11523TIP3    H155984   1.780   0.622   6.185 -1.9233 -0.3971 -0.5877
11523TIP3    H255985   1.755   0.554   6.052  0.9001  0.1329 -1.4484
11524TIP3   OH255986   0.880   3.424   5.711  0.5928 -0.1718  0.7293
11524TIP3    H155987   0.849   3.394   5.797  1.0340 -1.4760  0.4547
11524TIP3    H255988   0.960   3.473   5.730  0.4520 -0.0835  1.1015
11525TIP3   OH255989   3.797   5.244  15.929 -0.2321 -0.3359 -0.0654
11525TIP3    H155990   3.797   5.161  15.977 -0.8282 -0.7915 -0.8338
11525TIP3    H255991   3.747   5.226  15.849 -0.2273  0.7198 -0.3218
11526TIP3   OH255992   5.724   5.690   5.645 -0.2739  1.0497 -0.2796
11526TIP3    H155993   5.801   5.633   5.642 -0.3821  0.8858 -0.0305
11526TIP3    H255994   5.662   5.651   5.584 -0.3257  0.9303 -0.1526
11527TIP3   OH255995   6.567   0.327  17.206  0.1870  0.4295 -0.0877
11527TIP3    H155996   6.536   0.237  17.190  5.0493 -1.3929 -0.9578
11527TIP3    H255997   6.580   0.363  17.118 -0.5707  1.5926  0.2548
11528TIP3   OH255998   0.704   4.830  12.296 -0.2472 -0.4951  0.0960
11528TIP3    H155999   0.621   4.878  12.292  0.1586  0.2556  0.3909
11528TIP3    H256000   0.765   4.893  12.334  0.1298 -1.5031  1.2396
11529TIP3   OH256001   1.144   4.262   3.383  0.4689 -0.1113  0.2578
11529TIP3    H156002   1.233   4.274   3.414  0.6700  0.2026 -0.4094
11529TIP3    H256003   1.154   4.209   3.304 -0.1934 -2.6994  1.7925
11530TIP3   OH256004   1.798   3.985   2.834  0.5039 -0.3273 -0.3766
11530TIP3    H156005   1.812   4.027   2.919  0.1998 -0.9811  0.0057
11530TIP3    H256006   1.704   3.991   2.819  0.5214 -0.4554 -0.5441
11531TIP3   OH256007   0.335   3.749  14.094 -0.1665  0.1431 -0.0379
11531TIP3    H156008   0.343   3.832  14.142  1.4085  0.5077 -0.8624
11531TIP3    H256009   0.304   3.775  14.007 -0.8872 -0.2838  0.0848
11532TIP3   OH256010   4.080   4.917   2.095 -0.0096  0.1615  0.0677
11532TIP3    H156011   4.004   4.859   2.097 -1.2164  1.6988  1.2946
11532TIP3    H256012   4.149   4.868   2.140 -0.7658 -0.6218  0.4083
11533TIP3   OH256013   4.085   0.005   3.395  0.1083 -0.2542  0.1262
11533TIP3    H156014   4.143  -0.003   3.470  0.5521 -0.1343 -0.2031
11533TIP3    H256015   4.098   0.094   3.363 -1.4627  0.3504  1.0267
11534TIP3   OH256016   6.307   0.423  15.376 -0.5604  0.2938  0.0865
11534TIP3    H156017   6.213   0.406  15.372 -0.6155 -0.4116  2.5943
11534TIP3    H256018   6.348   0.342  15.346 -0.7199  0.4927 -0.7002
11535TIP3   OH256019   1.084   3.530   0.961 -0.3948 -0.3562 -0.3568
11535TIP3    H156020   1.112   3.480   0.884  2.8097  1.0780 -0.2749
11535TIP3    H256021   1.098   3.621   0.937 -1.6024  0.2670  1.1386
11536TIP3   OH256022   2.926   0.888  14.532  0.1498  0.6383 -0.4732
11536TIP3    H156023   2.977   0.831  14.590  1.3813  1.0774 -1.0753
11536TIP3    H256024   2.857   0.832  14.498  1.8272 -0.8079 -1.7115
11537TIP3   OH256025   6.186   2.568  17.022  0.0039 -0.3219 -0.3983
11537TIP3    H156026   6.154   2.503  16.959  0.3448 -0.2780 -0.6226
11537TIP3    H256027   6.138   2.648  16.999  0.4582 -0.1861 -0.9075
11538TIP3   OH256028   3.324   6.715  12.878 -0.6805  0.8892 -0.3258
11538TIP3    H156029   3.286   6.662  12.807 -0.6433  0.5853 -0.1228
11538TIP3    H256030   3.417   6.721  12.856 -0.2351 -1.0338  0.7926
11539TIP3   OH256031   1.699   1.459  13.098 -0.5387  0.3720  0.0712
11539TIP3    H156032   1.626   1.448  13.038 -0.2138  3.1529 -0.9859
11539TIP3    H256033   1.777   1.442  13.045 -0.3392 -0.3930  0.5967
11540TIP3   OH256034   3.802   2.055  11.272  0.7073  0.4366 -0.0754
11540TIP3    H156035   3.827   2.146  11.292  0.9906  0.2901  0.2571
11540TIP3    H256036   3.864   2.027  11.205  0.6852  0.4542 -0.1031
11541TIP3   OH256037   3.010   5.488  15.134  0.3228  0.1779 -0.2027
11541TIP3    H156038   3.076   5.487  15.065 -0.1197 -0.0386 -0.6354
11541TIP3    H256039   3.059   5.471  15.215  0.4110 -4.2936 -0.9006
11542TIP3   OH256040   1.237   1.844   0.833  0.2327  0.0545 -0.4367
11542TIP3    H156041   1.207   1.753   0.832 -1.9449  0.7271 -0.2541
11542TIP3    H256042   1.245   1.868   0.741  0.8927 -0.3159 -0.4861
11543TIP3   OH256043   3.569   1.447   0.805  0.6492  0.1008 -0.1860
11543TIP3    H156044   3.533   1.368   0.846  1.1700 -0.1978 -0.2949
11543TIP3    H256045   3.542   1.519   0.863  2.5214 -0.4431  1.4763
11544TIP3   OH256046   1.269   6.346   4.461  0.6410 -0.4447  0.3746
11544TIP3    H156047   1.259   6.325   4.368 -0.3922 -1.1954  0.6315
11544TIP3    H256048   1.319   6.272   4.497 -1.1264 -1.4642  0.8649
11545TIP3   OH256049   4.946   3.944   5.615 -0.1520  0.3261  0.1265
11545TIP3    H156050   5.031   3.985   5.598  0.2804 -0.9172 -0.8080
11545TIP3    H256051   4.932   3.957   5.709  0.2098  2.0982 -0.0171
11546TIP3   OH256052   3.041   4.281   5.580  0.8388  0.0546 -0.3453
11546TIP3    H156053   3.129   4.266   5.545  0.8806  0.0229 -0.2284
11546TIP3    H256054   2.982   4.256   5.509  0.8947 -1.0078 -0.0345
11547TIP3   OH256055   3.560   0.687  10.386 -0.1959 -0.0249 -0.2319
11547TIP3    H156056   3.561   0.592  10.377 -0.6142  0.1397 -2.8245
11547TIP3    H256057   3.566   0.720  10.296  0.2453  2.4163  0.6060
11548TIP3   OH256058   5.027   1.934  16.444 -0.4388  0.4077 -0.1994
11548TIP3    H156059   5.120   1.943  16.420 -0.2711  0.9466  0.6041
11548TIP3    H256060   5.012   1.840  16.448 -0.5326  0.2750 -2.5936
11549TIP3   OH256061   3.686   5.399   2.730  0.6467  0.2873 -0.3203
11549TIP3    H156062   3.752   5.466   2.713  1.1424 -0.4807 -1.5932
11549TIP3    H256063   3.734   5.329   2.775  0.0750  0.8680  1.2489
11550TIP3   OH256064   1.543   1.797   4.225 -1.0270  0.7709 -0.0990
11550TIP3    H156065   1.500   1.714   4.244 -1.5181  1.3102  1.2816
11550TIP3    H256066   1.502   1.860   4.284 -0.3018  1.8918 -0.7453
11551TIP3   OH256067   1.337   5.843  11.147  0.0318  0.3162  1.1320
11551TIP3    H156068   1.342   5.908  11.077  1.5180  0.9262  1.7589
11551TIP3    H256069   1.263   5.787  11.123 -1.0477  1.9942  0.3755
11552TIP3   OH256070   1.052   2.366  13.707 -0.1854  0.0862  0.2922
11552TIP3    H156071   1.068   2.385  13.615  2.6028  1.7736  1.0116
11552TIP3    H256072   1.138   2.345  13.742 -1.6043 -4.2128  1.8465
11553TIP3   OH256073   5.421   4.182   0.857 -0.0751 -0.3668 -0.0240
11553TIP3    H156074   5.491   4.140   0.907  0.6182 -0.3227 -0.9388
11553TIP3    H256075   5.422   4.137   0.773  1.3362  2.0461 -1.4163
11554TIP3   OH256076   1.042   1.920   4.204  0.5062  0.0651  0.0489
11554TIP3    H156077   0.997   2.002   4.223  2.2902  0.9746  0.6092
11554TIP3    H256078   1.033   1.869   4.284  0.4351  0.2308  0.1478
11555TIP3   OH256079   5.601   6.463   3.046  0.0934  0.0156 -0.2070
11555TIP3    H156080   5.540   6.391   3.027  0.1850  0.0377 -0.5961
11555TIP3    H256081   5.638   6.485   2.961 -0.3533  0.9044 -0.1795
11556TIP3   OH256082   1.962   3.577  13.831 -0.4477 -0.4159 -0.1233
11556TIP3    H156083   1.874   3.591  13.864 -0.6622 -1.3320 -0.2923
11556TIP3    H256084   1.991   3.664  13.803 -0.2161  0.4470  2.5247
11557TIP3   OH256085   0.925   0.176  13.056 -0.1352  0.6025  0.0422
11557TIP3    H156086   0.846   0.123  13.047  0.2434 -0.4070  2.0756
11557TIP3    H256087   0.988   0.137  12.996 -0.3406 -0.3274  0.4153
11558TIP3   OH256088   5.491   3.310   3.316  0.1835  0.2801 -0.0468
11558TIP3    H156089   5.514   3.267   3.399 -1.7645  2.5111  1.7696
11558TIP3    H256090   5.411   3.265   3.287  1.1159 -0.8134 -1.0626
11559TIP3   OH256091   1.382   6.628  14.452 -0.1919  0.1572 -0.1269
11559TIP3    H156092   1.323   6.581  14.393  0.7658 -0.9991 -0.1883
11559TIP3    H256093   1.470   6.602  14.425  0.3611  1.6529  0.1379
11560TIP3   OH256094   5.553   1.512   3.752 -0.7112  0.0647  0.5891
11560TIP3    H156095   5.490   1.468   3.694 -1.0384  0.9948  0.2179
11560TIP3    H256096   5.602   1.440   3.792  0.1732 -0.6035 -1.5422
11561TIP3   OH256097   2.441   5.220  14.299  0.0455 -0.0186 -0.2501
11561TIP3    H156098   2.402   5.179  14.375 -0.7109  1.0890 -0.0178
11561TIP3    H256099   2.367   5.257  14.250  0.7616  2.7852  0.5920
11562TIP3   OH256100   2.018   1.752   2.203  0.0405 -0.0354  0.0672
11562TIP3    H156101   2.036   1.813   2.275  0.1177 -0.7937  0.7102
11562TIP3    H256102   2.038   1.801   2.124 -0.5027  0.9842  0.5373
11563TIP3   OH256103   2.028   4.746   2.249  0.1470  0.3501  0.0426
11563TIP3    H156104   1.936   4.763   2.267  0.2268  0.4684  0.3433
11563TIP3    H256105   2.034   4.651   2.242  0.1691  0.2763  0.9644
11564TIP3   OH256106   3.884   1.629  16.355  0.5257  0.3304 -0.0950
11564TIP3    H156107   3.954   1.681  16.393 -0.2170  1.1192  0.2360
11564TIP3    H256108   3.847   1.580  16.429  1.4124 -0.9443 -0.4498
11565TIP3   OH256109   4.140   5.044   3.209  0.0420  0.3415  0.6354
11565TIP3    H156110   4.107   4.958   3.184  1.3623 -0.3521  1.1685
11565TIP3    H256111   4.085   5.106   3.161 -1.0002 -0.7860  0.3233
11566TIP3   OH256112   5.794   1.050   6.353 -0.5284  0.5299 -0.2597
11566TIP3    H156113   5.873   1.100   6.332  0.6132 -1.1057 -0.0015
11566TIP3    H256114   5.725   1.116   6.357  0.9161  2.0890  0.0936
11567TIP3   OH256115   5.992   2.170   5.765  0.0594 -0.5550  0.2007
11567TIP3    H156116   5.919   2.221   5.732  1.6168  0.7392 -1.4737
11567TIP3    H256117   5.962   2.080   5.762 -1.4175 -0.0674 -0.6030
11568TIP3   OH256118   1.694   6.407  12.400  0.7944  0.1365  0.2791
11568TIP3    H156119   1.689   6.492  12.356 -0.1706 -0.4814 -0.8467
11568TIP3    H256120   1.761   6.359  12.352 -1.4930 -1.1944 -1.8060
11569TIP3   OH256121   0.676   4.276  16.964 -0.0357 -0.3523  0.1034
11569TIP3    H156122   0.594   4.317  16.993 -0.5740 -0.8418 -0.6757
11569TIP3    H256123   0.716   4.243  17.044  0.5670  1.9196  0.8165
11570TIP3   OH256124   0.953   5.030   4.356  0.3009 -0.5601  0.4402
11570TIP3    H156125   1.008   5.095   4.400 -0.4606  0.7865 -0.5301
11570TIP3    H256126   1.000   5.011   4.275 -0.8623  1.0001 -0.6491
11571TIP3   OH256127   5.814   1.991  16.980  0.1196  0.3201  0.3032
11571TIP3    H156128   5.793   1.907  17.020  2.2847 -1.1849 -1.4819
11571TIP3    H256129   5.741   2.049  17.005 -2.2687 -2.4628  0.3446
11572TIP3   OH256130   0.930   6.358  12.209  0.0559  0.1879 -0.4436
11572TIP3    H156131   0.911   6.397  12.123  0.5356  0.0710 -0.6066
11572TIP3    H256132   0.877   6.409  12.270 -0.5095  0.0874 -0.8425
11573TIP3   OH256133   4.312   1.926   1.458  0.1543  0.0159  0.0373
11573TIP3    H156134   4.226   1.893   1.432 -0.2910  0.7851  0.4890
11573TIP3    H256135   4.343   1.865   1.524 -0.6600  0.4731  0.8680
11574TIP3   OH256136   0.912   3.479  11.605  0.2680  0.0128  0.0150
11574TIP3    H156137   1.004   3.495  11.588 -0.0720  3.6545  0.7336
11574TIP3    H256138   0.879   3.438  11.525  1.8795  1.7747 -1.6603
11575TIP3   OH256139   1.306   3.262   1.169 -0.5388  0.1339 -0.6490
11575TIP3    H156140   1.251   3.234   1.096 -1.5930 -1.1395  0.5854
11575TIP3    H256141   1.395   3.234   1.144 -1.3381 -3.5496 -0.0199
11576TIP3   OH256142   0.931   4.143  16.787  0.1069 -0.1659  0.7318
11576TIP3    H156143   0.882   4.106  16.861 -0.0471  0.3541  0.8963
11576TIP3    H256144   1.022   4.145  16.817 -0.0716  0.8694  1.2615
11577TIP3   OH256145   2.071   2.788  15.784  0.0936 -0.0964 -0.8600
11577TIP3    H156146   2.125   2.709  15.788  0.6128  0.2934  1.0059
11577TIP3    H256147   1.985   2.760  15.813  0.1047 -0.1081 -0.8379
11578TIP3   OH256148   6.420   1.140  16.794  0.1823  0.1040  0.1181
11578TIP3    H156149   6.414   1.143  16.889 -0.4402  0.6849  0.0688
11578TIP3    H256150   6.330   1.127  16.764  0.1543  1.3617 -0.4253
11579TIP3   OH256151   0.377   0.177   2.544  0.1112  0.9213  0.0590
11579TIP3    H156152   0.310   0.193   2.611  0.7913  1.9318  0.5333
11579TIP3    H256153   0.456   0.159   2.594  1.0413  3.3376 -0.3660
11580TIP3   OH256154   4.830   6.646   2.426  0.0323 -0.1048 -0.0705
11580TIP3    H156155   4.877   6.681   2.350  0.3648  0.4758  0.3936
11580TIP3    H256156   4.900   6.618   2.486 -0.1622  1.7260  1.0802
11581TIP3   OH256157   3.878   6.070  11.401  0.0363  0.7601 -0.1695
11581TIP3    H156158   3.906   6.032  11.318  2.0917 -1.2343  1.3081
11581TIP3    H256159   3.801   6.018  11.425 -0.6275  1.4106 -0.8260
11582TIP3   OH256160   6.581   6.238   0.200 -0.9443 -0.2400  0.3863
11582TIP3    H156161   6.655   6.295   0.178  0.2811 -2.4415 -1.6933
11582TIP3    H256162   6.506   6.297   0.208  0.7658  1.9603  1.4862
11583TIP3   OH256163   4.450   3.455  12.198 -0.0632  0.4586 -0.0291
11583TIP3    H156164   4.437   3.544  12.232 -1.9580  0.2284 -0.0072
11583TIP3    H256165   4.543   3.449  12.180  0.2296  2.1860  0.7197
11584TIP3   OH256166   0.739   5.518  15.130 -0.3968 -0.3845  0.3389
11584TIP3    H156167   0.822   5.532  15.084 -1.0988 -2.1274 -1.6037
11584TIP3    H256168   0.761   5.455  15.199  0.3896  1.1874  1.5740
11585TIP3   OH256169   2.100   5.639   3.114 -0.2310  0.4543  0.0558
11585TIP3    H156170   2.161   5.661   3.045 -0.0892  3.0371  0.9080
11585TIP3    H256171   2.021   5.609   3.068  0.0841  1.4866 -1.1921
11586TIP3   OH256172   0.524   6.078  12.189 -0.3099  0.1046  0.1098
11586TIP3    H156173   0.470   6.084  12.110 -0.4392  0.5933  0.2319
11586TIP3    H256174   0.537   6.169  12.216  0.5885  0.0015  0.0719
11587TIP3   OH256175   0.462   5.170  14.917 -0.0512 -0.7420 -0.0337
11587TIP3    H156176   0.456   5.264  14.937 -0.6993 -0.9671  0.8957
11587TIP3    H256177   0.442   5.164  14.824  0.9904  0.1441 -0.3389
11588TIP3   OH256178   4.379   4.933   2.884 -0.1640  0.6198 -0.3579
11588TIP3    H156179   4.298   4.886   2.861  0.5185 -0.7731 -0.0561
11588TIP3    H256180   4.359   4.977   2.966 -0.2750 -0.7431  0.3786
11589TIP3   OH256181   5.643   2.736   5.830  0.7548  0.0936  0.4065
11589TIP3    H156182   5.636   2.656   5.881  0.4325 -0.0897  0.0829
11589TIP3    H256183   5.717   2.783   5.868  0.0783  0.3086  1.5224
11590TIP3   OH256184   3.548   1.141   5.488 -0.2577  0.3742 -0.6707
11590TIP3    H156185   3.553   1.073   5.555 -1.6934 -0.2059 -1.1209
11590TIP3    H256186   3.492   1.208   5.526 -0.5956  0.3122 -1.0511
11591TIP3   OH256187   2.925   2.485   3.926  0.5518 -0.0635 -0.2996
11591TIP3    H156188   3.015   2.475   3.956  0.1484 -2.1232  0.3651
11591TIP3    H256189   2.894   2.564   3.970  1.8309  0.3541 -0.0906
11592TIP3   OH256190   2.136   5.706  13.318 -0.1981 -0.4782  0.1166
11592TIP3    H156191   2.115   5.631  13.374  3.7219 -1.0032  1.1829
11592TIP3    H256192   2.123   5.782  13.375 -2.5181 -0.3774 -0.4393
11593TIP3   OH256193   5.260   6.617   5.436 -0.0366 -0.4659  0.3679
11593TIP3    H156194   5.261   6.611   5.531 -0.8508 -0.3524  0.3860
11593TIP3    H256195   5.341   6.664   5.415  0.0359 -0.2859  1.0158
11594TIP3   OH256196   5.265   4.648   1.360 -0.2998  0.7129  0.6941
11594TIP3    H156197   5.324   4.573   1.349 -0.3722  0.6457  0.7613
11594TIP3    H256198   5.186   4.622   1.313  0.0260  1.1504 -0.1335
11595TIP3   OH256199   5.140   6.734  11.664 -0.2339 -0.6467 -0.0683
11595TIP3    H156200   5.048   6.739  11.640 -0.2397  0.8759  0.1511
11595TIP3    H256201   5.148   6.790  11.741  0.9881 -0.2488 -0.4519
11596TIP3   OH256202   5.754   5.437  15.933 -0.0137  0.4284  0.0435
11596TIP3    H156203   5.834   5.447  15.883  0.3720  0.1384  0.5894
11596TIP3    H256204   5.726   5.526  15.952 -0.2806  0.5473 -0.8544
11597TIP3   OH256205   0.820   2.097  14.055  0.1931 -0.2547 -0.4162
11597TIP3    H156206   0.866   2.178  14.033 -0.3287  0.3622  0.7010
11597TIP3    H256207   0.747   2.093  13.993  1.0178 -0.6126 -1.3930
11598TIP3   OH256208   1.169   3.086   3.650  0.0604  0.1807  0.4240
11598TIP3    H156209   1.262   3.068   3.631 -0.3831 -1.2302 -0.5683
11598TIP3    H256210   1.125   3.076   3.566 -0.7570  2.9816  0.4184
11599TIP3   OH256211   0.480   4.411   1.851  0.0274 -0.1292  0.5417
11599TIP3    H156212   0.481   4.497   1.892  1.2477 -0.1260  0.5478
11599TIP3    H256213   0.545   4.360   1.900 -0.3770 -0.9255  0.2767
11600TIP3   OH256214   5.716   4.141   6.256  0.2988 -0.1847 -0.1083
11600TIP3    H156215   5.647   4.152   6.322  0.0206 -1.9427 -0.0347
11600TIP3    H256216   5.685   4.190   6.180 -1.1112 -1.0191 -0.1095
11601TIP3   OH256217   0.002   1.165   0.585  0.0884  0.6187 -0.1144
11601TIP3    H156218   0.046   1.100   0.529 -0.6578  0.3877 -0.4492
11601TIP3    H256219   0.010   1.247   0.536  0.4722  0.6500  0.0015
11602TIP3   OH256220   0.420   3.648   2.554 -0.1593 -0.0708 -0.3812
11602TIP3    H156221   0.478   3.592   2.501 -0.4979  0.3797 -1.2431
11602TIP3    H256222   0.476   3.680   2.624  0.5013 -0.1018 -0.8788
11603TIP3   OH256223   2.648   2.089   6.244 -0.6358  0.6374  0.4705
11603TIP3    H156224   2.691   2.047   6.318 -0.2188  1.2725  0.6007
11603TIP3    H256225   2.638   2.020   6.179  0.2702  0.3987  0.5733
11604TIP3   OH256226   5.544   3.359  11.581 -0.3475 -0.1295  0.0543
11604TIP3    H156227   5.637   3.341  11.569  0.1372  2.0505 -0.0089
11604TIP3    H256228   5.503   3.274  11.594  1.7520 -1.0801  0.7481
11605TIP3   OH256229   2.630   6.396  16.501 -0.2842  0.0257  0.4610
11605TIP3    H156230   2.696   6.464  16.509  0.8123 -0.9437 -0.0458
11605TIP3    H256231   2.553   6.441  16.466  0.3142  1.0490  0.4244
11606TIP3   OH256232   6.556   4.855  13.652  0.1388 -0.3819  0.1068
11606TIP3    H156233   6.597   4.918  13.593  1.0745  1.8412  2.9145
11606TIP3    H256234   6.609   4.776  13.643  0.4135 -0.0242 -1.7630
11607TIP3   OH256235   3.124   4.867   6.032  0.5827  0.7605 -0.1215
11607TIP3    H156236   3.100   4.943   6.085 -0.6872 -0.7152  1.5592
11607TIP3    H256237   3.042   4.837   5.993  0.9591 -0.0741 -0.3035
11608TIP3   OH256238   4.770   5.388   6.378 -0.3839 -0.3891  0.1964
11608TIP3    H156239   4.846   5.416   6.428 -0.2764  0.3476 -0.3623
11608TIP3    H256240   4.723   5.328   6.436 -0.1625  0.2995  1.0991
11609TIP3   OH256241   5.319   0.258  13.625  0.2008  0.8447 -0.3438
11609TIP3    H156242   5.250   0.321  13.602  0.0059  0.6101 -0.4059
11609TIP3    H256243   5.400   0.307  13.614  0.1141  0.7759 -1.4612
11610TIP3   OH256244   0.388   0.679   2.124 -0.3860 -0.3538 -0.3326
11610TIP3    H156245   0.382   0.724   2.209 -0.0762 -0.9755  0.0205
11610TIP3    H256246   0.393   0.750   2.060  1.3949  0.1392  0.3070
11611TIP3   OH256247   4.164   0.768   5.300  0.1704 -0.1027 -0.3316
11611TIP3    H156248   4.109   0.690   5.292 -0.7522  0.4997  0.0570
11611TIP3    H256249   4.155   0.795   5.391 -1.8037  2.0946 -1.0904
11612TIP3   OH256250   4.021   4.261  11.703  0.4072  0.0566 -0.0912
11612TIP3    H156251   4.004   4.269  11.609  0.0503  0.4315  0.0014
11612TIP3    H256252   3.945   4.301  11.745 -0.7945 -2.5795  0.4060
11613TIP3   OH256253   1.222   1.115   5.162 -0.1082 -0.0759 -0.4436
11613TIP3    H156254   1.242   1.073   5.078  0.1812  1.4824 -1.1763
11613TIP3    H256255   1.171   1.193   5.138  0.1158  0.4720  0.8232
11614TIP3   OH256256   6.154   6.601   3.130  0.4055  0.1859  0.0375
11614TIP3    H156257   6.119   6.574   3.046 -2.4974  2.4081  0.3724
11614TIP3    H256258   6.243   6.632   3.111  0.0272  0.0892 -2.1038
11615TIP3   OH256259   3.598   4.527   1.921 -0.2281 -0.0256 -0.2433
11615TIP3    H156260   3.570   4.464   1.987 -0.7530 -1.4611 -1.7498
11615TIP3    H256261   3.650   4.476   1.859  0.8555  1.4203 -0.5731
11616TIP3   OH256262   3.843   4.071   1.632  0.0920  0.5568 -0.4957
11616TIP3    H156263   3.830   3.979   1.653 -0.6150  0.8248  0.3117
11616TIP3    H256264   3.755   4.104   1.613 -0.1213  1.7107  2.0570
11617TIP3   OH256265   3.975   6.737  15.563 -0.7875 -0.1586 -0.5005
11617TIP3    H156266   3.930   6.740  15.647  0.1763 -0.0907  0.0235
11617TIP3    H256267   3.933   6.666  15.516 -1.2250 -0.3061  0.1037
11618TIP3   OH256268   2.014   3.048   0.683  0.8883 -0.4367  0.1002
11618TIP3    H156269   2.025   3.069   0.775  1.2148  3.0560 -0.5909
11618TIP3    H256270   1.919   3.044   0.670  0.8431 -1.1743  0.5856
11619TIP3   OH256271   0.459   3.530  17.242  0.3448 -0.6646 -0.4117
11619TIP3    H156272   0.544   3.574  17.240  0.4974 -0.7993  1.3866
11619TIP3    H256273   0.480   3.437  17.237  0.2630 -0.6742 -0.5771
11620TIP3   OH256274   4.402   4.884  10.591 -0.0085 -0.6338  0.6283
11620TIP3    H156275   4.441   4.971  10.597  0.4971 -0.9495  3.1500
11620TIP3    H256276   4.462   4.835  10.535  0.8474  0.1037  0.8722
11621TIP3   OH256277   2.806   3.121   5.095 -0.0732 -0.2045  0.0208
11621TIP3    H156278   2.857   3.104   5.174 -0.6869  0.6989  0.6407
11621TIP3    H256279   2.858   3.085   5.024  2.0356  1.7187  0.4661
11622TIP3   OH256280   5.907   5.989   5.818  0.0059 -0.6804  0.4614
11622TIP3    H156281   5.839   6.046   5.856 -1.3517 -1.9506  0.0344
11622TIP3    H256282   5.986   6.011   5.867 -0.3489  1.8404  0.0527
11623TIP3   OH256283   1.211   4.503  14.394  0.2573 -0.5629 -0.2266
11623TIP3    H156284   1.221   4.408  14.400  0.5507 -0.5825 -0.9725
11623TIP3    H256285   1.228   4.524  14.302  1.1122  0.3149  0.1085
11624TIP3   OH256286   5.885   4.753  16.289  0.7924 -0.3591  0.0915
11624TIP3    H156287   5.859   4.799  16.210 -1.6066 -0.5841  0.6628
11624TIP3    H256288   5.868   4.815  16.360  2.8977 -0.1613  0.4888
11625TIP3   OH256289   5.251   4.649  11.972  0.5779  0.2365 -0.3038
11625TIP3    H156290   5.295   4.630  12.055  1.5468 -0.0207 -0.8628
11625TIP3    H256291   5.317   4.631  11.905  0.0619  1.2124 -1.0950
11626TIP3   OH256292   5.203   4.200  14.502  0.5311 -0.2452 -0.2141
11626TIP3    H156293   5.203   4.287  14.540  2.4048  0.2553 -1.2161
11626TIP3    H256294   5.204   4.214  14.407 -1.2742 -1.4186 -0.4635
11627TIP3   OH256295   2.415   0.987  13.000 -0.6324 -0.5227  0.1100
11627TIP3    H156296   2.445   1.043  13.072 -0.9718 -0.7719  0.4503
11627TIP3    H256297   2.492   0.977  12.944 -0.2189 -0.7407  0.7049
11628TIP3   OH256298   1.403   3.634   5.417  0.1245  0.5524 -0.0724
11628TIP3    H156299   1.372   3.699   5.480  0.6692  1.2299 -0.4958
11628TIP3    H256300   1.476   3.591   5.462  0.2023  0.7042 -0.0535
11629TIP3   OH256301   3.804   6.066   0.199  0.0984  0.3372  0.2374
11629TIP3    H156302   3.840   6.091   0.114  0.2061 -1.1135 -0.1791
11629TIP3    H256303   3.710   6.053   0.182 -0.0589  1.0294  0.5760
11630TIP3   OH256304   2.322   2.080  10.381 -0.1416  0.6392  0.1665
11630TIP3    H156305   2.266   2.007  10.354  2.5065 -1.4245 -0.2805
11630TIP3    H256306   2.328   2.136  10.304 -0.2500 -0.0346 -0.3373
11631TIP3   OH256307   5.365   2.312  14.044  0.3386  0.0352 -0.0620
11631TIP3    H156308   5.396   2.291  14.132  2.3641  0.2081 -0.6893
11631TIP3    H256309   5.328   2.400  14.052 -1.7850 -0.8780  1.0837
11632TIP3   OH256310   6.323   1.076  12.084  0.1316 -0.0018  0.0909
11632TIP3    H156311   6.249   1.042  12.135  0.0604 -0.1110 -0.0850
11632TIP3    H256312   6.386   1.004  12.082  1.8058  1.2037  3.2293
11633TIP3   OH256313   6.326   3.455  13.588  0.0255  0.4739  0.7267
11633TIP3    H156314   6.257   3.426  13.529 -2.5997  1.0236  3.3180
11633TIP3    H256315   6.340   3.381  13.647  2.7000 -0.1230 -0.4772
11634TIP3   OH256316   4.506   6.327   2.961 -0.0654 -0.1019  0.3834
11634TIP3    H156317   4.479   6.257   2.901  1.0605 -0.9992  0.8864
11634TIP3    H256318   4.598   6.341   2.942 -0.6777  2.6758 -1.0842
11635TIP3   OH256319   1.072   0.761   4.313  0.0213 -0.4654  0.5212
11635TIP3    H156320   1.153   0.783   4.360  0.1782 -1.1688  0.5836
11635TIP3    H256321   1.032   0.692   4.365  0.8050 -2.1189 -0.9919
11636TIP3   OH256322   1.258   3.872  12.165  0.8104  0.3121 -0.9782
11636TIP3    H156323   1.219   3.786  12.152  0.6540  0.4105 -1.1783
11636TIP3    H256324   1.352   3.855  12.176  0.9009  0.1755 -1.8563
11637TIP3   OH256325   1.663   1.466  15.610 -0.4597  0.1180  0.4092
11637TIP3    H156326   1.722   1.510  15.549 -0.8055 -0.5883 -0.4456
11637TIP3    H256327   1.584   1.450  15.560 -0.2646 -1.6641  0.6182
11638TIP3   OH256328   0.519   6.101   5.730  0.1645  0.1306 -0.3686
11638TIP3    H156329   0.612   6.103   5.753  0.9932 -0.6099 -3.1685
11638TIP3    H256330   0.495   6.192   5.717  0.9570  0.2577 -1.0535
11639TIP3   OH256331   3.273   4.862  11.894 -0.5383  0.2328 -0.1522
11639TIP3    H156332   3.220   4.808  11.836  0.0540 -0.9264  0.3356
11639TIP3    H256333   3.211   4.923  11.934 -1.7184 -1.6216  1.0441
11640TIP3   OH256334   5.978   3.280   3.554  0.4127 -0.3706  0.2263
11640TIP3    H156335   6.025   3.235   3.484 -0.6590 -0.2075 -0.6367
11640TIP3    H256336   5.976   3.218   3.626  1.1330 -0.7280 -0.0535
11641TIP3   OH256337   6.493   5.161  16.910 -0.4526  0.2035  0.4854
11641TIP3    H156338   6.510   5.236  16.967  0.7727  0.4924 -0.2454
11641TIP3    H256339   6.571   5.152  16.857 -0.5395 -1.6451  0.5937
11642TIP3   OH256340   1.219   3.238  16.368 -0.2494  0.1952  0.3343
11642TIP3    H156341   1.193   3.230  16.276 -2.1452  1.1941  0.7494
11642TIP3    H256342   1.167   3.171  16.413  1.5451 -1.1186  0.5753
11643TIP3   OH256343   1.014   0.269   5.601  0.6156  0.3610 -0.3498
11643TIP3    H156344   1.065   0.259   5.681  2.9161 -0.3326 -1.7871
11643TIP3    H256345   0.928   0.300   5.630  1.7105  1.2197  2.2687
11644TIP3   OH256346   2.700   4.207   1.473 -0.4125  0.1218  0.4048
11644TIP3    H156347   2.621   4.188   1.524 -0.1332  0.6154  1.0380
11644TIP3    H256348   2.762   4.243   1.536 -0.5847  2.2158 -0.5155
11645TIP3   OH256349   6.091   4.743  12.270 -1.1706  0.1989  0.8742
11645TIP3    H156350   6.099   4.815  12.333 -2.4679  0.4127  0.8145
11645TIP3    H256351   6.062   4.669  12.323 -1.6140  0.2022  0.6338
11646TIP3   OH256352   6.191   2.587  11.669 -0.0996 -0.1668  0.5034
11646TIP3    H156353   6.226   2.676  11.673  1.1887 -0.6706  0.8847
11646TIP3    H256354   6.118   2.592  11.607 -0.9099  1.4286  1.5167
11647TIP3   OH256355   3.994   2.292   4.975 -0.1012  0.5359 -0.4224
11647TIP3    H156356   4.085   2.269   4.953 -0.5475 -0.7395 -1.0431
11647TIP3    H256357   3.970   2.229   5.044 -0.6485  0.5874 -0.5669
11648TIP3   OH256358   3.815   2.223  11.997 -0.0943  0.0706 -0.9401
11648TIP3    H156359   3.850   2.177  11.921 -0.3511 -2.8608  0.5586
11648TIP3    H256360   3.722   2.203  11.996 -0.3204  1.0649 -0.5226
11649TIP3   OH256361   4.964   2.660  16.128  0.1552  0.2979  0.5924
11649TIP3    H156362   4.963   2.714  16.049  2.0037 -0.2344  0.1583
11649TIP3    H256363   5.041   2.689  16.176  1.2677 -1.9514  0.2944
11650TIP3   OH256364   6.257   3.086  11.362  0.0310 -0.4366 -0.2601
11650TIP3    H156365   6.349   3.096  11.340 -0.2020 -1.3988 -1.7979
11650TIP3    H256366   6.210   3.139  11.298 -0.5290 -0.7975 -0.1636
11651TIP3   OH256367   0.234   6.311  14.390  0.0691  0.0664 -0.4121
11651TIP3    H156368   0.234   6.406  14.402 -2.8903  0.2026 -0.7428
11651TIP3    H256369   0.201   6.277  14.474 -0.4409 -0.5238 -0.8422
11652TIP3   OH256370   6.155   1.759   3.197 -0.0995  0.3132  0.7639
11652TIP3    H156371   6.064   1.733   3.211 -0.5050  0.6920 -0.9125
11652TIP3    H256372   6.151   1.853   3.179  0.4799  0.1560 -0.2951
11653TIP3   OH256373   2.802   1.643  14.527 -0.0231 -0.0600  0.0391
11653TIP3    H156374   2.714   1.608  14.513  0.0322  0.3240 -1.4368
11653TIP3    H256375   2.831   1.672  14.440  1.6598 -0.4152  0.4323
11654TIP3   OH256376   3.714   3.464  11.295  0.5622 -0.1513 -0.7011
11654TIP3    H156377   3.804   3.448  11.324  0.2958  0.5170  0.5822
11654TIP3    H256378   3.721   3.480  11.201  1.5667 -1.7220 -0.9231
11655TIP3   OH256379   6.453   0.476  12.533 -0.3079 -0.4852  0.3876
11655TIP3    H156380   6.503   0.446  12.456 -1.9542 -0.4553 -0.7487
11655TIP3    H256381   6.504   0.549  12.568 -0.9325  1.4705 -2.4686
11656TIP3   OH256382   4.396   1.118   5.249 -0.0889 -0.0550  0.4604
11656TIP3    H156383   4.341   1.167   5.311  2.3932  1.0527  1.9516
11656TIP3    H256384   4.383   1.026   5.274 -1.1834  0.1771  0.8165
11657TIP3   OH256385   2.945   3.304   4.933  0.2510  0.6471  0.0985
11657TIP3    H156386   2.891   3.247   4.987  2.4008 -2.2126 -0.5207
11657TIP3    H256387   3.016   3.331   4.991  0.7008  0.4300 -0.3485
11658TIP3   OH256388   0.782   5.788   1.819 -0.0842  0.7174 -0.1205
11658TIP3    H156389   0.688   5.789   1.799 -0.3545 -0.3026  0.9375
11658TIP3    H256390   0.786   5.782   1.914  1.0670  0.8766 -0.1415
11659TIP3   OH256391   2.508   3.216  12.870  0.6351  0.6190  0.1557
11659TIP3    H156392   2.458   3.193  12.949  1.6050 -1.7967  0.1372
11659TIP3    H256393   2.584   3.263  12.903  0.2095  1.0887  0.4946
11660TIP3   OH256394   4.067   0.831  13.456 -0.0890  0.1948 -0.5449
11660TIP3    H156395   4.117   0.758  13.420  0.5221 -0.9429  2.3326
11660TIP3    H256396   4.132   0.900  13.472 -0.5627  1.2107 -2.6456
11661TIP3   OH256397   0.858   5.993  14.768  0.2837 -0.1987  0.5207
11661TIP3    H156398   0.768   5.965  14.786  0.9416 -1.7295  1.6607
11661TIP3    H256399   0.881   6.050  14.842  0.1670  0.4465  0.0707
11662TIP3   OH256400   4.105   4.045  16.842  0.1587  0.7745  0.4895
11662TIP3    H156401   4.181   4.101  16.830  1.6795 -1.0128  1.2858
11662TIP3    H256402   4.113   3.979  16.773 -1.6406  1.4893 -0.4826
11663TIP3   OH256403   4.132   2.458  11.533  0.0629  0.4821 -0.2583
11663TIP3    H156404   4.056   2.485  11.483 -1.5763 -0.7559  1.4040
11663TIP3    H256405   4.188   2.414  11.470 -1.7204 -0.6380 -1.1489
11664TIP3   OH256406   5.280   4.581  11.490  0.1296 -0.2955 -0.5074
11664TIP3    H156407   5.318   4.540  11.412  1.0212  0.1757 -0.3331
11664TIP3    H256408   5.225   4.651  11.455 -2.2355 -2.1779 -0.8694
11665TIP3   OH256409   6.529   1.313   0.418  0.3497 -0.0130  0.2796
11665TIP3    H156410   6.505   1.379   0.484 -0.1099  0.3465 -0.2418
11665TIP3    H256411   6.625   1.308   0.424  0.5966  2.1051 -0.9674
11666TIP3   OH256412   0.824   4.994   2.510  0.0997 -0.3234 -0.1558
11666TIP3    H156413   0.871   5.077   2.509  0.9892 -0.8213  0.2019
11666TIP3    H256414   0.885   4.931   2.547 -1.2292 -0.7610  1.4182
11667TIP3   OH256415   5.525   1.376  16.470  0.2963 -0.1286  0.1364
11667TIP3    H156416   5.509   1.444  16.405  0.8709 -0.1189  0.0017
11667TIP3    H256417   5.619   1.361  16.467  0.0852 -1.5240 -0.4347
11668TIP3   OH256418   0.397   3.402   5.272 -0.0056 -0.1464 -0.5415
11668TIP3    H156419   0.336   3.466   5.236 -1.3487 -0.9211  0.2770
11668TIP3    H256420   0.369   3.391   5.363  2.4515  0.7510  0.3930
11669TIP3   OH256421   6.551   6.557   0.085  0.2400  0.4327  0.0026
11669TIP3    H156422   6.547   6.556   0.181  1.8055 -0.5850  0.0920
11669TIP3    H256423   6.635   6.516   0.064 -0.5665 -0.3943 -1.8482
11670TIP3   OH256424   4.151   4.213  17.104 -0.1180  0.1970  0.5567
11670TIP3    H156425   4.133   4.180  17.192 -0.0986  0.5359  0.6907
11670TIP3    H256426   4.096   4.160  17.047  1.5249 -1.5905  0.5025
11671TIP3   OH256427   6.742   6.635   4.361 -0.1321  0.4494  0.5472
11671TIP3    H156428   6.693   6.619   4.281  0.5104 -0.7007  0.3586
11671TIP3    H256429   6.679   6.622   4.432 -0.1102 -1.1420  0.3166
11672TIP3   OH256430   0.795   2.794   3.104  0.2701 -0.0855  0.2876
11672TIP3    H156431   0.784   2.866   3.166 -0.2018  1.4093 -1.4541
11672TIP3    H256432   0.706   2.773   3.076  0.4915 -0.5633 -0.0673
11673TIP3   OH256433   1.252   3.704  12.856  0.1275 -0.0129 -0.2263
11673TIP3    H156434   1.176   3.739  12.903  0.8592  1.6952 -0.2451
11673TIP3    H256435   1.279   3.629  12.909 -0.4584  0.4705  0.8130
11674TIP3   OH256436   4.040   2.874  14.676  0.1045  0.0390 -0.1261
11674TIP3    H156437   4.057   2.861  14.583  1.0294 -0.0174  0.0468
11674TIP3    H256438   3.953   2.836  14.689 -0.1201  0.2268 -1.0020
11675TIP3   OH256439   2.809   6.342  15.162 -0.1874  0.0878 -0.4551
11675TIP3    H156440   2.842   6.259  15.129 -0.1574  0.1243 -0.5160
11675TIP3    H256441   2.735   6.363  15.105 -2.1770 -1.4166  1.3695
11676TIP3   OH256442   6.536   0.379  14.835  0.6603 -0.0566 -0.6333
11676TIP3    H156443   6.541   0.466  14.797 -0.3118 -0.2899 -1.3416
11676TIP3    H256444   6.619   0.368  14.882  1.5187  0.5954 -1.9438
11677TIP3   OH256445   2.064   1.334   3.653 -0.9459  0.4666 -0.0113
11677TIP3    H156446   1.977   1.354   3.685 -0.4762  2.0866  0.3332
11677TIP3    H256447   2.079   1.398   3.583  0.1110  0.4629  0.1993
11678TIP3   OH256448   1.846   0.573  16.628  0.6827  0.2972 -0.2403
11678TIP3    H156449   1.922   0.522  16.602  0.3380 -0.0275 -0.6212
11678TIP3    H256450   1.784   0.562  16.557  0.5087  1.0566 -0.2191
11679TIP3   OH256451   0.646   3.551   5.266 -0.0993 -0.5218 -0.5614
11679TIP3    H156452   0.559   3.522   5.292 -0.6118  1.6060  0.3391
11679TIP3    H256453   0.705   3.514   5.333 -0.2839 -1.9486 -1.1657
11680TIP3   OH256454   1.437   0.838   2.677 -0.2836 -0.0776  0.2907
11680TIP3    H156455   1.463   0.779   2.606 -0.4157 -0.6631  0.7105
11680TIP3    H256456   1.492   0.915   2.666 -1.1814  0.3805 -1.1956
11681TIP3   OH256457   6.718   1.029   5.870 -0.0248 -0.2993 -0.5367
11681TIP3    H156458   6.659   1.059   5.939 -1.2873 -1.4891 -1.0617
11681TIP3    H256459   6.769   0.959   5.911  2.3576  1.8381  0.4448
11682TIP3   OH256460   0.229   5.389  17.190 -1.0567  0.4560  0.2739
11682TIP3    H156461   0.250   5.300  17.216  0.1212  0.6920  0.1765
11682TIP3    H256462   0.164   5.418  17.253 -0.3982  0.0135  1.1730
11683TIP3   OH256463   4.644   1.419   5.374  0.3099  0.4240 -0.1468
11683TIP3    H156464   4.642   1.326   5.398  0.7671  0.7609  1.2691
11683TIP3    H256465   4.692   1.420   5.291  0.5265 -0.5900 -0.0522
11684TIP3   OH256466   5.502   1.493   5.285  0.2054  0.4594  0.0270
11684TIP3    H156467   5.478   1.402   5.305  2.1952 -0.0031  0.5816
11684TIP3    H256468   5.571   1.485   5.219  0.1636  1.5939 -0.1727
11685TIP3   OH256469   4.536   4.845   4.007 -0.5603 -0.2146  0.0387
11685TIP3    H156470   4.462   4.807   4.054 -0.9540 -0.4480 -0.7668
11685TIP3    H256471   4.582   4.770   3.969 -0.7232  0.0287 -0.6494
11686TIP3   OH256472   2.725   3.985  15.843 -0.1461 -0.5472  0.8603
11686TIP3    H156473   2.785   3.914  15.822  1.3803  1.3773 -1.8064
11686TIP3    H256474   2.638   3.949  15.822  0.6795 -1.2944 -1.6527
11687TIP3   OH256475   2.825   0.001   4.325  0.3022 -0.1269 -0.2702
11687TIP3    H156476   2.877  -0.016   4.246  1.1080  2.8950 -0.5133
11687TIP3    H256477   2.888   0.035   4.388 -0.4189 -2.0411  1.6090
11688TIP3   OH256478   6.453   4.624  17.377 -0.0650 -0.2496 -0.1564
11688TIP3    H156479   6.369   4.670  17.378 -0.2665 -0.5926 -0.5948
11688TIP3    H256480   6.517   4.691  17.354 -0.1940  0.0522  0.3653
11689TIP3   OH256481   0.143   0.025   3.321  0.0931 -0.5409  0.0461
11689TIP3    H156482   0.206   0.094   3.298 -0.2244 -0.4600 -0.5922
11689TIP3    H256483   0.163   0.005   3.413 -1.0661  1.7792  0.8864
11690TIP3   OH256484   5.271   1.273  15.737  0.4126  0.4935 -0.2040
11690TIP3    H156485   5.193   1.303  15.689 -0.1190  0.0762  0.3858
11690TIP3    H256486   5.344   1.302  15.683 -0.1457  1.0164 -0.7011
11691TIP3   OH256487   0.595   4.732   0.685  0.2240 -0.0882  0.1730
11691TIP3    H156488   0.637   4.683   0.755 -0.7637  0.6771  1.3408
11691TIP3    H256489   0.502   4.723   0.702 -0.0360  0.1540 -1.0296
11692TIP3   OH256490   5.622   5.022  12.921 -0.7672 -0.1465  0.2517
11692TIP3    H156491   5.617   5.079  12.998 -0.2048  0.0014  0.1837
11692TIP3    H256492   5.650   4.937  12.955  0.1616  0.0977  0.1395
11693TIP3   OH256493   4.227   2.731  12.942  0.3024 -0.4535  0.0931
11693TIP3    H156494   4.292   2.758  13.007  1.2316 -1.0277 -0.5715
11693TIP3    H256495   4.143   2.738  12.987  0.8106  0.4250  0.9285
11694TIP3   OH256496   0.755   1.214  15.187  0.6079 -0.0018  0.1108
11694TIP3    H156497   0.781   1.122  15.185 -2.0696 -1.0625  3.4653
11694TIP3    H256498   0.777   1.244  15.276 -1.1150  1.6935  0.0447
11695TIP3   OH256499   0.424   1.064   0.272 -0.1117 -0.0836 -0.3047
11695TIP3    H156500   0.336   1.031   0.254  0.4318 -1.2512 -0.9726
11695TIP3    H256501   0.475   1.040   0.194  1.5619 -2.4082  1.3694
11696TIP3   OH256502   2.744   4.782  13.537 -0.2853 -0.1179 -0.9182
11696TIP3    H156503   2.699   4.698  13.531  0.0175 -0.3417 -0.2265
11696TIP3    H256504   2.836   4.759  13.551 -0.4079  0.3052  0.7487
11697TIP3   OH256505   5.862   2.037  15.120  0.6669 -0.1094 -0.0874
11697TIP3    H156506   5.948   1.999  15.103  1.4740  1.9588 -0.9297
11697TIP3    H256507   5.827   2.060  15.033 -1.5855 -2.5228  0.0603
11698TIP3   OH256508   2.899   3.118   1.666 -0.2577  0.0749 -0.1948
11698TIP3    H156509   2.826   3.154   1.717 -0.0260  0.2141  0.0386
11698TIP3    H256510   2.967   3.100   1.730  0.0120  0.1903 -0.4433
11699TIP3   OH256511   5.704   0.165   0.386  0.0375 -0.4218 -0.0685
11699TIP3    H156512   5.767   0.129   0.449  0.7280  0.3526 -0.3046
11699TIP3    H256513   5.629   0.105   0.391  0.4297 -0.8612  0.8551
11700TIP3   OH256514   0.567   0.530   4.609  0.1338  0.0804  0.3663
11700TIP3    H156515   0.646   0.491   4.570  0.9303  1.7129  0.2717
11700TIP3    H256516   0.559   0.616   4.568 -1.0108  0.4325  1.2661
11701TIP3   OH256517   4.941   5.600  16.464 -0.2937  0.4124 -0.9800
11701TIP3    H156518   4.919   5.636  16.550 -0.7156 -0.4526 -0.7034
11701TIP3    H256519   5.028   5.633  16.445  0.2131 -0.1471  0.2334
11702TIP3   OH256520   0.083   4.411  16.903 -0.3867 -0.0795  0.1980
11702TIP3    H156521   0.080   4.368  16.988  0.8164 -0.6764 -0.0470
11702TIP3    H256522   0.145   4.360  16.851  0.7275  1.6378 -0.2615
11703TIP3   OH256523   0.012   3.201   3.866  0.3100  0.1995 -0.2080
11703TIP3    H156524   0.025   3.149   3.786  0.2354  0.6716 -0.5348
11703TIP3    H256525  -0.040   3.275   3.837 -0.3721 -0.0163  0.4418
11704TIP3   OH256526   2.589   5.311   0.283  0.2029  0.3012 -0.1858
11704TIP3    H156527   2.578   5.361   0.202  0.1745  1.8214  0.7075
11704TIP3    H256528   2.500   5.283   0.307  0.5036 -2.9155 -2.2578
11705TIP3   OH256529   1.376   3.698  15.750  0.6356  0.2354  0.0752
11705TIP3    H156530   1.424   3.699  15.833 -0.3191 -2.4841  0.7397
11705TIP3    H256531   1.300   3.754  15.766  0.9091  0.4308  0.7180
11706TIP3   OH256532   2.734   3.994  16.261 -0.6345  0.1168  0.1888
11706TIP3    H156533   2.730   4.048  16.340 -0.7186  0.6201 -0.1534
11706TIP3    H256534   2.798   4.039  16.206 -0.0465 -0.6179  0.2527
11707TIP3   OH256535   6.619   2.762   6.183 -0.1786  0.1084 -0.0272
11707TIP3    H156536   6.707   2.800   6.189 -0.6805  1.3683 -0.3334
11707TIP3    H256537   6.562   2.831   6.217 -1.0925 -0.5497 -0.2160
11708TIP3   OH256538   2.713   4.785  16.578  0.4807 -0.0764 -0.5495
11708TIP3    H156539   2.650   4.789  16.507  0.7505 -3.3067 -1.1362
11708TIP3    H256540   2.659   4.779  16.658  0.0316 -1.1970 -0.9146
11709TIP3   OH256541   1.406   2.968   0.295  0.3050 -0.1299 -0.3262
11709TIP3    H156542   1.380   3.008   0.212  1.2429  0.5678 -0.3071
11709TIP3    H256543   1.426   2.877   0.272 -1.4944 -0.5281 -0.4386
11710TIP3   OH256544   3.683   3.893   1.219  0.0428 -0.0225  0.1964
11710TIP3    H156545   3.677   3.871   1.312  0.3214  0.6872  0.3858
11710TIP3    H256546   3.699   3.987   1.217  0.4196 -0.0939 -0.5595
11711TIP3   OH256547   6.504   6.533  15.864 -0.1944 -0.5825 -0.9168
11711TIP3    H156548   6.597   6.515  15.852  0.2785  0.0125  1.2838
11711TIP3    H256549   6.488   6.613  15.814  0.8078 -0.0020 -0.3626
11712TIP3   OH256550   5.481   5.701   4.800  0.8656 -0.7444  0.1935
11712TIP3    H156551   5.530   5.775   4.765  1.4216 -0.2253  1.9869
11712TIP3    H256552   5.463   5.647   4.724  1.3222  0.7251 -1.0105
11713TIP3   OH256553   4.566   1.244  15.744  0.1274 -0.1694 -0.2028
11713TIP3    H156554   4.608   1.175  15.692  0.1672 -0.9810  0.8847
11713TIP3    H256555   4.551   1.315  15.681  0.9314 -0.7992 -1.1364
11714TIP3   OH256556   3.371   4.642  12.949  0.0503  0.0935  0.3458
11714TIP3    H156557   3.371   4.625  13.043  0.9451 -0.6200  0.2279
11714TIP3    H256558   3.444   4.591  12.915 -0.9940 -0.6077 -0.9252
11715TIP3   OH256559   3.269   1.329  10.116 -0.0725  0.2104  0.1660
11715TIP3    H156560   3.350   1.301  10.158 -0.1503  0.2049  0.3106
11715TIP3    H256561   3.213   1.359  10.188 -0.7229 -1.0493  0.2095
11716TIP3   OH256562   5.849   2.719   3.207  0.3287  0.8029  0.1101
11716TIP3    H156563   5.893   2.644   3.247 -1.2278  0.1777  0.7169
11716TIP3    H256564   5.862   2.707   3.113 -1.0761 -1.0268  0.0979
11717TIP3   OH256565   5.099   5.422  16.893 -0.3421  0.2677 -0.2666
11717TIP3    H156566   5.014   5.379  16.882  0.4146 -1.4730  0.3977
11717TIP3    H256567   5.113   5.425  16.987  0.8753 -0.5915 -0.4013
11718TIP3   OH256568   4.399   0.878   5.777 -0.2858 -0.3559 -0.0607
11718TIP3    H156569   4.378   0.790   5.745 -0.4976 -0.7997  1.2628
11718TIP3    H256570   4.332   0.897   5.842 -0.3212  0.8521 -0.4216
11719TIP3   OH256571   1.681   5.595  15.226 -0.1104  0.2402 -0.0559
11719TIP3    H156572   1.673   5.644  15.144 -1.5056  2.7761  1.4824
11719TIP3    H256573   1.599   5.545  15.231 -0.9592  1.6307  0.6593
11720TIP3   OH256574   5.837   4.221   4.180 -0.2597  0.0762  0.1775
11720TIP3    H156575   5.808   4.200   4.268  1.0394 -1.1270  0.3461
11720TIP3    H256576   5.901   4.292   4.192 -1.8646  1.6499 -0.0616
11721TIP3   OH256577   5.758   2.512  10.254 -0.1000  0.3281  0.4728
11721TIP3    H156578   5.683   2.571  10.256 -0.2911  0.0973  0.2456
11721TIP3    H256579   5.821   2.555  10.197 -0.3078  0.2314  0.1700
11722TIP3   OH256580   0.615   2.249  12.095 -0.4631  0.1258  0.2266
11722TIP3    H156581   0.700   2.286  12.071 -0.2858 -1.1383 -1.2419
11722TIP3    H256582   0.603   2.276  12.186  2.7915 -1.8692  1.4384
11723TIP3   OH256583   3.141   2.586  16.128  0.3177  0.5048 -0.0800
11723TIP3    H156584   3.087   2.662  16.149  0.5947  0.3099  1.4937
11723TIP3    H256585   3.229   2.621  16.119  0.1145  0.6734 -1.6212
11724TIP3   OH256586   4.195   2.311  14.589 -0.0719 -0.7188 -0.2398
11724TIP3    H156587   4.211   2.296  14.495 -0.0542  2.5378 -0.9076
11724TIP3    H256588   4.280   2.341  14.622 -0.8798  1.6608 -0.1257
11725TIP3   OH256589   5.413   2.964   4.853 -0.2547  0.0691  0.1053
11725TIP3    H156590   5.357   3.028   4.898  2.4559  2.3290  0.5573
11725TIP3    H256591   5.362   2.883   4.855 -1.9868  0.9943  3.7531
11726TIP3   OH256592   4.487   4.707  15.282 -0.6115 -0.7514 -0.5421
11726TIP3    H156593   4.442   4.772  15.337  2.1248  0.1894  0.7596
11726TIP3    H256594   4.438   4.708  15.200 -2.1491  1.1535  0.3041
11727TIP3   OH256595   1.334   5.363   0.142  0.0042  0.2476 -0.0377
11727TIP3    H156596   1.395   5.293   0.118  0.8161 -0.1881  2.9443
11727TIP3    H256597   1.257   5.348   0.087  1.6128 -0.6497 -2.1712
11728TIP3   OH256598   5.551   6.637  16.611  0.3436 -0.1572 -0.2914
11728TIP3    H156599   5.507   6.556  16.585 -0.5928  0.7606 -1.7970
11728TIP3    H256600   5.480   6.702  16.612  0.9618  0.5240  1.5304
11729TIP3   OH256601   1.664   4.900   3.566 -0.7831 -0.6675  0.5554
11729TIP3    H156602   1.639   4.910   3.658 -3.7031  2.0683 -0.3156
11729TIP3    H256603   1.666   4.990   3.533  2.4835 -1.3794 -1.6133
11730TIP3   OH256604   3.893   3.641  14.608  0.7790 -0.0834  0.1154
11730TIP3    H156605   3.808   3.628  14.565 -0.2756  0.9497  1.7429
11730TIP3    H256606   3.926   3.553  14.624 -1.1465 -0.6011  1.5624
11731TIP3   OH256607   5.962   3.910   3.185  0.0476  0.0221  0.2066
11731TIP3    H156608   5.999   3.906   3.096 -0.7463 -2.1977 -0.0775
11731TIP3    H256609   5.978   3.823   3.222 -1.5225  0.2121  1.4520
11732TIP3   OH256610   4.850   6.596  10.325 -0.4043  0.0735 -0.5422
11732TIP3    H156611   4.799   6.588  10.244 -0.5578 -3.4424 -0.2464
11732TIP3    H256612   4.909   6.520  10.323  0.8080  0.8733  1.8358
11733TIP3   OH256613   4.879   6.490  15.425 -0.1983  0.1512  0.2075
11733TIP3    H156614   4.810   6.490  15.491  0.1750  0.0553  0.6024
11733TIP3    H256615   4.833   6.504  15.342 -0.5417  1.7787  0.6277
11734TIP3   OH256616   4.309   0.292  11.609 -0.3638 -0.5531 -0.1877
11734TIP3    H156617   4.353   0.352  11.549 -0.2505  0.4093  0.8159
11734TIP3    H256618   4.244   0.247  11.556  1.1732 -1.3132 -1.5026
11735TIP3   OH256619   6.474   0.516   4.197 -0.9135 -0.5103 -0.1957
11735TIP3    H156620   6.432   0.452   4.255 -1.0943  0.3053  0.5917
11735TIP3    H256621   6.401   0.562   4.157 -0.7788 -0.6636 -0.6245
11736TIP3   OH256622   6.292   5.723   3.485  0.0520 -0.2462  0.5109
11736TIP3    H156623   6.209   5.688   3.450  0.4549 -0.3961 -0.3130
11736TIP3    H256624   6.349   5.730   3.409  0.4088  1.0153  0.8698
11737TIP3   OH256625   6.002   0.118  15.031  0.4034 -0.0082 -0.4066
11737TIP3    H156626   5.955   0.105  15.113  0.9175  1.4966  0.1691
11737TIP3    H256627   6.089   0.080  15.047  0.9261  1.3738  0.2326
11738TIP3   OH256628   3.960   3.453  11.431  0.6424  0.1896  0.0273
11738TIP3    H156629   4.038   3.399  11.439 -0.3689 -1.5624 -1.3021
11738TIP3    H256630   3.985   3.521  11.368  0.8701 -0.8814 -1.0786
11739TIP3   OH256631   3.686   6.753   4.889 -0.0824 -0.1696 -0.1116
11739TIP3    H156632   3.636   6.835   4.899 -2.1845 -1.0407 -2.5099
11739TIP3    H256633   3.757   6.776   4.829 -0.8795 -0.1476 -1.0684
11740TIP3   OH256634   4.519   1.310  13.430  0.0887  0.6189 -0.1816
11740TIP3    H156635   4.437   1.274  13.463 -0.1766  0.7041 -0.7217
11740TIP3    H256636   4.493   1.360  13.352  0.6569  0.6147 -0.3785
11741TIP3   OH256637   3.328   0.978  11.413  0.5388  0.6494  0.2715
11741TIP3    H156638   3.407   1.031  11.402  0.5174  0.4561 -0.9254
11741TIP3    H256639   3.286   1.014  11.492  2.1724  0.2826  1.3533
11742TIP3   OH256640   0.908   3.613  11.311  0.5959  0.7105  0.0379
11742TIP3    H156641   0.984   3.575  11.356 -1.2894 -0.4898  2.4206
11742TIP3    H256642   0.914   3.580  11.222  0.5157 -3.1829  1.2963
11743TIP3   OH256643   1.375   0.014   1.913 -0.0450  0.3045  0.3790
11743TIP3    H156644   1.341   0.093   1.872 -0.5817  0.0258  0.2837
11743TIP3    H256645   1.392  -0.046   1.841  0.5791  0.4094  0.4316
11744TIP3   OH256646   3.623   3.834   5.124  0.3162  0.4476  0.4984
11744TIP3    H156647   3.543   3.800   5.163  0.6286  1.2492  1.9248
11744TIP3    H256648   3.599   3.858   5.035 -0.9381  0.3452  0.7992
11745TIP3   OH256649   3.757   1.340  10.818  0.1503  0.5225  0.3466
11745TIP3    H156650   3.709   1.402  10.873 -0.6982  0.0335  0.1799
11745TIP3    H256651   3.692   1.311  10.754  0.8586  0.3326 -0.2920
11746TIP3   OH256652   2.545   4.362   2.200 -0.2433 -0.1364 -0.6654
11746TIP3    H156653   2.620   4.320   2.158 -0.1711 -0.3522 -0.3217
11746TIP3    H256654   2.535   4.316   2.283 -1.8048 -1.2163 -1.4258
11747TIP3   OH256655   2.140   1.465  10.849  0.1259 -0.1167 -0.5740
11747TIP3    H156656   2.205   1.491  10.784 -0.0958 -1.8432 -1.5387
11747TIP3    H256657   2.181   1.486  10.934  2.0273 -1.3358 -1.1382
11748TIP3   OH256658   3.438   6.698  11.016  0.3330  0.0017  0.0430
11748TIP3    H156659   3.430   6.733  11.105 -0.1371 -0.1161  0.0504
11748TIP3    H256660   3.348   6.693  10.984  0.5686  1.0712 -0.8507
11749TIP3   OH256661   2.469   2.269   6.370  0.2925 -0.4429  0.6146
11749TIP3    H156662   2.503   2.203   6.311  0.8526  0.1316  0.2875
11749TIP3    H256663   2.407   2.222   6.426 -0.9736 -0.8102 -1.0342
11750TIP3   OH256664   6.074   1.316  16.990  0.2456  0.2884  0.2295
11750TIP3    H156665   6.050   1.402  17.023 -0.4009  0.7658 -1.3948
11750TIP3    H256666   6.117   1.333  16.907 -0.6427 -0.9897 -0.5295
11751TIP3   OH256667   6.352   1.717   4.614  0.4587 -0.8486  0.1309
11751TIP3    H156668   6.365   1.812   4.621 -0.2623 -0.7901  0.7530
11751TIP3    H256669   6.301   1.706   4.534 -0.3347 -0.6099  0.5884
11752TIP3   OH256670   5.234   0.851   1.764 -0.7839  0.1859  0.5040
11752TIP3    H156671   5.255   0.794   1.690 -0.2640  0.3450  0.5260
11752TIP3    H256672   5.305   0.915   1.766 -0.6113 -0.0173  1.3378
11753TIP3   OH256673   6.527   4.552   3.043 -0.0987 -1.0450 -0.6154
11753TIP3    H156674   6.620   4.538   3.057  0.0627 -1.3811 -1.8792
11753TIP3    H256675   6.522   4.624   2.980 -0.8294  1.7071  2.3564
11754TIP3   OH256676   4.339   0.113  16.218 -0.2241 -0.4377 -0.4298
11754TIP3    H156677   4.247   0.092  16.201 -0.0302  0.1127 -2.4429
11754TIP3    H256678   4.387   0.068  16.147  0.8967  0.5300 -0.3087
11755TIP3   OH256679   0.346   6.597  13.181  0.1878 -0.0983  0.3990
11755TIP3    H156680   0.271   6.609  13.240 -0.5564 -1.0249 -0.3331
11755TIP3    H256681   0.338   6.506  13.150  0.4786  0.4106 -1.2451
11756TIP3   OH256682   2.779   0.545  11.832  0.6363 -0.2289 -0.0910
11756TIP3    H156683   2.767   0.639  11.842 -1.6732 -0.5122  0.3126
11756TIP3    H256684   2.861   0.536  11.782  2.5224  1.8413  2.3767
11757TIP3   OH256685   5.364   4.734  15.065 -0.2960 -0.8318 -0.0443
11757TIP3    H156686   5.357   4.702  15.155  1.3223 -1.9105 -0.2489
11757TIP3    H256687   5.411   4.817  15.073 -1.8309  0.0353  0.2387
11758TIP3   OH256688   5.221   2.161   2.277  0.4903  0.2687 -0.0716
11758TIP3    H156689   5.312   2.179   2.252  0.1168  1.5037 -0.6003
11758TIP3    H256690   5.179   2.134   2.196  0.2434  0.3073  0.0449
11759TIP3   OH256691   4.999   4.397  16.020 -0.2540  0.6601 -0.4930
11759TIP3    H156692   4.994   4.315  15.972 -0.6453  0.8744 -0.8296
11759TIP3    H256693   5.035   4.460  15.957 -0.2502  0.8158 -0.3375
11760TIP3   OH256694   5.011   0.142   3.230 -0.0833 -0.2315 -0.0396
11760TIP3    H156695   5.040   0.135   3.321 -0.3797 -1.3102 -0.0117
11760TIP3    H256696   5.058   0.217   3.195 -0.6769  0.7834  1.2702
11761TIP3   OH256697   2.447   3.812   0.841  0.5839  0.4035  0.5326
11761TIP3    H156698   2.424   3.851   0.926  2.4199  0.8002  0.8914
11761TIP3    H256699   2.538   3.785   0.851  0.2085 -1.4894 -0.6466
11762TIP3   OH256700   1.386   2.211  14.038  0.8610 -0.6997  0.4678
11762TIP3    H156701   1.477   2.182  14.029  0.3078 -2.3148 -0.4399
11762TIP3    H256702   1.337   2.131  14.059 -0.2950  0.2217  1.4815
11763TIP3   OH256703   3.179   5.837   3.590  0.8647 -0.5385  0.2643
11763TIP3    H156704   3.251   5.813   3.532  1.2844  1.1783  0.0398
11763TIP3    H256705   3.218   5.896   3.655  0.2537 -1.8394  1.8954
11764TIP3   OH256706   2.380   2.002   1.911 -0.0481  0.2861  0.6595
11764TIP3    H156707   2.451   2.066   1.921 -1.0769  1.7369 -0.8029
11764TIP3    H256708   2.426   1.918   1.904  1.3970  0.9301  1.7395
11765TIP3   OH256709   2.867   6.236   1.521 -0.3160  0.6688 -0.1885
11765TIP3    H156710   2.910   6.314   1.555 -3.1062  2.4574 -0.4009
11765TIP3    H256711   2.906   6.222   1.435  1.2087  0.9514  0.4343
11766TIP3   OH256712   1.202   6.603  12.548 -0.0446  0.1028 -0.1223
11766TIP3    H156713   1.153   6.547  12.608  1.1232 -0.7492  0.0723
11766TIP3    H256714   1.182   6.567  12.461  1.3236 -1.1762  0.0506
11767TIP3   OH256715   4.444   1.672  11.155  0.1203 -0.3643 -0.0962
11767TIP3    H156716   4.395   1.617  11.216 -2.4945  1.5223 -0.3449
11767TIP3    H256717   4.391   1.674  11.076  1.4200  0.4865 -0.9824
11768TIP3   OH256718   2.955   6.580   1.408 -0.6860  0.4707  0.1482
11768TIP3    H156719   2.975   6.602   1.499 -1.0168 -0.8895  0.5604
11768TIP3    H256720   3.034   6.605   1.360  0.0389 -0.1142  1.0128
11769TIP3   OH256721   6.734   2.310  15.447 -0.2363 -0.5083  0.0335
11769TIP3    H156722   6.674   2.238  15.466 -1.2979  0.8873  2.4191
11769TIP3    H256723   6.820   2.277  15.470 -0.3680 -1.7082 -1.0558
11770TIP3   OH256724   4.010   3.446   0.821  0.0969 -0.2116  0.2068
11770TIP3    H156725   3.977   3.453   0.911 -0.7982 -0.4069 -0.0899
11770TIP3    H256726   4.065   3.367   0.822  0.2819 -0.0831  0.6343
11771TIP3   OH256727   4.522   3.648   2.878  0.0528 -0.1224 -0.4374
11771TIP3    H156728   4.616   3.667   2.869  0.7034 -2.9387 -0.3486
11771TIP3    H256729   4.518   3.555   2.898 -2.8232 -0.2443 -1.1748
11772TIP3   OH256730   0.700   1.524  10.823 -0.5202 -0.0885 -0.1772
11772TIP3    H156731   0.710   1.531  10.918 -0.3440  0.7726 -0.2574
11772TIP3    H256732   0.726   1.433  10.803 -0.7243 -0.3260  0.6084
11773TIP3   OH256733   3.545   1.287  12.454 -0.1263  0.7989  0.1525
11773TIP3    H156734   3.478   1.227  12.421  2.0072 -0.6877 -1.7176
11773TIP3    H256735   3.517   1.373  12.422 -1.9784  0.5295  0.8728
11774TIP3   OH256736   2.124   1.001  11.452 -0.0557 -0.2925  0.0467
11774TIP3    H156737   2.033   1.029  11.439  0.5940  1.7205 -0.4936
11774TIP3    H256738   2.151   0.968  11.366 -0.3844 -1.2935  0.3165
11775TIP3   OH256739   0.999   5.774  15.066  0.2448  0.5942  0.1023
11775TIP3    H156740   0.974   5.699  15.012 -0.6974  0.2637  0.9690
11775TIP3    H256741   0.917   5.820  15.083  0.6103  1.0222  0.7474
11776TIP3   OH256742   4.350   6.657   5.835  0.4751 -0.0257  0.1237
11776TIP3    H156743   4.438   6.662   5.798  0.6585 -0.4499  0.4891
11776TIP3    H256744   4.313   6.578   5.796  0.1591  0.2928 -0.2283
11777TIP3   OH256745   0.227   6.246  17.343 -0.4007 -0.0251  0.0580
11777TIP3    H156746   0.315   6.285  17.339 -0.1535 -0.4344  1.1754
11777TIP3    H256747   0.224   6.203  17.428 -0.7689 -2.2175 -0.9966
11778TIP3   OH256748   4.732   2.980   0.653 -0.6775 -0.3131  0.3181
11778TIP3    H156749   4.794   2.911   0.633 -0.0699  0.4365 -0.4391
11778TIP3    H256750   4.685   2.995   0.571  0.3789  1.3314 -0.0279
11779TIP3   OH256751   2.393   3.769  14.145  0.4042  0.6007  0.3046
11779TIP3    H156752   2.424   3.679  14.136 -2.7903 -0.5437 -0.5094
11779TIP3    H256753   2.420   3.812  14.064 -0.9341 -0.6250 -0.8234
11780TIP3   OH256754   1.724   1.853   3.127 -0.0142  0.2371  0.0908
11780TIP3    H156755   1.670   1.899   3.191  0.3734  1.8633 -0.7020
11780TIP3    H256756   1.684   1.874   3.042  2.1024  1.9099 -0.5636
11781TIP3   OH256757   3.251   4.564   5.900 -0.3284 -0.1222  0.2153
11781TIP3    H156758   3.257   4.519   5.816 -1.9561  0.3654 -0.2145
11781TIP3    H256759   3.232   4.495   5.963  1.1296 -0.5226  0.2478
11782TIP3   OH256760   2.022   3.473   3.680  0.2402 -0.1201  0.5407
11782TIP3    H156761   2.115   3.456   3.666  0.2111 -0.7798  1.1007
11782TIP3    H256762   1.982   3.386   3.682 -1.1776  0.0921 -4.6025
11783TIP3   OH256763   6.324   2.655   4.995 -0.0934  0.1659 -1.3459
11783TIP3    H156764   6.311   2.663   4.900 -2.3410 -0.7218 -1.1827
11783TIP3    H256765   6.238   2.631   5.028  1.2168 -2.2175  0.6298
11784TIP3   OH256766   5.304   0.972   0.272 -0.1485  0.0598 -0.4124
11784TIP3    H156767   5.301   0.987   0.366  2.2310  1.8823 -0.5406
11784TIP3    H256768   5.214   0.988   0.242 -0.7232  0.4081  1.4028
11785TIP3   OH256769   2.490   3.899   1.756 -0.1412  0.0521 -0.4389
11785TIP3    H156770   2.491   3.894   1.852  1.3489 -0.2482 -0.4489
11785TIP3    H256771   2.453   3.815   1.728  0.7497 -0.4436 -0.1443
11786TIP3   OH256772   5.572   2.545  14.907 -0.2243 -0.1774  0.0603
11786TIP3    H156773   5.574   2.584  14.995  0.2248 -1.0082  0.4307
11786TIP3    H256774   5.662   2.515  14.892 -0.0285  0.9362 -1.1478
11787TIP3   OH256775   2.655   2.208  16.239  0.1482  0.4131  0.0256
11787TIP3    H156776   2.582   2.269  16.229 -2.0713 -1.7931  1.6011
11787TIP3    H256777   2.668   2.172  16.151 -3.1948 -1.7248  0.2277
11788TIP3   OH256778   1.074   1.953   5.276 -0.2274  0.3239  0.3025
11788TIP3    H156779   0.990   1.991   5.252 -1.4853 -1.2844  1.9227
11788TIP3    H256780   1.072   1.864   5.240  0.0323 -0.3162  1.7993
11789TIP3   OH256781   5.285   6.010  14.553 -0.2855 -0.0476 -0.5898
11789TIP3    H156782   5.288   5.986  14.646 -0.4004 -0.1975 -0.6242
11789TIP3    H256783   5.227   6.086  14.550 -0.2401 -0.0098 -0.5322
11790TIP3   OH256784   0.565   1.989   2.325 -0.8151 -0.2209  0.3401
11790TIP3    H156785   0.576   2.056   2.392 -2.6321 -0.6558  1.1224
11790TIP3    H256786   0.630   1.922   2.348  1.2278  1.2935 -0.6237
11791TIP3   OH256787   0.731   2.037  16.321  0.1438  0.7257  0.3654
11791TIP3    H156788   0.794   2.032  16.392  0.1574  0.2920  0.3226
11791TIP3    H256789   0.776   1.998  16.246 -1.1824 -2.3385  1.0427
11792TIP3   OH256790   0.860   6.047   2.221 -0.4055  0.0317  0.5325
11792TIP3    H156791   0.788   6.042   2.158 -0.0233 -0.8200  0.1439
11792TIP3    H256792   0.909   6.125   2.195  0.3905 -0.9155 -0.9735
11793TIP3   OH256793   6.357   5.928   1.927  0.1926  0.6441  0.0742
11793TIP3    H156794   6.321   5.848   1.888 -1.0990  1.6714 -0.9186
11793TIP3    H256795   6.292   5.996   1.908  1.5158  2.0624  0.4129
11794TIP3   OH256796   6.206   0.341  15.001  0.2109  0.4176  0.1029
11794TIP3    H156797   6.293   0.308  14.976 -1.0539 -1.8014 -1.7983
11794TIP3    H256798   6.170   0.271  15.056 -0.8206  0.7537 -0.1342
11795TIP3   OH256799   3.595   6.396   3.951 -0.0848 -0.2848  0.0563
11795TIP3    H156800   3.530   6.436   3.893  1.5677  1.1905 -0.8563
11795TIP3    H256801   3.595   6.452   4.029 -2.3735 -2.3171  1.6847
11796TIP3   OH256802   1.944   3.781  15.897 -0.2046  0.0032 -0.3396
11796TIP3    H156803   1.905   3.726  15.965 -1.8217 -1.0670 -2.0229
11796TIP3    H256804   1.891   3.860  15.897 -1.5047 -0.8157 -1.5991
11797TIP3   OH256805   5.384   4.010  11.377 -0.1489 -0.0145  0.0921
11797TIP3    H156806   5.357   4.024  11.286  0.3791 -0.6757 -0.1662
11797TIP3    H256807   5.448   3.939  11.373 -2.4019 -2.2714  1.3139
11798TIP3   OH256808   3.480   3.669   1.407  0.2261 -0.1383 -0.0868
11798TIP3    H156809   3.398   3.628   1.380  0.6483 -1.4984  0.6334
11798TIP3    H256810   3.544   3.640   1.341  0.0601  1.2777 -0.9024
11799TIP3   OH256811   3.873   4.378  17.388  0.2996  0.2992  0.4180
11799TIP3    H156812   3.877   4.418  17.475 -1.4875  0.4807  0.4495
11799TIP3    H256813   3.808   4.309  17.396  2.2781 -1.7274 -0.0370
11800TIP3   OH256814   1.894   1.003   5.153 -0.4903  0.3845  0.1424
11800TIP3    H156815   1.918   1.093   5.177  0.3879  0.2003 -0.0101
11800TIP3    H256816   1.839   0.973   5.224  0.1088  0.6740  0.7464
11801TIP3   OH256817   4.143   3.904  11.316 -0.3320  0.1258  0.4957
11801TIP3    H156818   4.175   3.871  11.232  2.7510  0.9561  1.2038
11801TIP3    H256819   4.131   3.997  11.302  0.5434  0.3309  1.0302
11802TIP3   OH256820   3.670   5.888  11.354 -0.2766  0.6034 -0.3280
11802TIP3    H156821   3.717   5.861  11.275  0.5349 -0.6760  0.5483
11802TIP3    H256822   3.624   5.968  11.329  0.1540  0.3512 -2.0165
11803TIP3   OH256823   4.637   6.029  12.894 -0.0211 -0.1600  0.6652
11803TIP3    H156824   4.682   6.102  12.851 -0.9577  1.4989  2.3382
11803TIP3    H256825   4.601   5.977  12.823  1.5731  0.4083 -0.6140
11804TIP3   OH256826   2.024   0.513   3.344 -0.0413  0.5656  0.8342
11804TIP3    H156827   1.975   0.469   3.414 -0.5395  1.0705  0.8064
11804TIP3    H256828   2.095   0.452   3.323  0.6501  0.8082  2.4011
11805TIP3   OH256829   5.262   0.769  14.747 -0.0350  0.4286 -0.1358
11805TIP3    H156830   5.191   0.826  14.776  1.2030  1.9524  0.0280
11805TIP3    H256831   5.276   0.709  14.820 -0.2786  1.0050  0.3976
11806TIP3   OH256832   2.494   4.147  10.552 -0.4144  0.0434 -0.2870
11806TIP3    H156833   2.406   4.185  10.553 -0.3064  0.2914 -0.1323
11806TIP3    H256834   2.551   4.219  10.578 -0.3878 -0.6620  1.8080
11807TIP3   OH256835   2.522   4.631   2.215  0.1170  0.2526  0.8109
11807TIP3    H156836   2.580   4.652   2.142  0.2175  0.0706  0.8364
11807TIP3    H256837   2.501   4.538   2.203 -1.3955  0.6778 -0.0508
11808TIP3   OH256838   4.392   3.714   1.561  0.3431 -0.0139 -0.2481
11808TIP3    H156839   4.453   3.780   1.596 -0.2306  0.9366 -1.0080
11808TIP3    H256840   4.448   3.654   1.511  0.6138  1.1873 -1.4382
11809TIP3   OH256841   4.046   5.250  14.693 -0.3310 -0.2103  0.6617
11809TIP3    H156842   3.976   5.315  14.696  0.4205  0.6612 -0.3829
11809TIP3    H256843   4.015   5.184  14.630  0.9258  1.5986 -2.0146
11810TIP3   OH256844   4.777   5.773  13.889 -0.0458 -0.2196  0.1746
11810TIP3    H156845   4.807   5.682  13.902  1.5323  0.1828 -0.3364
11810TIP3    H256846   4.812   5.820  13.965 -0.7412 -0.0034  0.3645
11811TIP3   OH256847   2.024   5.994  16.906 -0.4662  1.3569 -0.4733
11811TIP3    H156848   2.075   6.029  16.979  0.4907  1.6835 -1.2787
11811TIP3    H256849   2.014   5.901  16.927 -1.8401  1.7930  1.0020
11812TIP3   OH256850   2.571   6.190  12.704  0.4227  0.6390 -0.0263
11812TIP3    H156851   2.575   6.193  12.609 -0.4505  0.4871 -0.0751
11812TIP3    H256852   2.489   6.234  12.727  0.2106 -0.0564  0.6012
11813TIP3   OH256853   6.684   3.646  15.578  0.3534  0.1571  0.2154
11813TIP3    H156854   6.630   3.715  15.618 -0.5789 -0.2540 -0.3041
11813TIP3    H256855   6.729   3.606  15.652 -2.2092 -1.3687  1.0879
11814TIP3   OH256856   3.672   3.176   3.672 -0.0787 -0.5048 -0.6682
11814TIP3    H156857   3.726   3.251   3.647 -0.1930 -0.4617 -0.7868
11814TIP3    H256858   3.734   3.111   3.703  0.0625 -0.5496 -1.0444
11815TIP3   OH256859   0.997   0.061  17.197  0.6584  0.4449  0.0343
11815TIP3    H156860   1.060   0.088  17.263  1.9018  2.1445 -1.7394
11815TIP3    H256861   1.017  -0.032  17.182  1.4305  0.4612  0.8797
11816TIP3   OH256862   6.291   6.671   1.878 -0.2498 -0.1634  0.3499
11816TIP3    H156863   6.385   6.684   1.866  0.1260 -2.2046  0.7296
11816TIP3    H256864   6.267   6.607   1.811 -1.0599 -0.7174  1.1484
11817TIP3   OH256865   0.764   0.305  13.791  0.8429 -0.2168 -0.4627
11817TIP3    H156866   0.753   0.231  13.732 -3.9828 -0.2755  0.0654
11817TIP3    H256867   0.739   0.382  13.739  2.1327  0.5579  0.0143
11818TIP3   OH256868   3.927   4.872   5.288  0.0427 -0.4732 -0.6446
11818TIP3    H156869   3.838   4.903   5.300 -0.2377 -1.0441 -1.1518
11818TIP3    H256870   3.917   4.792   5.237  0.8748 -0.2819 -1.1290
11819TIP3   OH256871   3.282   5.102  14.290  0.0688 -0.6011  0.0440
11819TIP3    H156872   3.377   5.107  14.290  0.0957 -1.0608 -0.0393
11819TIP3    H256873   3.262   5.021  14.243 -0.2531 -2.1948  2.7552
11820TIP3   OH256874   3.479   0.110  13.393  0.3920  0.0494 -0.4149
11820TIP3    H156875   3.454   0.145  13.307  1.3587  1.2121 -0.2554
11820TIP3    H256876   3.459   0.181  13.454 -0.3043 -0.7756  0.3444
11821TIP3   OH256877   5.673   2.311   2.013 -0.5748 -0.2318 -0.6875
11821TIP3    H156878   5.697   2.375   1.946 -0.4288  0.2337 -0.2006
11821TIP3    H256879   5.753   2.300   2.065 -0.4683 -1.1285 -1.0086
11822TIP3   OH256880   1.666   2.577   2.627  0.5410  0.3467  0.2035
11822TIP3    H156881   1.699   2.522   2.556  0.3310  0.5742 -0.0722
11822TIP3    H256882   1.656   2.517   2.701 -0.6834 -0.2203 -0.3871
11823TIP3   OH256883   2.376   3.252   3.138  0.2812 -0.4327  0.7162
11823TIP3    H156884   2.388   3.179   3.078  0.0743  0.8192 -0.9266
11823TIP3    H256885   2.284   3.277   3.127 -0.1678 -1.0262  2.6284
11824TIP3   OH256886   2.544   4.669   1.061  0.3970  0.5508  0.3403
11824TIP3    H156887   2.492   4.589   1.073  1.4725 -0.2422 -0.1095
11824TIP3    H256888   2.494   4.737   1.106 -0.7351 -0.2951  0.4095
11825TIP3   OH256889   0.076   4.802  15.633  0.0868  0.5549 -0.1142
11825TIP3    H156890   0.140   4.731  15.638 -0.2788  0.0688 -1.6505
11825TIP3    H256891   0.082   4.846  15.718 -0.6925 -2.1865  1.4824
11826TIP3   OH256892   3.753   0.254  12.765 -0.0051  0.6573  0.1913
11826TIP3    H156893   3.745   0.194  12.839  0.5451 -2.4718 -2.0736
11826TIP3    H256894   3.791   0.201  12.696  1.1572  3.8814 -1.8600
11827TIP3   OH256895   4.099   5.448   6.141 -0.2285 -0.2204 -0.4958
11827TIP3    H156896   4.177   5.423   6.093 -2.2330 -4.1441 -2.1380
11827TIP3    H256897   4.120   5.431   6.233  1.6731  1.5641 -0.5444
11828TIP3   OH256898   5.738   1.481  12.345  0.3275 -0.1364 -0.6899
11828TIP3    H156899   5.781   1.546  12.402  1.1085 -1.1548 -0.0834
11828TIP3    H256900   5.664   1.529  12.307 -1.4205  0.1519  2.6168
11829TIP3   OH256901   0.241   0.518   0.397  0.0609 -0.3023 -0.2592
11829TIP3    H156902   0.258   0.425   0.415 -0.7093 -0.4810 -0.3786
11829TIP3    H256903   0.181   0.545   0.466  0.2036  0.0782 -0.2853
11830TIP3   OH256904   6.666   0.008  11.766  0.1798  0.9792  0.8578
11830TIP3    H156905   6.683  -0.043  11.687  0.0945 -0.4573  1.7303
11830TIP3    H256906   6.657   0.098  11.735  2.4639  0.8236 -0.5013
11831TIP3   OH256907   1.435   6.105  14.523 -0.1507  0.1676  0.2631
11831TIP3    H156908   1.443   6.130  14.431 -1.7022  1.6549  0.4751
11831TIP3    H256909   1.500   6.158  14.568  1.5254 -1.5104 -0.0721
11832TIP3   OH256910   5.383   4.877  16.071 -0.3014  0.4838 -1.0274
11832TIP3    H156911   5.390   4.837  16.158  0.1441 -0.1152 -1.3316
11832TIP3    H256912   5.349   4.965  16.088  2.7646  1.6131  0.0924
11833TIP3   OH256913   0.746   1.655  15.990 -0.1025 -0.1523  0.1837
11833TIP3    H156914   0.709   1.742  16.006  0.5909  0.0686  0.6341
11833TIP3    H256915   0.694   1.597  16.046 -1.3169 -0.2176 -0.9715
11834TIP3   OH256916   3.888   6.585  10.550 -0.3084  0.0960  0.1508
11834TIP3    H156917   3.967   6.534  10.531 -0.4852 -0.8367  1.7615
11834TIP3    H256918   3.921   6.670  10.579  0.0451  0.1890 -0.4924
11835TIP3   OH256919   6.165   2.462   5.151 -0.0510 -0.4458  0.0170
11835TIP3    H156920   6.184   2.396   5.218  1.5467 -1.7873 -1.6159
11835TIP3    H256921   6.251   2.488   5.119 -0.4914  3.8238  1.7144
11836TIP3   OH256922   4.467   1.167  17.379  0.7281 -0.1926  0.2926
11836TIP3    H156923   4.491   1.235  17.443  0.8062  0.0911 -0.0381
11836TIP3    H256924   4.417   1.103  17.430  0.9605 -0.0690  0.6845
11837TIP3   OH256925   3.586   1.006   0.140 -0.5853  0.0136 -0.6196
11837TIP3    H156926   3.499   0.981   0.171 -1.1298  0.8952 -1.3834
11837TIP3    H256927   3.621   1.063   0.210 -0.2965 -0.9248  0.0271
11838TIP3   OH256928   0.616   2.885   3.498 -0.4016  0.3008  0.7016
11838TIP3    H156929   0.576   2.866   3.413 -0.7192  1.7026  0.5174
11838TIP3    H256930   0.710   2.882   3.482 -0.4432 -0.4685  0.5503
11839TIP3   OH256931   3.202   4.933   1.823  0.0335 -0.4389 -0.1162
11839TIP3    H156932   3.262   4.863   1.797  0.5631  0.3293 -0.9764
11839TIP3    H256933   3.117   4.889   1.830  0.5273 -1.3613  0.3006
11840TIP3   OH256934   5.052   3.900   2.354 -0.1878  0.4782 -0.7636
11840TIP3    H156935   5.093   3.979   2.391 -0.5099  0.5353 -0.5263
11840TIP3    H256936   5.017   3.928   2.270  2.3790 -0.1352 -2.1460
11841TIP3   OH256937   6.196   2.714  15.878  0.1045  0.2388 -0.6439
11841TIP3    H156938   6.171   2.789  15.932  0.0052  0.6902 -1.3024
11841TIP3    H256939   6.234   2.753  15.799 -1.7908 -0.3536 -1.9119
11842TIP3   OH256940   4.345   4.887  16.265  0.2564  0.4910 -0.5650
11842TIP3    H156941   4.291   4.933  16.201  0.1339 -0.9790 -1.5842
11842TIP3    H256942   4.292   4.811  16.291  0.4487  0.8861  1.0459
11843TIP3   OH256943   4.122   5.425   3.392 -0.1713 -0.0642 -0.3552
11843TIP3    H156944   4.041   5.450   3.349  1.2411  0.6207 -2.8214
11843TIP3    H256945   4.159   5.508   3.423  1.5391  0.3090 -3.0516
11844TIP3   OH256946   5.074   5.079   4.288 -0.4598  0.5649  0.2993
11844TIP3    H156947   4.981   5.095   4.303 -0.6800  0.0861 -0.4799
11844TIP3    H256948   5.116   5.103   4.370 -1.4517 -0.7768  1.2621
11845TIP3   OH256949   2.608   2.907  16.736 -0.0159 -0.3415 -0.1850
11845TIP3    H156950   2.521   2.943  16.756  0.3800  1.1536 -0.9857
11845TIP3    H256951   2.606   2.818  16.772 -1.2500  0.2701  1.3838
11846TIP3   OH256952   2.453   5.172   3.630  0.1398  0.1898 -0.4106
11846TIP3    H156953   2.456   5.092   3.683  1.3458  0.2046 -0.4461
11846TIP3    H256954   2.448   5.140   3.539 -2.7651  0.1518 -0.3356
11847TIP3   OH256955   6.573   2.118   6.086 -0.2866  0.4160  0.0724
11847TIP3    H156956   6.491   2.071   6.100  0.2734 -0.4649  0.4982
11847TIP3    H256957   6.626   2.097   6.162  0.5728  0.4536 -0.4988
11848TIP3   OH256958   5.295   6.553   4.367 -0.2097  0.6342  0.1381
11848TIP3    H156959   5.220   6.591   4.321  0.6614  2.2788  0.0053
11848TIP3    H256960   5.372   6.594   4.327  0.6891  0.2554  1.3947
11849TIP3   OH256961   0.605   1.926   1.019  0.3897  0.3408 -0.3647
11849TIP3    H156962   0.600   1.891   0.930  2.0913  0.4235 -0.5097
11849TIP3    H256963   0.621   1.849   1.073 -0.8825  0.2566 -0.0652
11850TIP3   OH256964   4.050   0.172  15.377 -0.1293  0.2681 -0.0278
11850TIP3    H156965   3.977   0.232  15.366  1.6161  2.3432 -1.2383
11850TIP3    H256966   4.013   0.095  15.421 -3.2917  0.5992 -1.8120
11851TIP3   OH256967   1.080   0.146  13.525 -0.1015 -0.1872  0.3923
11851TIP3    H156968   1.103   0.239  13.530  0.5311 -0.3895  1.5173
11851TIP3    H256969   1.003   0.144  13.468 -0.8377  1.1490  1.2904
11852TIP3   OH256970   3.736   2.321  11.666  0.1267 -0.1253 -0.2729
11852TIP3    H156971   3.651   2.325  11.623 -0.3297  1.3209  0.6889
11852TIP3    H256972   3.777   2.405  11.646  1.2908 -0.7341 -0.5867
11853TIP3   OH256973   0.954   3.874  12.787 -0.4531 -0.2562  0.1531
11853TIP3    H156974   0.926   3.959  12.752 -1.3027  0.0757  1.5512
11853TIP3    H256975   1.037   3.856  12.743 -1.8776 -0.3363 -2.7080
11854TIP3   OH256976   1.719   4.820   0.631 -0.2192  0.0300 -0.3575
11854TIP3    H156977   1.771   4.898   0.649 -1.0094  0.4302  0.2079
11854TIP3    H256978   1.773   4.748   0.664 -0.8634  0.6009  2.1560
11855TIP3   OH256979   1.116   5.689   3.849 -0.2802  0.2557  0.0895
11855TIP3    H156980   1.204   5.711   3.878 -0.1927  0.3686 -0.2535
11855TIP3    H256981   1.129   5.642   3.766 -0.5498  0.4628 -0.0729
11856TIP3   OH256982   6.110   2.620   1.856 -0.0081 -0.3246 -0.1213
11856TIP3    H156983   6.024   2.594   1.889  0.1891  0.2622  0.9035
11856TIP3    H256984   6.094   2.649   1.766 -0.8987 -0.1133  0.0963
11857TIP3   OH256985   1.930   0.488   0.497 -0.6911 -0.1763 -0.6302
11857TIP3    H156986   1.840   0.504   0.467 -1.5015 -0.5339  1.4309
11857TIP3    H256987   1.929   0.512   0.589  1.4404  0.0992 -0.6314
11858TIP3   OH256988   0.597   0.202   5.693 -0.1299  0.3110  0.4060
11858TIP3    H156989   0.605   0.263   5.620 -1.7794 -0.8342 -0.8302
11858TIP3    H256990   0.587   0.257   5.770 -0.2606  1.5819 -0.4879
11859TIP3   OH256991   1.834   6.358  12.172 -0.2180  0.5754 -0.3712
11859TIP3    H156992   1.926   6.381  12.163 -0.2054  0.7971  0.2861
11859TIP3    H256993   1.802   6.352  12.082  1.1894 -2.6405 -0.8188
11860TIP3   OH256994   3.923   4.880   3.814  0.3831 -0.0795 -0.2140
11860TIP3    H156995   3.967   4.881   3.900  0.5081  1.8852 -0.2515
11860TIP3    H256996   3.955   4.800   3.772  0.9282 -0.6829  1.2599
11861TIP3   OH256997   1.796   5.611  13.381 -0.1596 -0.3175 -0.3289
11861TIP3    H156998   1.703   5.589  13.381 -0.0981 -0.6054  0.8530
11861TIP3    H256999   1.838   5.536  13.422  0.7890 -0.8877 -2.2025
11862TIP3   OH257000   6.398   0.675  11.681 -0.2777  0.4996 -0.3635
11862TIP3    H157001   6.331   0.701  11.617  0.8078  0.1129 -1.6994
11862TIP3    H257002   6.354   0.684  11.766 -2.2057 -0.2562 -1.2120
11863TIP3   OH257003   0.200   1.857  15.162 -0.5984  0.1718 -0.2853
11863TIP3    H157004   0.289   1.874  15.132 -0.5934  0.8281  0.0933
11863TIP3    H257005   0.144   1.901  15.098 -0.7012 -1.0524 -1.0787
11864TIP3   OH257006   2.688   5.055   5.606 -0.5644 -0.0227  0.1924
11864TIP3    H157007   2.684   5.132   5.550  2.0100  1.4334  1.8161
11864TIP3    H257008   2.624   5.071   5.674  0.1242  0.8447  0.6565
11865TIP3   OH257009   0.600   0.648   2.761 -1.0558  0.5521 -0.3681
11865TIP3    H157010   0.681   0.601   2.743 -0.9599  1.0845 -1.3772
11865TIP3    H257011   0.563   0.603   2.837 -0.4460 -0.4778 -0.6598
11866TIP3   OH257012   1.252   5.711  13.712 -0.0530 -0.4957 -1.0176
11866TIP3    H157013   1.235   5.656  13.789 -0.3915 -0.5787 -1.1479
11866TIP3    H257014   1.166   5.721  13.671 -0.8216  3.2611  1.0483
11867TIP3   OH257015   4.367   0.297   3.533  0.0916 -0.1547 -0.0191
11867TIP3    H157016   4.427   0.296   3.608  2.3569  0.7735 -1.7158
11867TIP3    H257017   4.411   0.246   3.465 -1.2273  0.2392 -1.2318
11868TIP3   OH257018   3.917   3.206  13.534  0.8203 -0.1837 -1.1294
11868TIP3    H157019   3.905   3.140  13.602 -1.6415 -0.5392 -1.7988
11868TIP3    H257020   3.868   3.172  13.459  1.5179  1.2844 -2.3168
11869TIP3   OH257021   4.055   1.528  16.009  0.5119  0.3725 -0.1141
11869TIP3    H157022   4.015   1.443  16.028 -0.1040  0.5271 -0.6694
11869TIP3    H257023   4.149   1.510  16.003  0.4739 -0.0963  0.6696
11870TIP3   OH257024   5.552   6.109  11.166 -0.5656  0.1616 -0.2799
11870TIP3    H157025   5.496   6.130  11.092 -0.6343 -1.2969 -0.6710
11870TIP3    H257026   5.539   6.015  11.180  0.0577  0.2530  1.0695
11871TIP3   OH257027   0.661   1.177  12.353 -0.0542  0.2930 -0.1707
11871TIP3    H157028   0.567   1.186  12.371 -0.0145 -0.0495  0.2198
11871TIP3    H257029   0.671   1.086  12.325 -0.1107  0.7831 -1.9394
11872TIP3   OH257030   0.903   1.714   0.629 -0.2510 -0.0345 -0.4827
11872TIP3    H157031   0.862   1.777   0.687 -0.3745 -0.4434 -0.1225
11872TIP3    H257032   0.977   1.761   0.589 -0.4813  0.4020 -0.3947
11873TIP3   OH257033   1.162   1.693  14.234  0.3701 -0.3598 -0.1194
11873TIP3    H157034   1.239   1.742  14.205  0.5272  0.2423  1.2588
11873TIP3    H257035   1.173   1.606  14.196  1.4066 -0.0918 -0.4631
11874TIP3   OH257036   2.436   4.227  17.284  0.3499  0.3480  0.3188
11874TIP3    H157037   2.435   4.172  17.362  0.2632  1.5970  1.2325
11874TIP3    H257038   2.528   4.246  17.268  0.4957 -1.1844 -0.8499
11875TIP3   OH257039   2.223   6.547   4.850  0.4236 -0.0067  0.1059
11875TIP3    H157040   2.225   6.492   4.928  0.9128 -0.3588 -0.1496
11875TIP3    H257041   2.311   6.583   4.844  0.7048 -0.8162 -0.8698
11876TIP3   OH257042   6.065   0.638  14.465 -0.2298  0.1998  0.2253
11876TIP3    H157043   6.122   0.665  14.394  0.8813 -0.2701  0.9220
11876TIP3    H257044   6.115   0.654  14.545 -0.3181 -1.9401  0.7699
11877TIP3   OH257045   0.077   5.709  13.660  0.3608  0.2332  0.3543
11877TIP3    H157046   0.149   5.647  13.645  1.4315  1.4668  0.2461
11877TIP3    H257047   0.051   5.694  13.751  0.7178 -0.2653  0.3789
11878TIP3   OH257048   5.298   0.598   5.785 -0.0389  0.2693  0.2158
11878TIP3    H157049   5.236   0.546   5.734 -0.5665  1.1923 -0.1147
11878TIP3    H257050   5.248   0.625   5.862  0.1100  0.5997  0.1974
11879TIP3   OH257051   3.934   0.537  15.253 -0.9509 -0.1696 -0.2084
11879TIP3    H157052   3.855   0.483  15.261 -0.5245 -0.7843  0.0003
11879TIP3    H257053   3.949   0.544  15.159 -0.7952 -0.7672 -0.2372
11880TIP3   OH257054   3.328   2.789  13.194  0.4016  0.8617 -0.2598
11880TIP3    H157055   3.335   2.698  13.165 -1.3575  0.2577  1.0629
11880TIP3    H257056   3.252   2.823  13.147  0.7331  1.5029 -0.3430
11881TIP3   OH257057   6.290   0.084   3.483  0.6179  1.1739  0.2833
11881TIP3    H157058   6.303   0.103   3.390 -0.5910  0.3037 -0.0923
11881TIP3    H257059   6.200   0.111   3.500 -0.0946 -1.1642  0.4990
11882TIP3   OH257060   6.488   6.429   4.916  0.8444  0.3792 -0.0082
11882TIP3    H157061   6.423   6.398   4.979 -0.6516  1.3624 -1.0040
11882TIP3    H257062   6.567   6.379   4.936 -0.4610 -1.5175  0.6553
11883TIP3   OH257063   1.177   5.549  15.162 -0.0217 -0.5445 -0.3809
11883TIP3    H157064   1.205   5.508  15.080 -0.0428  0.5628 -0.9609
11883TIP3    H257065   1.152   5.638  15.137 -0.9486 -0.4882  0.6757
11884TIP3   OH257066   1.432   1.425   2.101 -0.3422 -0.2007  0.4124
11884TIP3    H157067   1.495   1.433   2.029  0.7620  0.5297  1.4268
11884TIP3    H257068   1.417   1.331   2.108 -1.1598 -0.2479 -1.3225
11885TIP3   OH257069   6.638   0.665  10.760  0.2368 -0.2154  0.1797
11885TIP3    H157070   6.710   0.603  10.757 -0.5229 -1.0852 -1.3076
11885TIP3    H257071   6.626   0.685  10.853  1.7542 -0.7801  0.5150
11886TIP3   OH257072   1.332   0.569   0.950  0.1966  0.4890 -0.5036
11886TIP3    H157073   1.379   0.509   0.892  0.7999 -0.3835  0.8313
11886TIP3    H257074   1.292   0.512   1.016 -1.2831  1.3683 -0.5905
11887TIP3   OH257075   2.122   1.700  14.403 -0.2516  0.1706  0.2244
11887TIP3    H157076   2.144   1.607  14.403 -0.5104  0.1103  0.6195
11887TIP3    H257077   2.064   1.712  14.478  1.7208  1.1176  1.6996
11888TIP3   OH257078   0.823   2.273  12.874 -0.4115 -0.5270  0.2299
11888TIP3    H157079   0.833   2.216  12.798  0.8931  1.3770 -1.0918
11888TIP3    H257080   0.904   2.322  12.879 -1.3216  0.9449  1.5632
11889TIP3   OH257081   4.042   1.744   3.655  0.6882 -0.1209 -0.6156
11889TIP3    H157082   4.134   1.766   3.638  1.4107 -2.5381 -0.2230
11889TIP3    H257083   4.016   1.803   3.726  2.3468 -0.2529  0.1605
11890TIP3   OH257084   4.595   2.928  12.867  0.3550  0.0676 -0.1245
11890TIP3    H157085   4.683   2.904  12.896  0.0866  0.1045  0.7401
11890TIP3    H257086   4.597   3.023  12.859  0.1554  0.1557  0.7435
11891TIP3   OH257087   5.657   1.335   3.906 -0.0901  0.0501  0.1202
11891TIP3    H157088   5.667   1.402   3.973 -2.2965 -0.9745  1.5958
11891TIP3    H257089   5.666   1.252   3.953 -1.8404 -0.6950 -0.7543
11892TIP3   OH257090   1.728   4.335   4.148 -0.3622 -0.2017 -0.1690
11892TIP3    H157091   1.679   4.281   4.209 -0.0195  2.7614  3.0155
11892TIP3    H257092   1.820   4.315   4.166 -0.2668 -0.4215 -0.8619
11893TIP3   OH257093   5.890   5.665   2.437  0.1053 -0.3143 -0.4719
11893TIP3    H157094   5.875   5.664   2.532  0.6669 -1.9862 -0.3709
11893TIP3    H257095   5.806   5.693   2.400  0.0771  1.0173  0.5293
11894TIP3   OH257096   1.960   3.687   4.617  0.5978 -0.2810  0.7700
11894TIP3    H157097   1.970   3.592   4.613  1.6489 -0.1852  0.7190
11894TIP3    H257098   1.874   3.701   4.656  0.6958 -1.2465  1.3626
11895TIP3   OH257099   4.997   3.130  12.050 -0.2739 -0.7873  0.2079
11895TIP3    H157100   5.071   3.091  12.005 -0.2035 -1.3484  0.7971
11895TIP3    H257101   5.014   3.115  12.143 -0.7269 -0.2122  0.3940
11896TIP3   OH257102   5.870   0.545  15.933  0.2660  0.3905 -0.2320
11896TIP3    H157103   5.860   0.520  15.841 -0.7796  0.0744 -0.0467
11896TIP3    H257104   5.900   0.636  15.931  0.0363  0.4513 -0.8863
11897TIP3   OH257105   3.046   1.770  14.765  0.3354 -0.0041  0.8471
11897TIP3    H157106   2.958   1.799  14.741  0.2787 -1.1994 -0.4915
11897TIP3    H257107   3.082   1.732  14.685  1.3893 -1.1870  1.8354
11898TIP3   OH257108   2.448   6.536  10.997 -0.0070 -0.2071  0.1635
11898TIP3    H157109   2.543   6.531  11.004  0.0332 -2.0335 -0.9714
11898TIP3    H257110   2.417   6.461  11.047 -0.9171  0.7623  1.1043
11899TIP3   OH257111   0.375   0.481  16.251 -0.4982 -0.6832 -0.5455
11899TIP3    H157112   0.376   0.414  16.319  1.7812  0.3266  0.4955
11899TIP3    H257113   0.347   0.560  16.296  0.3264 -0.1659 -0.9316
11900TIP3   OH257114   6.603   4.008   5.237  0.0334 -0.3367 -0.0194
11900TIP3    H157115   6.557   4.088   5.210  0.4701 -0.3198 -0.7226
11900TIP3    H257116   6.609   4.015   5.332  0.3455  0.6219 -0.1022
11901TIP3   OH257117   3.773   2.361  17.318  0.0259 -0.3758 -0.3428
11901TIP3    H157118   3.811   2.448  17.308 -0.0399 -0.2729  0.2295
11901TIP3    H257119   3.845   2.300  17.302 -0.0750 -0.2310 -1.3615
11902TIP3   OH257120   2.395   3.714  15.286 -0.4123  0.3536  0.2821
11902TIP3    H157121   2.395   3.619  15.272 -1.6162  0.3280  0.2761
11902TIP3    H257122   2.311   3.743  15.250 -0.0504  1.4286  0.2696
11903TIP3   OH257123   6.189   1.695  13.300 -0.1280  0.3289  0.3466
11903TIP3    H157124   6.094   1.681  13.307 -0.2897  1.1752 -0.0625
11903TIP3    H257125   6.227   1.631  13.360 -0.9803  0.2414  0.8099
11904TIP3   OH257126   4.518   4.222  16.419  0.7260  0.0756 -0.3542
11904TIP3    H157127   4.503   4.130  16.438 -0.2942  0.2227 -0.3902
11904TIP3    H257128   4.613   4.229  16.406  1.1516 -0.5337  1.9323
11905TIP3   OH257129   1.500   1.868  14.746 -0.0108 -0.0846  0.0762
11905TIP3    H157130   1.588   1.867  14.708 -0.2194 -2.3850 -0.4985
11905TIP3    H257131   1.443   1.888  14.672 -0.0637  0.5708  0.2824
11906TIP3   OH257132   0.475   2.436   0.582  0.4337 -0.3629 -0.0555
11906TIP3    H157133   0.476   2.531   0.588  1.4690 -0.4112  0.8419
11906TIP3    H257134   0.410   2.417   0.514 -1.2219  0.8908  1.0929
11907TIP3   OH257135   6.709   0.041  10.094 -0.2782  0.2982  0.1575
11907TIP3    H157136   6.661  -0.040  10.107  1.7257 -0.8845  0.5712
11907TIP3    H257137   6.763   0.051  10.172  1.9888  0.2123 -1.3049
11908TIP3   OH257138   5.748   3.249  14.514  0.4122 -0.1080  0.2826
11908TIP3    H157139   5.725   3.207  14.431 -0.7544  0.8011  0.1301
11908TIP3    H257140   5.699   3.199  14.580  1.0968 -0.6348  0.4007
11909TIP3   OH257141   1.391   5.088  15.780 -0.3695  0.1427  0.3407
11909TIP3    H157142   1.297   5.095  15.792 -0.4250 -0.0506  0.0266
11909TIP3    H257143   1.421   5.178  15.769 -0.8069  0.0754 -1.6960
11910TIP3   OH257144   3.954   3.451   0.479  0.2813  0.1427  0.9832
11910TIP3    H157145   3.925   3.408   0.560  1.9494  0.7967  1.9565
11910TIP3    H257146   4.017   3.517   0.507  1.6613 -0.2810 -0.9188
11911TIP3   OH257147   0.527   5.430   0.977  0.1903  0.2440 -0.3119
11911TIP3    H157148   0.612   5.389   0.960 -0.3491 -1.5015  0.9186
11911TIP3    H257149   0.473   5.408   0.901  0.6089  0.7783 -0.7751
11912TIP3   OH257150   5.866   5.221   5.346  0.2461 -0.3119 -0.5055
11912TIP3    H157151   5.871   5.215   5.251 -0.1998 -0.1872 -0.5397
11912TIP3    H257152   5.825   5.139   5.374 -0.5650  0.0794 -0.5108
11913TIP3   OH257153   3.124   6.329  16.698  0.6898  0.1555  0.2489
11913TIP3    H157154   3.032   6.308  16.710  0.2983  1.3287 -0.4722
11913TIP3    H257155   3.128   6.374  16.614  1.9897 -0.2204  0.0784
11914TIP3   OH257156   3.230   0.771  11.578  0.5183  0.3568  0.0997
11914TIP3    H157157   3.152   0.793  11.627  0.5766  0.5256  0.1174
11914TIP3    H257158   3.199   0.756  11.489  0.3545 -0.3385  0.2640
11915TIP3   OH257159   2.841   6.263  16.296 -0.3678  0.2856 -0.1691
11915TIP3    H157160   2.784   6.236  16.368  1.0907  0.2950  1.0270
11915TIP3    H257161   2.824   6.198  16.228 -0.3537 -0.9106  0.9226
11916TIP3   OH257162   0.827   2.201   4.845  0.1953  0.2350 -0.4201
11916TIP3    H157163   0.742   2.179   4.805  1.0341 -2.1849 -1.0572
11916TIP3    H257164   0.867   2.116   4.864  1.9435  1.3273  1.0886
11917TIP3   OH257165   1.658   2.717  14.755  0.4974  0.5140  0.1702
11917TIP3    H157166   1.643   2.704  14.849 -0.4033 -2.1602 -0.2621
11917TIP3    H257167   1.751   2.699  14.743 -0.0170 -2.5330  0.1477
11918TIP3   OH257168   5.913   4.397   2.176  0.2907  0.3506  0.4168
11918TIP3    H157169   5.980   4.364   2.236 -1.7601 -1.7837  1.6850
11918TIP3    H257170   5.905   4.490   2.198  0.6288 -0.0608  2.4489
11919TIP3   OH257171   2.517   3.200   4.995  0.5297  0.0130  0.3130
11919TIP3    H157172   2.604   3.220   4.960  0.2650 -0.8704 -0.9171
11919TIP3    H257173   2.534   3.172   5.085  1.5601 -0.5232 -0.0299
11920TIP3   OH257174   2.227   2.540   3.797  0.2799 -0.6120  1.0766
11920TIP3    H157175   2.303   2.562   3.743 -0.7198 -0.5199 -0.3730
11920TIP3    H257176   2.237   2.447   3.815  0.5635 -0.6810  0.5908
11921TIP3   OH257177   0.593   2.497   4.242  0.0191  0.5841 -0.1675
11921TIP3    H157178   0.591   2.427   4.176 -1.7737  0.7725 -0.3408
11921TIP3    H257179   0.687   2.513   4.256  0.4505 -0.7663 -1.2662
11922TIP3   OH257180   5.531   5.341   0.338  0.1238  0.2608 -0.6364
11922TIP3    H157181   5.444   5.339   0.376  0.2189 -0.1655 -0.4320
11922TIP3    H257182   5.527   5.410   0.272 -0.1391  0.7830 -0.0896
11923TIP3   OH257183   1.478   5.225  14.505 -0.5778 -0.4257 -0.5511
11923TIP3    H157184   1.547   5.288  14.483 -1.1642 -0.6396 -3.2554
11923TIP3    H257185   1.522   5.162  14.562  0.5321  1.3052  0.6375
11924TIP3   OH257186   4.039   3.392  10.821  0.0763  0.0402 -0.3395
11924TIP3    H157187   4.126   3.352  10.815 -0.0871 -0.4680  0.5159
11924TIP3    H257188   4.050   3.479  10.781  0.9813 -0.0078 -0.2186
11925TIP3   OH257189   1.723   3.899   4.100  0.0191 -0.4361  0.0652
11925TIP3    H157190   1.690   3.892   4.190 -1.0064  0.0640 -0.2632
11925TIP3    H257191   1.645   3.893   4.045  0.8011 -2.5794 -0.9041
11926TIP3   OH257192   4.528   1.515   0.816  0.2109  0.1355 -0.1674
11926TIP3    H157193   4.498   1.604   0.797 -1.3701 -0.0670  1.1692
11926TIP3    H257194   4.491   1.461   0.747  0.6044  0.3983 -0.5930
11927TIP3   OH257195   1.813   3.312  15.872  0.1230 -0.0285 -0.5939
11927TIP3    H157196   1.776   3.325  15.959 -3.0891 -0.0953 -1.8277
11927TIP3    H257197   1.819   3.399  15.834  0.1930 -0.1204 -0.8009
11928TIP3   OH257198   2.001   6.350  11.167  0.3270 -0.0359 -0.1367
11928TIP3    H157199   1.946   6.273  11.188  1.6336 -1.6451 -2.2545
11928TIP3    H257200   1.953   6.424  11.205 -0.7649 -1.8870  2.4394
11929TIP3   OH257201   0.986   6.341   3.742  0.1467 -0.3653 -0.1721
11929TIP3    H157202   0.919   6.284   3.779 -0.6332  1.0143  0.6563
11929TIP3    H257203   1.066   6.318   3.790  0.1316 -1.5683 -0.7023
11930TIP3   OH257204   6.519   4.982   2.095  0.3610  0.9136 -0.6345
11930TIP3    H157205   6.499   4.889   2.090  3.0492  0.0102  2.1461
11930TIP3    H257206   6.456   5.017   2.158  0.6286  0.4895 -0.1204
11931TIP3   OH257207   5.809   1.043  15.709  0.0203 -0.3737 -0.4426
11931TIP3    H157208   5.748   1.069  15.639 -0.4326 -0.7343 -0.1933
11931TIP3    H257209   5.884   1.101  15.699 -0.6058  0.4524 -0.4111
11932TIP3   OH257210   4.161   3.633   1.366  0.8878 -0.3359 -0.1013
11932TIP3    H157211   4.229   3.597   1.423  0.1184 -0.2383  0.8915
11932TIP3    H257212   4.134   3.714   1.408  1.7764  0.8600 -1.7073
11933TIP3   OH257213   0.423   5.342   0.723 -0.0475  0.0399  0.0696
11933TIP3    H157214   0.438   5.399   0.649  0.1352 -0.8166 -0.5663
11933TIP3    H257215   0.328   5.328   0.724  0.1831 -2.4685 -1.9859
11934TIP3   OH257216   4.495   1.767  12.072  0.2529 -0.1715  0.3550
11934TIP3    H157217   4.567   1.752  12.133 -0.0333 -1.7759  0.3294
11934TIP3    H257218   4.421   1.719  12.108  0.1450 -1.3928 -1.3596
11935TIP3   OH257219   5.641   5.947  16.434 -0.1176  0.3560 -0.3617
11935TIP3    H157220   5.671   5.990  16.514  0.2869 -0.1537 -0.2388
11935TIP3    H257221   5.673   5.857  16.441 -1.5590 -0.1743 -0.2857
11936TIP3   OH257222   4.148   0.049  13.999 -0.6480  0.8015 -0.4413
11936TIP3    H157223   4.233   0.064  14.039  0.2816 -2.3642 -1.0096
11936TIP3    H257224   4.164  -0.015  13.930 -3.5069 -0.0326 -0.4754
11937TIP3   OH257225   1.556   6.699  10.629  0.2849 -0.2342 -0.6001
11937TIP3    H157226   1.595   6.618  10.595  1.5874 -0.2504  0.8507
11937TIP3    H257227   1.463   6.679  10.635  0.4243 -1.2257 -1.3329
11938TIP3   OH257228   1.337   6.644   2.163 -0.1316  0.2076  0.3200
11938TIP3    H157229   1.412   6.704   2.164  1.4834 -1.4620 -2.5903
11938TIP3    H257230   1.284   6.673   2.089 -0.0261 -1.0873 -0.3016
11939TIP3   OH257231   1.119   5.930  12.120  0.3979 -0.5290  0.1179
11939TIP3    H157232   1.117   5.847  12.072  1.8171 -0.9425  0.7442
11939TIP3    H257233   1.162   5.909  12.202 -1.3915  0.3192  1.3208
11940TIP3   OH257234   4.327   2.008   4.183 -0.8911 -0.1067  0.0646
11940TIP3    H157235   4.273   2.087   4.188  0.3335  0.8522 -1.1920
11940TIP3    H257236   4.411   2.034   4.221 -0.6390 -0.9586  0.1055
11941TIP3   OH257237   3.669   3.927   4.532 -0.4237 -0.3475 -0.5200
11941TIP3    H157238   3.636   3.852   4.482  1.1114  0.0763 -2.2662
11941TIP3    H257239   3.762   3.931   4.510 -0.2698  1.4913  0.3164
11942TIP3   OH257240   5.437   2.927   1.406 -0.2470  0.6671 -0.1652
11942TIP3    H157241   5.390   3.008   1.428 -0.2485  0.7422 -0.4450
11942TIP3    H257242   5.384   2.885   1.339  1.3659  2.0532 -2.4646
11943TIP3   OH257243   0.159   6.564  14.703 -0.4480 -0.1439  0.5257
11943TIP3    H157244   0.199   6.507  14.769  0.6998 -2.1528 -1.7682
11943TIP3    H257245   0.226   6.629  14.684 -0.7162  0.3333  1.1527
11944TIP3   OH257246   5.642   1.312  17.030  0.4654 -0.3283  0.1342
11944TIP3    H157247   5.709   1.340  17.093  0.3060 -0.7262  0.4835
11944TIP3    H257248   5.692   1.289  16.951  0.5355  1.7285 -0.4661
11945TIP3   OH257249   6.442   3.021  14.837  0.4817 -0.1381  0.1166
11945TIP3    H157250   6.366   3.078  14.827  1.1258  0.5640 -0.9261
11945TIP3    H257251   6.453   2.979  14.751  0.9853 -0.6078  0.3993
11946TIP3   OH257252   2.236   2.160  14.514 -0.0477  0.1740 -0.0541
11946TIP3    H157253   2.304   2.108  14.471  0.3945  0.4250  0.3343
11946TIP3    H257254   2.264   2.166  14.606 -1.5522 -1.3192  0.5563
11947TIP3   OH257255   5.606   4.611  16.807 -0.5468 -0.5882  0.2192
11947TIP3    H157256   5.558   4.680  16.852  0.8765  0.9249 -0.4608
11947TIP3    H257257   5.559   4.598  16.725 -0.3231  0.2310 -0.0461
11948TIP3   OH257258   3.601   5.227  11.782 -0.3047  0.2646  0.4323
11948TIP3    H157259   3.565   5.255  11.697  1.5018  1.1053 -0.1108
11948TIP3    H257260   3.584   5.133  11.785 -0.6985  0.2796 -0.7249
11949TIP3   OH257261   1.744   6.251   4.478  0.6314 -0.1444 -0.7877
11949TIP3    H157262   1.761   6.308   4.403 -1.7915 -0.7252 -1.8719
11949TIP3    H257263   1.655   6.271   4.504  0.0870 -2.6030 -0.4851
11950TIP3   OH257264   3.063   0.587   3.567  0.0906 -0.0223 -0.0399
11950TIP3    H157265   3.014   0.668   3.552 -0.6561  0.1510  2.6719
11950TIP3    H257266   3.001   0.531   3.615  1.2838 -1.3965 -0.0362
11951TIP3   OH257267   0.078   6.767   0.098  0.1549  0.4746  0.7212
11951TIP3    H157268   0.137   6.704   0.139  1.8484  1.0816 -0.6391
11951TIP3    H257269   0.135   6.840   0.073 -1.3878  1.5907  0.3722
11952TIP3   OH257270   2.227   3.393   2.448 -0.3503  0.1236  0.2632
11952TIP3    H157271   2.322   3.386   2.441 -0.3874 -0.5180  0.3466
11952TIP3    H257272   2.208   3.486   2.435  0.3852  0.4398  1.2933
11953TIP3   OH257273   5.621   2.676   3.377 -0.8644 -0.2217 -0.2977
11953TIP3    H157274   5.679   2.682   3.300 -0.4202  0.6966  0.0971
11953TIP3    H257275   5.533   2.680   3.340 -0.6518  0.6690 -0.7455
11954TIP3   OH257276   5.003   3.573   1.813  0.1981  0.0378  0.2457
11954TIP3    H157277   4.983   3.480   1.811  0.8264 -0.0843 -0.6139
11954TIP3    H257278   5.036   3.588   1.902 -2.6044  0.0499  1.3830
11955TIP3   OH257279   0.769   0.608   6.459  0.1986 -0.3980 -0.1147
11955TIP3    H157280   0.684   0.647   6.438  0.3939  0.9867  1.4795
11955TIP3    H257281   0.750   0.548   6.531  0.0254 -2.8970 -2.0916
11956TIP3   OH257282   3.959   0.127  13.823  0.3973  0.3084 -0.4164
11956TIP3    H157283   3.991   0.065  13.757  0.5750 -0.1946  0.1399
11956TIP3    H257284   4.005   0.104  13.903 -0.0562  0.7134 -0.0292
11957TIP3   OH257285   2.645   0.238  15.706 -1.1212 -0.5596 -0.0037
11957TIP3    H157286   2.648   0.184  15.785 -1.4308  0.7937  0.9646
11957TIP3    H257287   2.700   0.314  15.727 -0.5071 -0.5813 -1.4161
11958TIP3   OH257288   5.384   0.826  15.476  0.3443  0.0254 -0.1330
11958TIP3    H157289   5.355   0.773  15.551 -0.0745 -0.9741 -0.9676
11958TIP3    H257290   5.303   0.850  15.432  0.6266 -0.2631 -0.8232
11959TIP3   OH257291   6.416   2.343  12.664 -0.6682 -0.3411 -0.4750
11959TIP3    H157292   6.433   2.392  12.583  0.8624 -0.4388 -0.2417
11959TIP3    H257293   6.398   2.410  12.730  2.5045  0.0809  0.1043
11960TIP3   OH257294   3.988   0.188   1.995 -0.2379 -0.7343  0.2669
11960TIP3    H157295   4.048   0.234   1.935 -1.3085  0.9348  0.4159
11960TIP3    H257296   4.038   0.112   2.024  2.2237  1.1035  1.1905
11961TIP3   OH257297   6.035   0.572   3.761 -0.9907 -0.1145 -0.0777
11961TIP3    H157298   6.070   0.655   3.794  0.8336  0.0382 -2.1858
11961TIP3    H257299   6.081   0.505   3.812 -0.9228  0.1392  0.1993
11962TIP3   OH257300   1.332   1.842   2.449  0.6622 -0.2665  0.5090
11962TIP3    H157301   1.261   1.905   2.456  1.1458  0.3644 -0.0880
11962TIP3    H257302   1.410   1.891   2.474  0.9047 -0.9285  1.0747
11963TIP3   OH257303   5.965   1.651   5.322 -0.2605 -0.1351  0.5851
11963TIP3    H157304   5.990   1.581   5.382 -0.4533 -0.6868  0.0277
11963TIP3    H257305   6.005   1.626   5.238 -0.4505  0.3479  0.3451
11964TIP3   OH257306   0.550   4.875  17.342 -0.4854  0.2683 -0.1996
11964TIP3    H157307   0.508   4.886  17.428 -1.3573 -0.5120 -0.5057
11964TIP3    H257308   0.564   4.965  17.311 -0.6894  0.5546  0.5064
11965TIP3   OH257309   3.600   0.320  13.820 -0.0654  0.3135  0.7518
11965TIP3    H157310   3.557   0.404  13.805 -1.0426 -0.1631  0.7883
11965TIP3    H257311   3.553   0.282  13.894  1.7824  0.6753  2.1912
11966TIP3   OH257312   2.367   5.170  14.567  0.6394  0.4199  0.3398
11966TIP3    H157313   2.323   5.254  14.548 -0.7350 -0.0638  1.2505
11966TIP3    H257314   2.449   5.195  14.608 -0.1942  1.3386  1.5187
11967TIP3   OH257315   2.130   4.657  17.040  0.3163 -0.0544  0.2464
11967TIP3    H157316   2.124   4.578  16.987  0.2111 -0.8959  1.4628
11967TIP3    H257317   2.166   4.627  17.123 -0.1464  1.1042  0.8911
11968TIP3   OH257318   3.977   6.315   2.102  0.4668 -0.4848 -0.0974
11968TIP3    H157319   3.885   6.300   2.123 -0.1722  1.0914 -1.4708
11968TIP3    H257320   3.992   6.268   2.020  0.7006 -0.2335 -0.2031
11969TIP3   OH257321   2.174   3.814   4.194  0.0620  0.1924 -0.0910
11969TIP3    H157322   2.177   3.819   4.290 -0.1394  0.5992 -0.1002
11969TIP3    H257323   2.081   3.828   4.173  0.3388  1.6800 -0.4174
11970TIP3   OH257324   2.560   5.113   2.170 -0.4922  0.3422  0.2029
11970TIP3    H157325   2.584   5.185   2.113  1.3849  0.5311  1.1500
11970TIP3    H257326   2.536   5.042   2.111  0.7063  0.7557 -0.8182
11971TIP3   OH257327   4.960   0.552   1.970 -0.1306 -0.3564 -0.6745
11971TIP3    H157328   5.052   0.567   1.950 -0.5758  0.6442 -2.1011
11971TIP3    H257329   4.949   0.457   1.963  0.7185 -0.4588 -0.7308
11972TIP3   OH257330   0.563   0.591  10.555 -0.0028  0.5249  0.4037
11972TIP3    H157331   0.599   0.587  10.644  0.4740  0.2788  0.2063
11972TIP3    H257332   0.514   0.510  10.546  0.9514 -0.0351  0.0343
11973TIP3   OH257333   0.514   6.238   2.201 -0.1149  0.2570 -0.4515
11973TIP3    H157334   0.497   6.152   2.240  1.2456  0.3119  0.3147
11973TIP3    H257335   0.582   6.222   2.136 -0.4688  0.6230 -0.9217
11974TIP3   OH257336   0.616   5.425  12.482 -0.1178  0.1527  0.5139
11974TIP3    H157337   0.622   5.462  12.571  1.0984  1.3185 -0.0220
11974TIP3    H257338   0.568   5.491  12.432  0.3255  0.0982  0.0066
11975TIP3   OH257339   0.635   1.995  11.621 -1.0097 -0.1506  0.4761
11975TIP3    H157340   0.704   2.055  11.594 -2.3110  1.4877  0.6217
11975TIP3    H257341   0.681   1.925  11.669  0.4664  1.3346  1.3381
11976TIP3   OH257342   0.589   0.140   5.267  0.5043  0.3544  0.6760
11976TIP3    H157343   0.539   0.082   5.209  0.4781  1.3331 -0.3127
11976TIP3    H257344   0.665   0.087   5.293  0.8794  0.1050 -0.8210
11977TIP3   OH257345   3.711   5.989   1.042  0.7478  0.7320  0.6340
11977TIP3    H157346   3.768   6.056   1.080 -1.7813  3.0303  0.6940
11977TIP3    H257347   3.718   6.004   0.947 -0.4263  1.7016  0.6761
11978TIP3   OH257348   0.143   6.556   1.131  0.0178 -0.1630 -0.1961
11978TIP3    H157349   0.161   6.563   1.037  0.2004  0.4746 -0.1135
11978TIP3    H257350   0.218   6.508   1.166  0.6711  0.8715 -0.1499
11979TIP3   OH257351   0.545   6.292  15.361 -0.3569  0.0163  0.5397
11979TIP3    H157352   0.472   6.276  15.301  0.3031  1.1488 -0.6415
11979TIP3    H257353   0.598   6.212  15.355 -0.0082  0.3134 -0.8778
11980TIP3   OH257354   5.442   5.017   2.624  0.5056 -0.0591 -0.1569
11980TIP3    H157355   5.523   5.067   2.618 -0.0573  1.1096  1.4189
11980TIP3    H257356   5.380   5.076   2.668 -0.2398 -2.0474  1.6506
11981TIP3   OH257357   5.779   5.082   3.423 -0.3233  0.4116  0.0193
11981TIP3    H157358   5.751   5.106   3.335  0.3103 -0.8914 -0.5633
11981TIP3    H257359   5.822   4.997   3.413  0.4727  0.5991  1.4643
11982TIP3   OH257360   2.157   6.708  13.624 -0.0446  1.0005 -0.3876
11982TIP3    H157361   2.188   6.693  13.534  0.3668 -1.1208  0.0543
11982TIP3    H257362   2.236   6.707  13.677 -0.4251  0.4132  0.1892
11983TIP3   OH257363   2.707   5.224  14.242  0.3733 -0.5924 -0.5895
11983TIP3    H157364   2.746   5.196  14.325  1.1190  2.0587  0.0406
11983TIP3    H257365   2.613   5.218  14.257  0.4502  1.0952  0.9974
11984TIP3   OH257366   2.854   4.739   4.054  0.7976  0.3327  0.1523
11984TIP3    H157367   2.913   4.769   4.123  1.0745 -1.0051  0.5249
11984TIP3    H257368   2.870   4.645   4.048 -0.7875  0.0615 -0.2396
11985TIP3   OH257369   3.373   4.702   4.055 -1.0019 -0.3391 -0.1461
11985TIP3    H157370   3.364   4.773   3.992 -1.0261 -0.4403 -0.2558
11985TIP3    H257371   3.372   4.623   4.003  2.4820 -0.3348 -0.4006
11986TIP3   OH257372   2.094   0.156  16.713  0.1109 -0.2160 -0.4491
11986TIP3    H157373   2.135   0.079  16.673 -1.8562 -1.0653 -0.9496
11986TIP3    H257374   2.043   0.195  16.642  0.2610  0.9722  0.0722
11987TIP3   OH257375   4.990   1.154  13.552 -0.3592 -0.5863 -0.2099
11987TIP3    H157376   4.907   1.202  13.554 -0.6990 -1.0419 -1.7378
11987TIP3    H257377   4.972   1.079  13.494  1.3441 -0.2242 -1.2636
11988TIP3   OH257378   0.683   5.671  13.666  0.1675 -0.3351 -0.7765
11988TIP3    H157379   0.737   5.731  13.616 -0.4041 -0.6996 -1.8714
11988TIP3    H257380   0.619   5.638  13.603 -1.6555  0.4542  0.5733
11989TIP3   OH257381   4.757   4.862  13.035 -0.1337  0.0082 -0.4485
11989TIP3    H157382   4.756   4.910  12.952  0.6219  1.8803  0.5635
11989TIP3    H257383   4.682   4.897  13.084 -0.5117 -1.0057 -0.2803
11990TIP3   OH257384   3.338   4.818  15.078  0.3538 -0.0135 -0.2524
11990TIP3    H157385   3.369   4.751  15.139 -0.2319 -0.2201 -0.1735
11990TIP3    H257386   3.416   4.868  15.055  0.9319 -1.1531 -0.8498
11991TIP3   OH257387   5.718   5.512  11.663 -0.7938  0.2309 -0.4987
11991TIP3    H157388   5.752   5.595  11.698 -0.0695  1.4411 -3.6984
11991TIP3    H257389   5.792   5.452  11.670 -0.8069  0.3054  0.3939
11992TIP3   OH257390   4.693   1.877   0.748 -0.2391  0.3501  0.1139
11992TIP3    H157391   4.622   1.820   0.778 -0.4813  0.8369  0.4785
11992TIP3    H257392   4.710   1.849   0.658 -1.3467  0.6739 -0.2113
11993TIP3   OH257393   2.614   5.006  13.818  0.4741  0.9084  0.4147
11993TIP3    H157394   2.541   5.043  13.867  0.1449  0.5836  0.1831
11993TIP3    H257395   2.679   4.983  13.884  0.7545  2.0294  0.5470
11994TIP3   OH257396   6.430   4.179   0.462 -0.0965  0.0133 -0.4764
11994TIP3    H157397   6.336   4.169   0.477 -0.4898  1.6925 -1.5443
11994TIP3    H257398   6.440   4.166   0.368  0.9128 -1.1768 -0.2244
11995TIP3   OH257399   1.623   0.573   1.472  0.1354 -0.5193  0.2145
11995TIP3    H157400   1.607   0.517   1.547 -0.0062 -1.5031 -0.5243
11995TIP3    H257401   1.608   0.662   1.504  1.2405 -0.8036  1.6461
11996TIP3   OH257402   5.392   3.819   4.337  0.3993  0.0012 -0.0138
11996TIP3    H157403   5.340   3.848   4.411  1.8587  1.8711  0.3691
11996TIP3    H257404   5.381   3.724   4.335 -2.8848  0.2850  0.0577
11997TIP3   OH257405   3.304   6.177   6.040  0.6805  0.3031 -0.5360
11997TIP3    H157406   3.336   6.096   6.079  0.0923  0.0563 -0.5504
11997TIP3    H257407   3.272   6.228   6.114  0.7300  0.3733 -0.5630
11998TIP3   OH257408   0.764   6.351   1.601 -0.3045 -0.3516  0.7708
11998TIP3    H157409   0.708   6.275   1.585  1.9781 -2.5439  2.4525
11998TIP3    H257410   0.713   6.407   1.660 -1.4436 -1.3586  0.7690
11999TIP3   OH257411   0.158   0.615  10.355 -0.2115  0.3033  0.0444
11999TIP3    H157412   0.165   0.541  10.415 -2.1323 -0.7012 -0.8828
11999TIP3    H257413   0.194   0.583  10.273 -2.4591 -0.2260 -0.8130
12000TIP3   OH257414   1.424   5.324  15.484  0.4130  0.1880 -0.0361
12000TIP3    H157415   1.465   5.331  15.570  1.3802  1.2739 -0.5648
12000TIP3    H257416   1.332   5.302  15.503  0.5404  0.6968  1.2814
12001TIP3   OH257417   0.089   0.620  15.201  0.1578  0.5762  0.2542
12001TIP3    H157418   0.014   0.593  15.254  0.5608  2.3454  1.8371
12001TIP3    H257419   0.141   0.540  15.190 -0.9419 -0.2453  0.8589
12002TIP3   OH257420   4.667   2.351   4.313  0.0444  0.3091 -0.1112
12002TIP3    H157421   4.627   2.431   4.279  0.3474 -0.7912 -3.4190
12002TIP3    H257422   4.760   2.361   4.293 -0.2149 -1.7711 -2.8695
12003TIP3   OH257423   5.287   1.988  11.509 -0.8210 -0.3326 -0.0072
12003TIP3    H157424   5.246   2.056  11.455  1.8982 -0.1312 -2.0304
12003TIP3    H257425   5.338   1.936  11.447 -0.4319 -2.3901  1.9273
12004TIP3   OH257426   1.956   4.545   2.860  1.0849  0.6466  0.4876
12004TIP3    H157427   2.015   4.476   2.891 -0.3440  0.0954  2.1665
12004TIP3    H257428   1.970   4.548   2.766  4.4061  1.1619  0.8602
12005TIP3   OH257429   4.721   4.873   2.267 -0.1261 -0.1862  0.4012
12005TIP3    H157430   4.767   4.912   2.193  2.0437 -1.6644  0.8670
12005TIP3    H257431   4.790   4.830   2.319 -1.9386 -1.9317  1.5364
12006TIP3   OH257432   5.004   1.307  15.657 -1.1627  0.7608 -0.0112
12006TIP3    H157433   5.008   1.225  15.707 -1.0224  0.8067  0.0531
12006TIP3    H257434   4.920   1.346  15.683 -0.6024  1.3195  1.0411
12007TIP3   OH257435   0.394   6.266   1.050  0.4931  0.8119 -0.0760
12007TIP3    H157436   0.487   6.246   1.055  0.0784 -1.1215  2.8148
12007TIP3    H257437   0.381   6.336   1.115 -0.3031 -0.5131  1.2700
12008TIP3   OH257438   0.966   4.899  10.984  0.5421 -0.1496  0.5256
12008TIP3    H157439   0.898   4.838  10.958 -0.5182  1.3115 -0.2439
12008TIP3    H257440   1.002   4.862  11.065 -1.1470 -0.9507  0.9430
12009TIP3   OH257441   6.204   1.563  14.769 -0.3229 -0.3413 -0.0454
12009TIP3    H157442   6.197   1.469  14.749  1.6448 -0.4694 -0.3554
12009TIP3    H257443   6.273   1.568  14.835  2.7366  1.1374 -3.0425
12010TIP3   OH257444   2.490   4.427  11.832  0.5882 -0.3223  0.5991
12010TIP3    H157445   2.416   4.389  11.880 -0.4871 -1.4288 -1.7982
12010TIP3    H257446   2.458   4.512  11.802 -0.0094 -1.0880 -1.0161
12011TIP3   OH257447   1.934   5.723   2.132 -0.0296 -0.3332 -0.3408
12011TIP3    H157448   1.987   5.792   2.092 -1.0985 -0.7107 -2.5513
12011TIP3    H257449   1.875   5.770   2.191 -2.1571  1.0808 -3.3085
12012TIP3   OH257450   6.466   0.819   1.479 -0.9097  0.0461 -0.2017
12012TIP3    H157451   6.457   0.780   1.392 -0.8539  0.0200 -0.1958
12012TIP3    H257452   6.532   0.765   1.522 -0.9716  0.0314 -0.1272
12013TIP3   OH257453   3.622   1.925   5.095  0.3282  0.9699 -0.7410
12013TIP3    H157454   3.670   1.843   5.098 -1.4578 -0.1511 -1.2825
12013TIP3    H257455   3.582   1.933   5.182  0.3304  1.1603 -0.7570
12014TIP3   OH257456   4.956   1.001  12.043 -0.1338  0.1702 -0.1501
12014TIP3    H157457   5.031   1.035  12.093  0.2257 -0.3722 -0.3065
12014TIP3    H257458   4.919   0.934  12.099  0.4101 -0.6026 -0.6925
12015TIP3   OH257459   4.812   5.366   6.099 -0.2395 -0.0778  0.2036
12015TIP3    H157460   4.771   5.443   6.139 -0.0546 -0.2911  0.8189
12015TIP3    H257461   4.852   5.320   6.172  1.2777  0.2283 -0.4109
12016TIP3   OH257462   2.578   3.744  11.399 -0.1729  0.3191 -0.1197
12016TIP3    H157463   2.627   3.825  11.387  0.6114 -0.2457 -0.9379
12016TIP3    H257464   2.536   3.729  11.314  0.6751 -0.7392 -0.3704
12017TIP3   OH257465   0.679   3.829  11.793 -0.2430 -0.5333 -0.0696
12017TIP3    H157466   0.589   3.860  11.787  0.0396  0.5803  0.9302
12017TIP3    H257467   0.712   3.833  11.704 -0.6813  0.7236 -0.2003
12018TIP3   OH257468   3.857   6.374   5.194 -0.4547 -0.5504  0.4085
12018TIP3    H157469   3.807   6.316   5.136 -1.5184 -0.5475  1.2903
12018TIP3    H257470   3.903   6.433   5.135 -2.3709  0.1731 -0.4472
12019TIP3   OH257471   6.202   5.518  13.243  0.1890 -0.7010 -0.0084
12019TIP3    H157472   6.271   5.540  13.181 -0.6846 -1.0674 -1.1445
12019TIP3    H257473   6.128   5.572  13.217  0.2081  0.1549  1.5885
12020TIP3   OH257474   0.256   4.178   0.034  0.2637 -0.1570 -0.3924
12020TIP3    H157475   0.314   4.253   0.046 -1.1025  0.8568  0.2122
12020TIP3    H257476   0.276   4.120   0.107 -0.3445  0.7841  0.5452
12021TIP3   OH257477   3.212   3.995   5.390 -0.3155  0.1922  0.0510
12021TIP3    H157478   3.199   3.934   5.462 -0.2380 -0.1297 -0.2030
12021TIP3    H257479   3.242   3.940   5.317  3.1047  0.9000  0.7331
12022TIP3   OH257480   4.108   6.038   3.190  0.3088  0.5998  0.1864
12022TIP3    H157481   4.058   6.113   3.221  0.1256  0.4451  0.2634
12022TIP3    H257482   4.099   6.041   3.095  0.6780  0.9374  0.1569
12023TIP3   OH257483   0.952   5.826  16.652  0.9693  0.1337 -0.5830
12023TIP3    H157484   0.881   5.771  16.621  1.6809 -0.9760 -0.3020
12023TIP3    H257485   1.029   5.799  16.601  2.0785 -1.4867  1.7642
12024TIP3   OH257486   4.273   1.620  14.463  0.0840 -0.5529  0.1292
12024TIP3    H157487   4.279   1.658  14.550 -0.5799 -0.4405  0.1256
12024TIP3    H257488   4.364   1.603  14.439  0.2782 -0.5055  0.8053
12025TIP3   OH257489   4.727   4.758   1.829  0.3051  0.1832  0.4992
12025TIP3    H157490   4.697   4.848   1.814  0.0926  0.5624  2.7793
12025TIP3    H257491   4.686   4.708   1.758 -0.9204  1.6215  0.1056
12026TIP3   OH257492   4.440   2.008  15.485  0.4875 -0.0463  0.0118
12026TIP3    H157493   4.532   2.019  15.510  0.3855  0.4500  0.1941
12026TIP3    H257494   4.396   1.980  15.565  0.5534 -0.7424 -0.1871
12027TIP3   OH257495   0.585   2.328   3.272  0.7869 -0.0334 -0.3500
12027TIP3    H157496   0.513   2.280   3.231  0.0216  1.5843 -0.9607
12027TIP3    H257497   0.543   2.384   3.337  1.5783  0.4441 -0.2418
12028TIP3   OH257498   0.122   1.504  13.228  0.2912 -0.4059  0.2222
12028TIP3    H157499   0.054   1.505  13.161  0.3382 -0.2407  0.1762
12028TIP3    H257500   0.184   1.437  13.199  0.3605 -0.2694  0.0524
12029TIP3   OH257501   4.745   3.343   1.665 -0.3667  0.0171  0.4696
12029TIP3    H157502   4.712   3.265   1.620  0.3071 -0.3974  0.6786
12029TIP3    H257503   4.801   3.308   1.735  0.7550  0.6905 -0.0573
12030TIP3   OH257504   3.820   0.998  14.964 -0.4362 -0.6036  0.4891
12030TIP3    H157505   3.896   0.945  14.990  0.6877  1.2476  1.1818
12030TIP3    H257506   3.751   0.973  15.025  0.0577 -1.2810  0.7836
12031TIP3   OH257507   0.118   0.929  16.524  0.4882  0.2881  0.0675
12031TIP3    H157508   0.123   1.024  16.539  3.0371  0.4800 -1.3600
12031TIP3    H257509   0.153   0.891  16.604  1.5262  0.6851 -0.1776
12032TIP3   OH257510   2.118   4.507   3.455  0.1241 -0.0611  0.5220
12032TIP3    H157511   2.130   4.585   3.508 -1.8343  0.0349  0.8753
12032TIP3    H257512   2.027   4.510   3.427  0.4720 -1.3283 -0.9172
12033TIP3   OH257513   6.596   1.898  13.481 -0.2980 -0.1057  0.4269
12033TIP3    H157514   6.516   1.890  13.429 -0.2550 -2.3297  0.5977
12033TIP3    H257515   6.636   1.810  13.477  1.5387  0.6347  1.2885
12034TIP3   OH257516   4.921   5.444  13.150  0.4149 -0.5045 -0.2532
12034TIP3    H157517   4.861   5.501  13.101 -0.1557 -0.7485  0.1450
12034TIP3    H257518   4.989   5.420  13.087  1.1444  1.2859 -0.2120
12035TIP3   OH257519   2.546   2.742  15.443 -0.1561  0.0750  0.1607
12035TIP3    H157520   2.552   2.679  15.371 -1.2196 -0.2092  0.3005
12035TIP3    H257521   2.582   2.696  15.519 -0.0099 -0.0065  0.0410
12036TIP3   OH257522   5.110   3.342  16.866  0.0386  0.3400  0.1934
12036TIP3    H157523   5.126   3.363  16.958 -1.8913  2.7824  0.0600
12036TIP3    H257524   5.185   3.379  16.820 -0.1563  1.2493  0.5857
12037TIP3   OH257525   3.855   1.603  10.629  0.3583 -0.5378 -0.5414
12037TIP3    H157526   3.878   1.537  10.564 -0.9874 -0.1576 -1.4412
12037TIP3    H257527   3.774   1.571  10.669  0.9944 -0.6031  0.7339
12038TIP3   OH257528   4.767   5.348   3.220 -0.4355 -0.6644 -0.1546
12038TIP3    H157529   4.777   5.337   3.125 -1.1786 -0.4576 -0.2604
12038TIP3    H257530   4.713   5.274   3.247  0.1817 -0.9944  0.1876
12039TIP3   OH257531   0.612   0.889  10.731 -0.3096  0.1193  0.2750
12039TIP3    H157532   0.674   0.843  10.674 -0.7121 -1.8327  1.3006
12039TIP3    H257533   0.542   0.918  10.672  0.0847 -0.3666 -0.4519
12040TIP3   OH257534   3.923   5.531   3.249  0.5769  0.9452 -0.0371
12040TIP3    H157535   3.932   5.626   3.245 -1.4758  1.1902  0.2876
12040TIP3    H257536   3.832   5.514   3.225  0.5548 -0.8568  1.1357
12041TIP3   OH257537   0.460   6.046   2.939 -0.2332  0.1437 -0.0756
12041TIP3    H157538   0.387   5.986   2.954  1.0425 -1.7637 -1.0630
12041TIP3    H257539   0.457   6.063   2.844 -0.4302  1.4994  0.1541
12042TIP3   OH257540   4.931   2.679  16.999 -0.0256 -0.6012 -0.4342
12042TIP3    H157541   4.887   2.726  17.070  0.2535 -2.0883  0.7588
12042TIP3    H257542   4.883   2.705  16.920 -1.0179  0.2615  0.4208
12043TIP3   OH257543   4.889   3.497  15.748  0.1131  0.3168 -0.3570
12043TIP3    H157544   4.885   3.593  15.741 -1.8192  0.3394  0.3746
12043TIP3    H257545   4.800   3.468  15.728  0.9241 -1.4429 -1.7279
12044TIP3   OH257546   4.111   6.424   1.202 -0.1135 -0.2380 -0.7736
12044TIP3    H157547   4.049   6.447   1.271 -0.0418 -1.3364 -0.3135
12044TIP3    H257548   4.172   6.497   1.199 -0.8099  0.3675 -0.4953
12045TIP3   OH257549   6.543   0.474   4.604 -0.1633 -0.2861  0.4122
12045TIP3    H157550   6.593   0.509   4.677 -1.9335  0.2889  1.4305
12045TIP3    H257551   6.538   0.545   4.541  1.1046 -0.6783 -0.1516
12046TIP3   OH257552   4.731   0.411  14.867 -0.2414 -0.1488  0.5295
12046TIP3    H157553   4.689   0.379  14.787  0.1544 -0.3200  0.3869
12046TIP3    H257554   4.696   0.356  14.936  0.7957 -1.2424  0.2253
12047TIP3   OH257555   5.290   5.088  12.410  0.0786  0.0985 -0.4711
12047TIP3    H157556   5.275   5.083  12.505 -1.5239 -0.5503 -0.7329
12047TIP3    H257557   5.377   5.129  12.402 -0.2672  1.2857  1.2451
12048TIP3   OH257558   4.023   5.967  13.488 -0.5339  0.4436 -0.7402
12048TIP3    H157559   4.107   5.968  13.533 -0.1518 -0.6299 -1.3857
12048TIP3    H257560   4.045   5.965  13.395 -1.2073 -1.4511 -0.9054
12049TIP3   OH257561   6.105   3.721  11.822 -0.0487 -0.6444 -0.1325
12049TIP3    H157562   6.102   3.816  11.813  3.0572 -0.2461  1.5197
12049TIP3    H257563   6.015   3.694  11.838 -0.6809  2.4006  2.2427
12050TIP3   OH257564   0.135   1.484   4.517  0.6694  0.8551  0.0406
12050TIP3    H157565   0.158   1.577   4.520  2.4658  0.4321  2.2832
12050TIP3    H257566   0.189   1.448   4.446  2.1028  1.0843  0.9675
12051TIP3   OH257567   1.541   6.608   0.631 -0.0168 -0.1767 -0.6592
12051TIP3    H157568   1.479   6.558   0.579 -1.5616  1.7238 -0.7889
12051TIP3    H257569   1.503   6.608   0.719  0.9560 -0.7827 -0.2247
12052TIP3   OH257570   1.521   2.158   4.856 -0.3936 -0.0445 -0.0299
12052TIP3    H157571   1.567   2.177   4.938  2.8775 -1.2138 -1.3909
12052TIP3    H257572   1.520   2.241   4.809  0.2878  0.0402  0.0893
12053TIP3   OH257573   1.305   5.527  11.989  0.4181 -0.6422  0.1747
12053TIP3    H157574   1.343   5.613  12.005  0.5562 -0.1715 -2.3509
12053TIP3    H257575   1.225   5.525  12.042 -0.0217  1.3723 -0.3441
12054TIP3   OH257576   5.630   5.030   4.519  0.0138 -0.1078 -0.4382
12054TIP3    H157577   5.598   4.964   4.457  1.9559 -1.0659 -0.4881
12054TIP3    H257578   5.724   5.016   4.522  0.8194  3.7447 -1.7562
12055TIP3   OH257579   4.339   6.399  16.287 -0.0574  0.1236  0.4531
12055TIP3    H157580   4.274   6.332  16.306 -0.6676  0.7326  0.5887
12055TIP3    H257581   4.292   6.482  16.300  0.6430  0.5748  0.1888
12056TIP3   OH257582   5.330   2.716   4.710  0.0138  0.6859  0.3982
12056TIP3    H157583   5.354   2.648   4.773  1.8017  1.3424  0.4858
12056TIP3    H257584   5.248   2.684   4.671  0.6596 -1.4143  0.5974
12057TIP3   OH257585   3.499   6.425   1.308  0.2425 -0.3262 -0.0156
12057TIP3    H157586   3.432   6.415   1.241  0.3279 -0.7871 -0.0404
12057TIP3    H257587   3.578   6.450   1.260  0.9746 -3.0858 -0.4634
12058TIP3   OH257588   1.001   1.858  16.269 -0.5524 -0.6725 -0.0518
12058TIP3    H157589   0.963   1.889  16.351 -1.8326 -1.0534 -0.4756
12058TIP3    H257590   1.087   1.824  16.293  0.6716  2.4967  0.5583
12059TIP3   OH257591   6.033   0.963   1.267  0.6078 -0.1721 -0.6603
12059TIP3    H157592   5.943   0.992   1.250  0.5968  1.2532  1.3762
12059TIP3    H257593   6.088   1.031   1.229  0.8977 -1.2784 -2.3206
12060TIP3   OH257594   2.855   3.289  12.539 -0.2712 -0.0471  0.3971
12060TIP3    H157595   2.883   3.272  12.449  1.0067  0.4311  0.6873
12060TIP3    H257596   2.815   3.207  12.567  0.5992 -0.6765 -0.1460
12061TIP3   OH257597   0.132   0.709  12.208  0.4571  0.2242 -0.7028
12061TIP3    H157598   0.066   0.642  12.192  1.1080 -0.8128  0.7919
12061TIP3    H257599   0.105   0.782  12.151 -2.6050  0.2799  0.5786
12062TIP3   OH257600   2.123   4.847   5.379  0.9369 -0.3260  0.1498
12062TIP3    H157601   2.185   4.791   5.425  0.8444  0.3319  1.1285
12062TIP3    H257602   2.105   4.918   5.441  1.0580  0.7879 -1.0403
12063TIP3   OH257603   1.717   1.127   4.565  0.3644 -0.0866  0.2775
12063TIP3    H157604   1.657   1.194   4.533 -0.8954 -0.4778  1.7124
12063TIP3    H257605   1.756   1.165   4.644 -0.2205 -0.9336  0.9983
12064TIP3   OH257606   5.312   2.598   0.681  0.4520 -0.3013 -0.5505
12064TIP3    H157607   5.334   2.617   0.772  3.8317  2.5300 -1.7075
12064TIP3    H257608   5.391   2.556   0.646 -0.0484  0.3047 -2.5345
12065TIP3   OH257609   4.685   6.113   1.022  0.6173  0.6330 -0.1905
12065TIP3    H157610   4.637   6.176   0.968 -0.6884 -0.1640  0.0076
12065TIP3    H257611   4.642   6.029   1.005  1.3011  0.0729  0.7813
12066TIP3   OH257612   0.196   3.603  13.239  0.0267 -0.0339 -0.0983
12066TIP3    H157613   0.129   3.555  13.288  0.2827  0.2084  0.4952
12066TIP3    H257614   0.163   3.605  13.149 -1.7180  1.7226  0.5043
12067TIP3   OH257615   0.103   0.781   4.811 -0.2545  0.1356 -0.2995
12067TIP3    H157616   0.092   0.793   4.716 -0.2393  2.2684 -0.0783
12067TIP3    H257617   0.013   0.776   4.844 -0.2685 -1.6203 -0.4781
12068TIP3   OH257618   2.801   1.254   0.156  0.0166  0.6146 -0.1995
12068TIP3    H157619   2.747   1.180   0.183 -0.0458  0.6398 -0.2528
12068TIP3    H257620   2.793   1.317   0.228  0.7339  0.2329  0.2209
12069TIP3   OH257621   2.418   3.521   0.115  0.8348  0.3172 -0.3358
12069TIP3    H157622   2.375   3.567   0.043 -3.3695  0.4103  1.9395
12069TIP3    H257623   2.443   3.589   0.176  0.9826  0.0087 -0.0491
12070TIP3   OH257624   5.335   1.200  16.343 -0.0311 -1.1767 -0.0520
12070TIP3    H157625   5.369   1.257  16.412 -1.7938  0.3606 -0.3953
12070TIP3    H257626   5.245   1.183  16.368 -1.2135  0.6490 -2.6893
12071TIP3   OH257627   0.782   5.614   0.206  0.4303  0.1362  0.5236
12071TIP3    H157628   0.876   5.630   0.215  0.4260 -0.1270  1.0488
12071TIP3    H257629   0.760   5.654   0.122  1.4239 -1.7166 -0.6784
12072TIP3   OH257630   2.282   2.335  13.922 -0.1975  0.1653  0.2714
12072TIP3    H157631   2.311   2.249  13.891 -0.4986 -0.0924  0.6877
12072TIP3    H257632   2.257   2.320  14.013 -1.5470  0.3820 -0.0420
12073TIP3   OH257633   6.132   4.652   4.845  0.4527  0.3123 -0.2369
12073TIP3    H157634   6.148   4.741   4.876  0.4473 -0.2482  1.4749
12073TIP3    H257635   6.064   4.618   4.903  1.6534 -1.3812  0.2434
12074TIP3   OH257636   5.660   0.055   2.742 -0.3952 -0.0714  0.1782
12074TIP3    H157637   5.672   0.087   2.831 -0.6192  1.9072 -0.4618
12074TIP3    H257638   5.573   0.086   2.717  0.9967  2.4950 -1.9115
12075TIP3   OH257639   6.476   6.666   4.146 -0.1370 -0.1610 -0.1115
12075TIP3    H157640   6.447   6.587   4.192 -0.5801  0.5603  0.8931
12075TIP3    H257641   6.460   6.646   4.054 -3.4024 -0.0641  0.2917
12076TIP3   OH257642   3.101   6.038   0.337  0.5548 -0.0759 -0.6645
12076TIP3    H157643   3.110   6.125   0.296  0.5046  0.5337  0.5602
12076TIP3    H257644   3.168   5.985   0.294  0.9740  0.7287 -1.0364
12077TIP3   OH257645   3.276   2.653   2.020 -0.2146 -0.3120 -0.5247
12077TIP3    H157646   3.283   2.560   2.000 -2.3043 -0.6804  0.2798
12077TIP3    H257647   3.197   2.661   2.074  0.2263  1.8529 -0.0919
12078TIP3   OH257648   5.345   4.683   0.945 -0.1231 -0.5159 -0.7685
12078TIP3    H157649   5.259   4.724   0.950  0.3795  0.5341 -0.3795
12078TIP3    H257650   5.329   4.591   0.961 -1.0402 -0.1528  0.5341
12079TIP3   OH257651   1.759   4.289   3.477  0.5483  0.4282  0.6362
12079TIP3    H157652   1.753   4.194   3.488 -1.6488  0.3768 -0.4464
12079TIP3    H257653   1.798   4.320   3.558  3.0814 -1.5215  0.2805
12080TIP3   OH257654   1.790   6.028   3.214  0.1076  0.1419  0.0692
12080TIP3    H157655   1.744   6.106   3.182  1.9309  2.0656  1.8869
12080TIP3    H257656   1.723   5.959   3.213 -1.2852  1.3895 -2.6010
12081TIP3   OH257657   3.211   5.781  17.272  0.2860 -0.1334 -0.1793
12081TIP3    H157658   3.271   5.848  17.305 -0.5112  0.1412  0.7529
12081TIP3    H257659   3.267   5.705  17.256  0.8841  0.0980  0.7237
12082TIP3   OH257660   3.603   5.410   1.403  0.5039 -0.2275 -0.2945
12082TIP3    H157661   3.601   5.432   1.310 -1.0235  0.4817 -0.1263
12082TIP3    H257662   3.662   5.474   1.442 -2.1029  2.3121 -0.1735
12083TIP3   OH257663   4.143   4.108  14.498 -0.0328 -0.2321 -0.2670
12083TIP3    H157664   4.083   4.089  14.570 -0.4852 -1.0003 -0.8267
12083TIP3    H257665   4.149   4.025  14.450  0.8292  0.0665 -0.6954
12084TIP3   OH257666   3.545   4.336   2.144  0.7883  0.1369 -0.2376
12084TIP3    H157667   3.527   4.275   2.216  1.4350 -0.9125 -0.9400
12084TIP3    H257668   3.640   4.352   2.150  0.6921  0.7602 -0.3156
12085TIP3   OH257669   4.748   1.774  11.295  0.3599 -0.4400  0.5706
12085TIP3    H157670   4.750   1.721  11.375  0.0601  0.4348  1.1663
12085TIP3    H257671   4.821   1.834  11.304 -0.1082  0.1418  0.5231
12086TIP3   OH257672   3.554   4.441  13.594 -0.1584  0.1916 -0.5662
12086TIP3    H157673   3.499   4.518  13.607 -1.2500 -0.4448 -1.2137
12086TIP3    H257674   3.625   4.472  13.538  0.3599  1.1048  0.5491
12087TIP3   OH257675   1.008   0.057  10.181  0.6484 -0.5375  0.3902
12087TIP3    H157676   1.020   0.111  10.103  1.7793 -0.0100  0.9048
12087TIP3    H257677   1.041  -0.029  10.157 -0.7399 -0.9039 -0.2886
12088TIP3   OH257678   4.237   0.925  14.697 -0.1321 -0.1729 -0.2961
12088TIP3    H157679   4.255   0.917  14.790  0.0390  1.6465 -0.1500
12088TIP3    H257680   4.323   0.935  14.656 -0.2944  0.4816 -0.4846
12089TIP3   OH257681   5.120   0.832  16.945  0.3463 -0.4750 -0.0079
12089TIP3    H157682   5.082   0.911  16.905  2.6500  0.8018  0.1219
12089TIP3    H257683   5.195   0.811  16.888  0.8031 -1.5215  0.9545
12090TIP3   OH257684   6.078   1.882   1.248  0.6628 -0.3264 -0.5194
12090TIP3    H157685   6.026   1.802   1.238  1.6743 -1.1631  0.5566
12090TIP3    H257686   6.015   1.949   1.272  0.1220 -1.5309  1.7472
12091TIP3   OH257687   2.851   4.627  15.204 -0.5131  0.0942 -0.0568
12091TIP3    H157688   2.764   4.644  15.169  0.2479  2.8566 -0.8636
12091TIP3    H257689   2.911   4.669  15.141  1.2527  0.1710  1.5766
12092TIP3   OH257690   2.233   1.699   5.124  0.7153 -0.2522 -0.3715
12092TIP3    H157691   2.295   1.768   5.149 -1.4766  1.3247  1.1029
12092TIP3    H257692   2.182   1.738   5.053  0.2612 -0.8115 -0.3570
12093TIP3   OH257693   2.335   5.672   1.382 -0.3420 -0.4345 -0.0907
12093TIP3    H157694   2.327   5.602   1.317 -0.7699 -0.4646 -0.0043
12093TIP3    H257695   2.419   5.714   1.361  0.6211 -1.8688  0.7360
12094TIP3   OH257696   4.877   5.367   0.139 -0.0749 -0.2469 -0.2973
12094TIP3    H157697   4.831   5.449   0.122  0.7224  0.1392 -0.6089
12094TIP3    H257698   4.954   5.370   0.083  0.4279 -0.8125  0.3448
12095TIP3   OH257699   5.094   4.127   3.408 -0.5387  0.5690 -0.2427
12095TIP3    H157700   5.182   4.163   3.397 -0.4031  0.8063  1.4095
12095TIP3    H257701   5.088   4.058   3.342  0.4694  1.2925 -1.1269
12096TIP3   OH257702   0.666   5.578   2.327  0.2971 -0.7661  0.4914
12096TIP3    H157703   0.760   5.564   2.334  0.5607  0.9271  0.7084
12096TIP3    H257704   0.634   5.572   2.417 -0.2290 -3.6589  0.2161
12097TIP3   OH257705   0.804   3.983  12.015 -0.4512 -0.4255  0.5301
12097TIP3    H157706   0.784   3.905  11.964  0.7275 -0.2588 -0.2254
12097TIP3    H257707   0.876   4.024  11.968 -0.7601  0.8855  1.1683
12098TIP3   OH257708   5.008   2.901   1.757 -0.7294  0.0248 -0.1767
12098TIP3    H157709   5.048   2.967   1.814 -4.5307  1.3011  1.3069
12098TIP3    H257710   4.916   2.900   1.782 -1.5787 -3.2771 -2.7268
12099TIP3   OH257711   1.380   5.327  11.409  0.0875 -0.8141  0.3096
12099TIP3    H157712   1.411   5.304  11.321 -0.3163  0.5541 -0.2237
12099TIP3    H257713   1.317   5.399  11.394 -2.8262 -2.9424  1.3737
12100TIP3   OH257714   4.692   0.018   0.878  1.3511  0.6550 -0.5836
12100TIP3    H157715   4.786   0.030   0.864  1.2379  0.3551 -1.6636
12100TIP3    H257716   4.653   0.102   0.855  1.5738  1.8132  2.7085
12101TIP3   OH257717   2.675   5.212   4.716 -0.0697  0.1753  0.2285
12101TIP3    H157718   2.589   5.183   4.686 -0.8574  2.2931  0.2636
12101TIP3    H257719   2.710   5.262   4.643  1.6665 -1.5272 -0.2014
12102TIP3   OH257720   1.994   1.836   3.062  0.1309  0.0546  0.1073
12102TIP3    H157721   2.022   1.819   3.152 -1.4472  0.2696  0.6582
12102TIP3    H257722   1.905   1.869   3.069 -0.2399 -0.4499 -1.5698
12103TIP3   OH257723   5.763   5.500   5.318 -0.4142 -0.3207 -0.0902
12103TIP3    H157724   5.783   5.419   5.366  0.2957 -0.7543 -1.0742
12103TIP3    H257725   5.690   5.477   5.261 -2.2278  0.5941  1.7584
12104TIP3   OH257726   3.193   6.009  12.081 -0.1987 -0.0065  0.0295
12104TIP3    H157727   3.155   5.960  12.008 -0.7025 -1.1482  1.0214
12104TIP3    H257728   3.139   6.088  12.089 -0.7906 -0.3889 -0.1722
12105TIP3   OH257729   6.556   3.238  13.019  0.8136 -0.1732 -0.6563
12105TIP3    H157730   6.649   3.244  13.041  1.1743  1.3046 -2.3305
12105TIP3    H257731   6.555   3.213  12.927 -0.4883 -0.8615 -0.4823
12106TIP3   OH257732   1.743   2.441  14.220  0.8416 -0.3177 -0.0182
12106TIP3    H157733   1.754   2.405  14.132  0.1216 -2.1570  0.5926
12106TIP3    H257734   1.650   2.461  14.226  0.8609 -0.3390  0.3709
12107TIP3   OH257735   0.604   6.028  13.390  0.2439  0.1643  0.5261
12107TIP3    H157736   0.533   6.074  13.436 -2.9282 -1.3745 -2.3817
12107TIP3    H257737   0.613   6.075  13.307  2.5737  0.1533  0.7074
12108TIP3   OH257738   0.671   4.018   2.455  0.0095  0.7147 -0.0894
12108TIP3    H157739   0.590   4.050   2.416  0.2141  0.5152 -0.6781
12108TIP3    H257740   0.737   4.026   2.386  0.4596  0.7210  0.3294
12109TIP3   OH257741   4.230   3.149   1.713 -0.0152  0.8676 -0.1535
12109TIP3    H157742   4.180   3.199   1.779 -2.6262 -1.0929 -0.4938
12109TIP3    H257743   4.220   3.058   1.739 -0.2507  0.1004 -2.6781
12110TIP3   OH257744   2.692   1.996   4.873 -0.1549  0.0383 -0.2165
12110TIP3    H157745   2.753   1.922   4.865  0.5378  0.3764  1.3790
12110TIP3    H257746   2.686   2.011   4.968 -1.6963  0.8857 -0.4164
12111TIP3   OH257747   5.431   1.068  11.348 -0.1318 -0.7009 -0.2527
12111TIP3    H157748   5.336   1.075  11.345 -0.1778 -0.0614  1.3717
12111TIP3    H257749   5.461   1.157  11.365  0.5450 -1.2515  1.8127
12112TIP3   OH257750   2.221   1.076   2.344 -0.0796 -0.0099 -0.1026
12112TIP3    H157751   2.133   1.113   2.335 -0.7029 -1.5810 -0.8052
12112TIP3    H257752   2.249   1.058   2.255 -0.2751 -2.2117  0.2269
12113TIP3   OH257753   5.788   3.755   0.835  0.5275 -0.2014  0.6210
12113TIP3    H157754   5.876   3.784   0.859  0.7494 -0.4174  0.0923
12113TIP3    H257755   5.766   3.688   0.900  0.9096 -0.4128  0.5349
12114TIP3   OH257756   2.580   3.291   4.403 -0.6872  0.2556  0.0264
12114TIP3    H157757   2.564   3.343   4.482  0.9576 -0.5451  0.9450
12114TIP3    H257758   2.532   3.337   4.334 -2.0885  1.0344  1.4568
12115TIP3   OH257759   4.778   3.839   4.556  0.4660  0.3314  0.5270
12115TIP3    H157760   4.783   3.743   4.553  1.0698  0.3762 -0.7574
12115TIP3    H257761   4.841   3.868   4.490 -0.8314  1.5703 -0.2256
12116TIP3   OH257762   1.204   2.425   1.520  0.3029  0.2125 -0.8894
12116TIP3    H157763   1.176   2.482   1.591 -0.3015 -0.3334 -0.6831
12116TIP3    H257764   1.299   2.436   1.516  0.1867  1.3371 -0.9453
12117TIP3   OH257765   4.085   6.109   0.670  0.3833  0.3152 -0.3756
12117TIP3    H157766   4.153   6.143   0.612  0.7972  0.7177  0.3239
12117TIP3    H257767   4.129   6.099   0.755 -0.5724  1.1750  0.2477
12118TIP3   OH257768   0.568   3.354  13.731 -0.5719 -0.5102  0.7217
12118TIP3    H157769   0.587   3.448  13.730 -3.8518  0.3946  3.0415
12118TIP3    H257770   0.633   3.317  13.790  2.7109 -0.4744 -2.4858
12119TIP3   OH257771   6.044   5.785   3.359  0.6445  0.3878  0.1548
12119TIP3    H157772   5.962   5.822   3.393  0.9934  2.6088 -1.2193
12119TIP3    H257773   6.017   5.735   3.282  0.4090 -0.5398  0.8149
12120TIP3   OH257774   0.316   1.048  13.014 -0.0317 -0.2577  0.3680
12120TIP3    H157775   0.317   0.979  12.947 -1.9102 -0.8072  0.8525
12120TIP3    H257776   0.372   1.015  13.084  0.4638 -0.5092 -0.1397
12121TIP3   OH257777   2.398   2.272   3.618 -0.5438  0.7442  0.1033
12121TIP3    H157778   2.421   2.186   3.583 -1.4688  0.7659 -0.6090
12121TIP3    H257779   2.355   2.254   3.702  2.7886  0.7486  1.9977
12122TIP3   OH257780   4.021   3.549   3.371 -0.0104  0.6185  0.1351
12122TIP3    H157781   4.008   3.503   3.288 -0.9612 -0.1886  0.7070
12122TIP3    H257782   3.991   3.638   3.354 -1.7318  0.0549  0.0171
12123TIP3   OH257783   4.810   1.066  14.519 -0.3879  0.4777 -0.1272
12123TIP3    H157784   4.829   1.105  14.433  0.6588  2.2979  0.8506
12123TIP3    H257785   4.894   1.065  14.564 -0.8047 -1.0397  0.6828
12124TIP3   OH257786   6.407   3.984  12.078 -0.7261  0.4392  0.0070
12124TIP3    H157787   6.360   3.999  11.996  0.7264  1.3516 -0.6937
12124TIP3    H257788   6.396   4.065  12.127  0.6547  0.9305 -0.4594
12125TIP3   OH257789   3.827   4.215  12.704 -0.0017 -0.0429  0.0695
12125TIP3    H157790   3.805   4.129  12.668 -2.4424  0.4250  0.2924
12125TIP3    H257791   3.920   4.227  12.682 -0.0216 -2.0356 -1.3619
12126TIP3   OH257792   5.695   6.495   2.123  0.1217  0.2524 -0.0432
12126TIP3    H157793   5.739   6.463   2.044  0.2596  1.1779 -0.3543
12126TIP3    H257794   5.638   6.566   2.091 -0.5702 -0.0221  0.5481
12127TIP3   OH257795   1.410   4.139   3.484 -0.5426 -0.2166  0.4345
12127TIP3    H157796   1.413   4.070   3.550  0.6575 -1.4336 -0.8395
12127TIP3    H257797   1.415   4.220   3.534  2.2123 -1.1184  1.8060
12128TIP3   OH257798   0.086   0.227   2.383 -0.1155 -0.0821 -0.1406
12128TIP3    H157799   0.039   0.219   2.299 -1.1307  1.7639  0.2066
12128TIP3    H257800   0.123   0.315   2.381  0.3439 -0.2358  1.1237
12129TIP3   OH257801   0.589   4.393  13.314 -0.0996 -0.2810  0.2226
12129TIP3    H157802   0.569   4.366  13.404  0.7387  0.3471  0.6055
12129TIP3    H257803   0.505   4.417  13.277 -0.8392 -2.8325  0.0426
12130TIP3   OH257804   6.214   4.564  11.554  0.5724 -0.8180  0.1104
12130TIP3    H157805   6.306   4.577  11.578  0.9790  0.1702 -1.8277
12130TIP3    H257806   6.212   4.481  11.506  0.5701 -0.5484 -0.3629
12131TIP3   OH257807   5.984   3.234  15.532  0.6073 -0.0393 -0.2745
12131TIP3    H157808   6.037   3.314  15.528 -0.9414  1.2300  2.0159
12131TIP3    H257809   5.950   3.224  15.443  1.8772  1.1088 -0.9252
12132TIP3   OH257810   2.338   1.596   1.445 -0.3086 -0.0152  0.0221
12132TIP3    H157811   2.402   1.542   1.490 -0.0754 -1.4785 -1.9482
12132TIP3    H257812   2.283   1.631   1.515  1.1215 -0.7161  1.5575
12133TIP3   OH257813   4.631   5.884   5.195 -0.3777 -0.3460 -0.2734
12133TIP3    H157814   4.683   5.921   5.124 -0.3205 -0.1271 -0.1162
12133TIP3    H257815   4.651   5.938   5.271 -1.5882  0.3637 -0.4374
12134TIP3   OH257816   4.287   4.620  17.113  0.1530  0.0874 -0.0732
12134TIP3    H157817   4.225   4.548  17.117  0.7909 -0.4699 -0.0748
12134TIP3    H257818   4.349   4.602  17.183  1.2425 -0.2278 -1.0963
12135TIP3   OH257819   6.244   1.247  15.069  0.3556  0.7219  0.6860
12135TIP3    H157820   6.255   1.161  15.027 -0.9587  1.0046 -0.2931
12135TIP3    H257821   6.328   1.264  15.110  1.3002 -0.1532 -0.7861
12136TIP3   OH257822   6.318   3.732   4.120  0.2273 -0.1541  0.0919
12136TIP3    H157823   6.270   3.670   4.064  0.0247 -1.1410  1.3193
12136TIP3    H257824   6.396   3.753   4.070 -0.0424 -0.8627 -0.6600
12137TIP3   OH257825   4.855   6.651  13.496  0.2442 -0.7343  0.5702
12137TIP3    H157826   4.807   6.570  13.479 -0.0155 -0.6978  1.0926
12137TIP3    H257827   4.925   6.652  13.431 -0.9146 -0.4003 -0.7264
12138TIP3   OH257828   0.816   4.977  14.024  0.2735 -0.1865  0.0563
12138TIP3    H157829   0.796   4.918  13.952  3.0082 -0.7434 -0.3676
12138TIP3    H257830   0.795   5.064  13.990  1.4621 -0.4398 -1.4556
12139TIP3   OH257831   0.635   4.754  16.495 -0.6439  0.1682 -0.1701
12139TIP3    H157832   0.729   4.758  16.483 -0.6740  0.3707 -0.3425
12139TIP3    H257833   0.599   4.808  16.424 -0.9908 -1.9066 -1.6768
12140TIP3   OH257834   2.766   6.155  13.841  0.0293  0.0067  0.7573
12140TIP3    H157835   2.677   6.131  13.813  0.0784 -0.8739  1.3026
12140TIP3    H257836   2.758   6.245  13.872 -0.4965  0.2164  0.0511
12141TIP3   OH257837   3.028   6.234  17.146  0.0969  0.1589  0.0170
12141TIP3    H157838   3.114   6.225  17.105 -0.0121 -1.2265  0.0435
12141TIP3    H257839   3.045   6.232  17.240  0.2873  2.7831  0.1276
12142TIP3   OH257840   1.221   3.604   1.730 -0.0941 -0.1097 -0.6765
12142TIP3    H157841   1.176   3.530   1.688 -0.9951  1.0468 -1.8486
12142TIP3    H257842   1.231   3.578   1.821 -0.8334 -1.4791 -0.9613
12143TIP3   OH257843   2.723   3.524   0.273 -0.4079  0.2192 -0.3565
12143TIP3    H157844   2.720   3.612   0.310  0.3552  0.0294  0.1729
12143TIP3    H257845   2.720   3.538   0.178 -0.6764  0.7943 -0.2672
12144TIP3   OH257846   1.394   1.371   2.469 -0.7429  0.3800 -0.2629
12144TIP3    H157847   1.488   1.356   2.470 -0.9594 -1.1217 -0.7631
12144TIP3    H257848   1.356   1.287   2.444 -2.2905  0.5415  1.3420
12145TIP3   OH257849   1.315   0.973   4.345  0.5190  0.2864 -0.0572
12145TIP3    H157850   1.380   1.018   4.291 -0.5308  1.3291 -0.4977
12145TIP3    H257851   1.257   1.042   4.375 -1.6354 -0.8106 -1.4057
12146TIP3   OH257852   5.831   6.054  16.232 -0.0864  0.0689  0.1980
12146TIP3    H157853   5.822   5.978  16.174 -1.0807  0.2702  0.0576
12146TIP3    H257854   5.763   6.041  16.298  0.2831  0.4286  0.6497
12147TIP3   OH257855   6.004   4.285  16.131 -0.3382 -0.0635 -0.2685
12147TIP3    H157856   5.942   4.328  16.189  0.2842  2.4748 -1.3333
12147TIP3    H257857   6.079   4.263  16.186 -1.1055 -0.7771  0.5071
12148TIP3   OH257858   5.613   4.378   4.921 -0.7803  0.4979  0.0832
12148TIP3    H157859   5.561   4.446   4.963 -2.4456 -1.6597  1.6957
12148TIP3    H257860   5.641   4.418   4.838 -0.9230  3.4111  1.3167
12149TIP3   OH257861   4.695   1.933   2.212  0.2130  0.3381  0.0819
12149TIP3    H157862   4.698   1.986   2.132 -1.7636  2.0504  1.0542
12149TIP3    H257863   4.785   1.939   2.247  0.7235  0.7869 -1.2357
12150TIP3   OH257864   3.601   6.005  13.516  0.4802 -0.0224 -0.5376
12150TIP3    H157865   3.537   5.944  13.551  0.0938  0.5465 -0.2391
12150TIP3    H257866   3.665   6.016  13.587  0.2017  0.4086 -0.3474
12151TIP3   OH257867   1.898   5.096   3.325  0.2006  0.1713  0.0771
12151TIP3    H157868   1.895   5.059   3.237  0.9035  0.3613 -0.0350
12151TIP3    H257869   1.806   5.104   3.351  0.0036 -2.6438  0.5420
12152TIP3   OH257870   4.839   0.591  14.211  0.0248 -1.2351  0.4011
12152TIP3    H157871   4.831   0.593  14.115  2.5425  0.2423  0.1167
12152TIP3    H257872   4.933   0.580  14.227 -0.4050 -2.1074  2.7458
12153TIP3   OH257873   0.836   3.839   3.094 -0.5591  0.0886 -0.5847
12153TIP3    H157874   0.792   3.879   3.169  0.1271 -0.7662  0.3045
12153TIP3    H257875   0.805   3.888   3.018 -1.0650  1.1405  0.2855
12154TIP3   OH257876   3.760   6.614   2.229 -0.1040  0.1175  0.7108
12154TIP3    H157877   3.843   6.661   2.238  0.3499 -0.1855 -1.3766
12154TIP3    H257878   3.694   6.683   2.228  0.0898  0.3673  2.3204
12155TIP3   OH257879   1.609   1.417  15.910 -0.1630 -0.1364  0.2918
12155TIP3    H157880   1.601   1.339  15.855  2.9686 -0.7509  0.5111
12155TIP3    H257881   1.653   1.481  15.854  0.4279  0.2448  1.1779
12156TIP3   OH257882   3.292   6.378  10.670 -0.2634 -0.8765  0.3440
12156TIP3    H157883   3.255   6.418  10.591 -1.4489 -0.7405  0.9358
12156TIP3    H257884   3.243   6.418  10.742  0.3370 -1.4812  1.1143
12157TIP3   OH257885   4.550   1.812  13.674 -0.2842  0.1205 -0.9166
12157TIP3    H157886   4.597   1.845  13.598 -0.5204  2.2531 -0.1970
12157TIP3    H257887   4.468   1.777  13.639  0.0028  0.2541 -1.7351
12158TIP3   OH257888   1.344   5.410   4.698 -0.3395  0.3497 -0.1926
12158TIP3    H157889   1.377   5.429   4.786 -1.0858  0.6745  0.0240
12158TIP3    H257890   1.252   5.387   4.712  0.0782 -1.8145 -0.6361
12159TIP3   OH257891   3.537   6.681   3.600  0.0841 -0.2035  0.3299
12159TIP3    H157892   3.488   6.622   3.657 -0.5078  0.0936  0.1361
12159TIP3    H257893   3.470   6.727   3.549  0.5996 -0.3886 -0.5411
12160TIP3   OH257894   2.435   6.573  16.385 -0.3103  0.7197 -0.2709
12160TIP3    H157895   2.420   6.666  16.372 -0.4788  0.8323  0.6441
12160TIP3    H257896   2.349   6.539  16.413 -0.4549  0.1389 -1.3650
12161TIP3   OH257897   0.651   4.539  14.110  0.5949 -0.2059 -0.0330
12161TIP3    H157898   0.558   4.556  14.096  0.6653  0.1952 -0.0339
12161TIP3    H257899   0.686   4.622  14.141  0.6593 -0.7682  1.4627
12162TIP3   OH257900   3.449   0.373   1.735 -0.4385 -0.2861  0.2000
12162TIP3    H157901   3.524   0.412   1.690  0.3613 -0.0074  1.7202
12162TIP3    H257902   3.439   0.424   1.814 -1.2163 -1.3461  0.8154
12163TIP3   OH257903   3.660   4.738  15.265  0.5615  0.2967 -0.4341
12163TIP3    H157904   3.695   4.822  15.295 -1.1102  1.1478 -0.7918
12163TIP3    H257905   3.574   4.732  15.305  0.7307 -1.3729 -0.2474
12164TIP3   OH257906   1.511   0.411  11.387 -0.5823 -0.1289  0.6097
12164TIP3    H157907   1.521   0.455  11.303 -0.0866 -0.1641  0.6467
12164TIP3    H257908   1.600   0.384  11.411 -0.6667  0.1916  1.3139
12165TIP3   OH257909   3.975   6.297   0.258  0.2312 -0.4183 -0.1272
12165TIP3    H157910   3.927   6.356   0.316  0.8176 -0.2235  0.1664
12165TIP3    H257911   3.924   6.216   0.258  1.0274 -0.9768  1.9149
12166TIP3   OH257912   3.386   5.613  16.980 -0.2333 -0.3217  0.1277
12166TIP3    H157913   3.437   5.685  16.943  0.0328 -0.8179 -0.4975
12166TIP3    H257914   3.404   5.539  16.922 -1.5715 -0.5398 -0.0452
12167TIP3   OH257915   2.337   4.479  17.208  0.2074 -0.7930  0.3115
12167TIP3    H157916   2.384   4.396  17.219  1.2337 -0.1779  0.7602
12167TIP3    H257917   2.261   4.471  17.265  0.5614 -1.2400  0.7357
12168TIP3   OH257918   0.419   6.205  14.184  0.8348 -0.4049  0.3891
12168TIP3    H157919   0.467   6.129  14.218 -1.1643 -2.4650 -1.0788
12168TIP3    H257920   0.367   6.235  14.257  0.6923 -1.2766  0.6547
12169TIP3   OH257921   0.622   4.955   3.349 -0.3207  0.2471  0.9640
12169TIP3    H157922   0.651   4.911   3.430  0.5144  0.0264  0.5593
12169TIP3    H257923   0.691   4.934   3.286 -0.7735  0.7523  0.3057
12170TIP3   OH257924   4.414   3.231  14.414 -0.8986 -0.0976  0.2200
12170TIP3    H157925   4.470   3.307  14.433 -0.4620 -0.5817  0.9270
12170TIP3    H257926   4.382   3.247  14.325  2.3888 -0.9922 -1.2945
12171TIP3   OH257927   5.486   2.414   4.838 -0.5614  0.0189 -0.4444
12171TIP3    H157928   5.461   2.460   4.919 -1.4470 -0.2807 -0.5323
12171TIP3    H257929   5.553   2.351   4.864 -0.2964  0.4470 -0.0849
12172TIP3   OH257930   6.536   2.302   4.658  0.1267 -0.1833 -0.6205
12172TIP3    H157931   6.457   2.248   4.655 -1.6106  2.1441  0.6377
12172TIP3    H257932   6.601   2.246   4.702 -1.7801 -1.0753  1.2406
12173TIP3   OH257933   1.446   5.606   1.073  0.1356 -0.0032 -0.0922
12173TIP3    H157934   1.388   5.559   1.133  0.6301 -0.1753  0.2647
12173TIP3    H257935   1.523   5.626   1.127 -0.1448  1.3868 -0.1810
12174TIP3   OH257936   4.629   5.984  10.429  0.6673 -0.0404  0.4007
12174TIP3    H157937   4.536   5.994  10.408  0.9696  0.6274 -0.6720
12174TIP3    H257938   4.659   5.914  10.370  0.6390 -0.9440  1.4304
12175TIP3   OH257939   2.863   5.818  12.373 -0.0978 -0.7201  0.3018
12175TIP3    H157940   2.921   5.756  12.329  0.6461  1.5201 -2.1155
12175TIP3    H257941   2.779   5.809  12.329  0.6497  1.5277 -1.8616
12176TIP3   OH257942   1.560   5.335  12.494  0.0031 -0.1830 -0.0465
12176TIP3    H157943   1.506   5.406  12.459 -0.0782  0.4332  1.2825
12176TIP3    H257944   1.639   5.379  12.526  0.2157 -0.7661  0.2348
12177TIP3   OH257945   2.153   4.153  15.504  0.3467 -0.0435 -0.1697
12177TIP3    H157946   2.170   4.107  15.586  1.2603  0.2390 -0.1982
12177TIP3    H257947   2.130   4.242  15.531  0.6835  0.0594 -0.2185
12178TIP3   OH257948   3.143   1.548  13.593  0.5112 -0.0867  0.1280
12178TIP3    H157949   3.173   1.560  13.683  1.9251 -0.6158 -0.2453
12178TIP3    H257950   3.060   1.501  13.601  0.9793 -0.7778  1.1416
12179TIP3   OH257951   5.822   0.483  11.256 -0.2396 -0.1009  0.4105
12179TIP3    H157952   5.865   0.503  11.173  0.1752  2.4619  1.1644
12179TIP3    H257953   5.892   0.451  11.313 -0.0330  0.5225  0.5117
12180TIP3   OH257954   3.008   0.588   5.176 -0.1530  0.0980 -0.2681
12180TIP3    H157955   2.958   0.560   5.100 -0.1840 -1.0301  0.1624
12180TIP3    H257956   2.959   0.555   5.251  0.8066 -0.3436  0.1827
12181TIP3   OH257957   1.220   4.945   5.010  0.3611  0.3018  0.2216
12181TIP3    H157958   1.300   4.950   4.958 -1.7439  2.3603 -3.1805
12181TIP3    H257959   1.219   5.026   5.061  1.7436 -1.0814  2.6128
12182TIP3   OH257960   3.816   3.479   4.843 -0.2095 -0.2115  0.0936
12182TIP3    H157961   3.850   3.457   4.930 -0.0543 -0.0347  0.0790
12182TIP3    H257962   3.791   3.395   4.805  0.3886 -0.3667  0.0320
12183TIP3   OH257963   0.758   0.945  15.176  0.5641 -0.0748 -0.2447
12183TIP3    H157964   0.681   0.929  15.122  1.8161 -2.1935 -1.5645
12183TIP3    H257965   0.767   0.865  15.229  0.6175  1.0639  1.5550
12184TIP3   OH257966   6.288   0.260  14.494  0.2317 -0.2017 -0.2113
12184TIP3    H157967   6.380   0.286  14.498 -0.2356  1.4877  0.6821
12184TIP3    H257968   6.261   0.252  14.585 -0.2055 -1.9630 -0.4572
12185TIP3   OH257969   5.130   0.871   2.971  0.2030  0.2513  0.3982
12185TIP3    H157970   5.126   0.810   3.045  0.5100 -0.4393 -0.1506
12185TIP3    H257971   5.212   0.919   2.983  1.6438 -1.7422 -0.9331
12186TIP3   OH257972   0.984   3.492   3.466  0.6576  0.0620  0.2198
12186TIP3    H157973   0.902   3.477   3.511  0.9812 -0.6762  0.5717
12186TIP3    H257974   0.962   3.553   3.395 -0.3378 -0.7491 -0.1847
12187TIP3   OH257975   4.079   5.286  14.398  0.0226 -0.2013 -0.7114
12187TIP3    H157976   4.129   5.206  14.412  0.6496  0.2376 -0.4402
12187TIP3    H257977   4.099   5.341  14.474 -1.4111 -0.2852 -0.2249
12188TIP3   OH257978   6.672   1.860  12.296  0.5632 -0.2873 -0.0988
12188TIP3    H157979   6.754   1.860  12.248  0.5989 -2.2902 -0.1054
12188TIP3    H257980   6.618   1.795  12.252 -0.4949 -0.0377  0.7827
12189TIP3   OH257981   1.354   6.512   0.443 -0.1506  0.2506 -0.0621
12189TIP3    H157982   1.339   6.591   0.392 -1.8874 -0.3480 -0.5343
12189TIP3    H257983   1.429   6.470   0.400  0.7344  1.5649  0.1473
12190TIP3   OH257984   0.777   3.375   5.463 -0.2947 -0.2163  0.4104
12190TIP3    H157985   0.835   3.381   5.539  0.9419  2.1841 -0.6090
12190TIP3    H257986   0.824   3.317   5.403  0.4420  0.6769  0.1103
12191TIP3   OH257987   5.696   6.583  11.874  0.3989  0.0472  0.5077
12191TIP3    H157988   5.669   6.626  11.793  1.6590  0.5088  0.3059
12191TIP3    H257989   5.622   6.528  11.898 -0.8704  1.5599  0.2331
12192TIP3   OH257990   1.329   4.358  13.976  0.1440 -0.2450 -0.1574
12192TIP3    H157991   1.410   4.377  13.928  0.3448 -0.8734 -0.0710
12192TIP3    H257992   1.260   4.364  13.910  0.1637  1.0371 -0.0846
12193TIP3   OH257993   6.316   5.970  14.878  0.0827  0.1554  0.1374
12193TIP3    H157994   6.406   5.936  14.884 -0.4347 -1.2152  0.4343
12193TIP3    H257995   6.289   5.983  14.969 -0.3686 -0.4072  0.0865
12194TIP3   OH257996   3.994   6.632  13.094  0.3025 -0.1895 -0.2528
12194TIP3    H157997   3.915   6.676  13.125 -0.2524  0.0431 -1.9178
12194TIP3    H257998   3.988   6.543  13.130 -0.2693  0.0826  0.3305
12195TIP3   OH257999   1.623   5.021  12.141 -0.3789 -0.4823 -0.4419
12195TIP3    H158000   1.670   5.075  12.206 -1.2338 -0.9820  0.6203
12195TIP3    H258001   1.654   5.053  12.057  0.5287  0.4078  0.2045
12196TIP3   OH258002   3.417   4.342   0.985  0.0425 -0.1130  0.5116
12196TIP3    H158003   3.396   4.294   1.064 -2.7403  0.4428  0.1944
12196TIP3    H258004   3.355   4.415   0.983  0.8290  0.5869 -1.5606
12197TIP3   OH258005   0.100   3.617   1.622 -0.1106  0.5178  0.0103
12197TIP3    H158006   0.042   3.574   1.559  0.9645  1.3790 -1.6306
12197TIP3    H258007   0.057   3.700   1.643 -0.6817  0.0402  0.7890
12198TIP3   OH258008   1.341   2.499   1.212 -0.6065  0.1112 -0.2370
12198TIP3    H158009   1.318   2.554   1.288  0.7867 -0.4529  0.6300
12198TIP3    H258010   1.295   2.417   1.228 -0.6775  0.1480 -0.2484
12199TIP3   OH258011   3.089   2.289  14.514 -0.1974  0.1610  0.4348
12199TIP3    H158012   3.113   2.379  14.533 -1.1682  0.1137  2.0262
12199TIP3    H258013   3.170   2.239  14.524 -0.3926  0.3150  3.4986
12200TIP3   OH258014   4.968   1.883   4.635 -0.2666 -0.4140  0.2467
12200TIP3    H158015   4.974   1.976   4.659 -0.1585 -0.3996  0.1651
12200TIP3    H258016   4.992   1.881   4.542  1.0589 -0.6945  0.5860
12201TIP3   OH258017   1.431   3.282  11.567 -0.7406  0.0486  0.4818
12201TIP3    H158018   1.391   3.368  11.557  2.3259  1.4976 -0.5280
12201TIP3    H258019   1.402   3.233  11.490 -0.2895  1.1872 -0.4414
12202TIP3   OH258020   6.621   0.579   3.913 -0.2595 -0.2763  0.2288
12202TIP3    H158021   6.694   0.517   3.915 -0.3253 -0.3503  0.3885
12202TIP3    H258022   6.661   0.662   3.887 -0.0202 -0.1899  0.8493
12203TIP3   OH258023   4.700   3.674  12.146  0.7966 -0.9091 -0.7192
12203TIP3    H158024   4.733   3.700  12.232 -0.1181 -0.8887 -0.3631
12203TIP3    H258025   4.657   3.752  12.112 -0.0785 -1.3147 -0.5734
12204TIP3   OH258026   3.211   0.005   4.330 -0.2176 -0.0588  0.1214
12204TIP3    H158027   3.217  -0.001   4.235  3.6752 -0.7645  0.2460
12204TIP3    H258028   3.226   0.098   4.349 -2.6148  0.4054  0.1108
12205TIP3   OH258029   2.631   6.284   0.388  0.0237 -0.1596  0.0708
12205TIP3    H158030   2.594   6.362   0.347 -0.0822  0.0143  0.4959
12205TIP3    H258031   2.723   6.306   0.403  0.3726 -0.6572 -1.1521
12206TIP3   OH258032   0.026   0.452   5.667 -0.0090  0.6893 -0.1151
12206TIP3    H158033   0.075   0.484   5.592  2.1790  0.8750  1.3144
12206TIP3    H258034   0.056   0.505   5.740 -1.2550 -0.2245  1.1191
12207TIP3   OH258035   5.242   6.516  13.903  0.3427 -0.4492  0.1683
12207TIP3    H158036   5.179   6.576  13.944  0.0116 -1.1239  0.6521
12207TIP3    H258037   5.285   6.570  13.836  1.6552  1.0103  2.0662
12208TIP3   OH258038   2.115   2.529   4.974  0.3493 -0.4136  0.3289
12208TIP3    H158039   2.199   2.550   4.933  0.9196 -2.6399  0.1904
12208TIP3    H258040   2.128   2.551   5.067  0.9447 -0.3580  0.2388
12209TIP3   OH258041   1.362   6.110   0.491 -0.0643  0.5347  0.3833
12209TIP3    H158042   1.444   6.061   0.486  0.0596  0.6067  1.5414
12209TIP3    H258043   1.339   6.127   0.399  0.0372 -1.4350 -0.0650
12210TIP3   OH258044   1.451   3.794  14.649  0.1133  0.0011  0.0820
12210TIP3    H158045   1.385   3.863  14.640 -0.1499 -0.4293 -1.4518
12210TIP3    H258046   1.405   3.722  14.691  0.7826  1.2319  3.2231
12211TIP3   OH258047   1.295   2.310  13.795 -0.2507 -0.1928 -0.5371
12211TIP3    H158048   1.370   2.352  13.753 -1.2883  0.8766 -1.3984
12211TIP3    H258049   1.328   2.282  13.880  1.0167  0.6309 -0.7261
12212TIP3   OH258050   2.607   1.850   4.316 -0.1534  0.3086  0.0278
12212TIP3    H158051   2.539   1.783   4.306 -0.1352  0.5314 -2.0575
12212TIP3    H258052   2.596   1.883   4.405 -3.3353  0.9231 -0.4981
12213TIP3   OH258053   1.188   4.227  11.402 -0.0542  0.6104  0.4009
12213TIP3    H158054   1.212   4.298  11.342  0.2687 -0.2160 -0.4867
12213TIP3    H258055   1.225   4.148  11.362  1.3791  0.1868  2.4189
12214TIP3   OH258056   5.425   3.722  17.166  0.0398  0.9571 -0.2810
12214TIP3    H158057   5.510   3.687  17.192 -0.7550 -1.3597 -0.5665
12214TIP3    H258058   5.389   3.759  17.247 -0.8049 -2.7885  1.2799
12215TIP3   OH258059   5.025   1.294   3.036  0.0362 -0.1332  0.8478
12215TIP3    H158060   4.963   1.249   2.978  0.4580 -1.8933  1.7000
12215TIP3    H258061   5.104   1.240   3.033  1.6194  2.0857 -0.2602
12216TIP3   OH258062   6.107   3.880   4.586  0.6369 -0.1534 -0.5802
12216TIP3    H158063   6.032   3.923   4.546  1.2042  1.2502 -0.1815
12216TIP3    H258064   6.087   3.786   4.579 -0.9851  0.1729 -0.7673
12217TIP3   OH258065   0.700   0.192  11.513  0.1447  0.4252  0.2896
12217TIP3    H158066   0.675   0.235  11.596  2.0503  1.8886  0.1829
12217TIP3    H258067   0.712   0.265  11.452 -2.8214 -0.6820 -1.8663
12218TIP3   OH258068   4.099   2.650  16.677 -0.0963  0.4778  0.1846
12218TIP3    H158069   4.104   2.591  16.753 -0.4639 -0.7845 -0.7234
12218TIP3    H258070   4.011   2.635  16.641  0.4926  0.1243 -1.1845
12219TIP3   OH258071   0.517   2.631  14.916 -0.1276 -0.2815  0.2722
12219TIP3    H158072   0.430   2.604  14.885 -1.0539  1.3718  1.2864
12219TIP3    H258073   0.514   2.617  15.010  0.4285  0.4964  0.4116
12220TIP3   OH258074   1.576   4.589  15.127  0.2408  0.1338 -0.1301
12220TIP3    H158075   1.536   4.676  15.120 -0.8579 -0.2880  0.6573
12220TIP3    H258076   1.661   4.605  15.168  0.0145  0.8303  0.0890
12221TIP3   OH258077   4.323   5.739   2.635 -0.3082  0.0414  0.1593
12221TIP3    H158078   4.320   5.657   2.586 -1.2437  0.3678 -0.3593
12221TIP3    H258079   4.367   5.717   2.717  0.5216 -0.7008 -0.4649
12222TIP3   OH258080   5.792   2.180   0.628 -0.1123 -0.3854  0.2069
12222TIP3    H158081   5.855   2.232   0.677  1.1777 -2.3323  0.7308
12222TIP3    H258082   5.707   2.222   0.645  0.7715  1.0755  1.1603
12223TIP3   OH258083   3.219   5.001   2.377 -0.1715  0.5386 -1.1043
12223TIP3    H158084   3.131   5.008   2.339 -0.1758  0.5401 -1.0939
12223TIP3    H258085   3.252   5.091   2.378  0.5862  0.3220 -2.8834
12224TIP3   OH258086   0.190   5.333   3.679  0.1232 -0.0524  0.0995
12224TIP3    H158087   0.239   5.411   3.651  1.8757 -0.6496  1.3686
12224TIP3    H258088   0.198   5.333   3.774  1.5552 -2.6152  0.0714
12225TIP3   OH258089   5.463   0.844  17.201  0.1125 -0.1152  0.7248
12225TIP3    H158090   5.507   0.929  17.201  0.7444 -0.4408  0.7721
12225TIP3    H258091   5.413   0.842  17.282 -1.0105  0.7736  0.0909
12226TIP3   OH258092   0.941   0.162  10.756 -0.6932 -0.0542 -0.1808
12226TIP3    H158093   1.031   0.153  10.727 -0.2435  1.7293  0.5731
12226TIP3    H258094   0.938   0.244  10.805 -2.9507  0.4720 -1.0467
12227TIP3   OH258095   3.946   3.152   6.412  0.4837  0.2186 -0.5021
12227TIP3    H158096   3.854   3.171   6.431  1.1538  1.8230  1.4800
12227TIP3    H258097   3.984   3.238   6.394  1.8650 -0.2719  0.0064
12228TIP3   OH258098   1.965   5.341  12.346  0.6371  0.1964 -0.3828
12228TIP3    H158099   1.950   5.418  12.400 -2.1881 -1.3866  1.3819
12228TIP3    H258100   1.945   5.369  12.257  0.2534  1.6375  0.1309
12229TIP3   OH258101   5.649   6.164   3.120  0.1340  0.2394 -0.2220
12229TIP3    H158102   5.608   6.189   3.037  0.2167 -0.5828 -0.5132
12229TIP3    H258103   5.576   6.158   3.182  0.2591  2.8117  0.3008
12230TIP3   OH258104   3.077   0.185  13.375  0.4592 -0.5968  0.3707
12230TIP3    H158105   3.127   0.105  13.392 -0.8670 -1.9076 -1.3424
12230TIP3    H258106   3.110   0.216  13.291 -0.2337 -0.3899  0.1652
12231TIP3   OH258107   3.589   1.781  15.058  0.0764 -0.1730  0.0644
12231TIP3    H158108   3.590   1.794  14.964 -1.8538 -0.5946 -0.0544
12231TIP3    H258109   3.509   1.824  15.088  0.9052  0.4108  1.5973
12232TIP3   OH258110   5.793   5.872  10.181 -0.0211 -0.1593  0.0404
12232TIP3    H158111   5.699   5.864  10.200 -0.1071  0.5283 -0.0538
12232TIP3    H258112   5.833   5.796  10.222 -0.7971 -1.2455 -1.1503
12233TIP3   OH258113   6.068   4.994   1.473  0.1808  0.5829 -0.6959
12233TIP3    H158114   6.147   5.008   1.421 -0.5539  1.4555 -1.6029
12233TIP3    H258115   6.022   4.923   1.429  0.3154  0.2560 -0.3198
12234TIP3   OH258116   5.814   0.260   6.399 -0.5820 -1.0510 -0.5787
12234TIP3    H158117   5.807   0.338   6.343 -1.5519  0.5415  1.6095
12234TIP3    H258118   5.736   0.208   6.378 -0.3253 -1.0629 -1.5248
12235TIP3   OH258119   6.490   2.636   6.552  0.2927  0.3637 -0.8709
12235TIP3    H158120   6.522   2.615   6.640  2.8786 -0.3035 -1.8533
12235TIP3    H258121   6.427   2.567   6.532  1.1489 -0.6312 -0.2525
12236TIP3   OH258122   2.518   3.992  15.262 -0.0001  0.1766 -0.4151
12236TIP3    H158123   2.475   3.915  15.224  1.8962 -0.4673 -1.3463
12236TIP3    H258124   2.446   4.042  15.301 -1.3903 -1.6088 -0.5585
12237TIP3   OH258125   4.970   2.263  15.420 -0.0820  0.0618  0.1912
12237TIP3    H158126   5.019   2.183  15.401  1.4021  1.0466 -0.2856
12237TIP3    H258127   4.909   2.272  15.347 -0.5677 -0.8490  0.4706
12238TIP3   OH258128   6.660   6.555  13.615 -0.3154 -0.0440 -0.2618
12238TIP3    H158129   6.590   6.518  13.669 -1.9283 -0.7655 -2.6517
12238TIP3    H258130   6.647   6.650  13.620 -1.4532 -0.1676 -0.6037
12239TIP3   OH258131   2.364   2.713  11.317 -0.0287  1.0135  0.7604
12239TIP3    H158132   2.398   2.627  11.292  0.5485  1.5247 -0.2472
12239TIP3    H258133   2.289   2.728  11.260  0.9165  1.9150 -0.2732
12240TIP3   OH258134   0.596   5.373  16.949  0.1271 -0.4579  0.1983
12240TIP3    H158135   0.618   5.310  17.017 -0.8394 -1.1176 -0.0787
12240TIP3    H258136   0.500   5.372  16.944  0.0845  0.9858  0.1303
12241TIP3   OH258137   4.873   3.956   2.010 -0.2791  0.4436 -0.2437
12241TIP3    H158138   4.903   4.021   2.074  2.6906 -1.5463  0.5416
12241TIP3    H258139   4.887   3.998   1.925  1.0696  1.0375  0.2550
12242TIP3   OH258140   3.467   6.081   1.297 -0.3579  0.1476  0.1268
12242TIP3    H158141   3.553   6.106   1.330  0.3237 -3.5189  1.5871
12242TIP3    H258142   3.406   6.114   1.363  0.4525 -1.6315  1.8445
12243TIP3   OH258143   5.790   2.353  16.025 -0.1395 -0.8319  0.5554
12243TIP3    H158144   5.713   2.300  16.005  0.7621 -1.7764 -0.6239
12243TIP3    H258145   5.760   2.443  16.016 -1.2410 -1.1687  0.6935
12244TIP3   OH258146   1.763   0.166   3.933 -0.7314  0.4888 -0.0633
12244TIP3    H158147   1.761   0.159   4.028 -0.4499  3.3066  0.2584
12244TIP3    H258148   1.789   0.079   3.902 -0.9871 -0.5295  2.4052
12245TIP3   OH258149   1.362   0.236  12.519  0.1396  0.2665 -0.2414
12245TIP3    H158150   1.398   0.298  12.582  0.2095 -0.3209  0.3099
12245TIP3    H258151   1.271   0.263  12.508  0.6222  1.5395 -1.3682
12246TIP3   OH258152   3.325   6.167  14.041  0.0992 -0.0270 -0.2457
12246TIP3    H158153   3.358   6.091  13.992  2.0508  1.5710 -1.5797
12246TIP3    H258154   3.239   6.140  14.072 -1.0019 -1.4554 -3.9958
12247TIP3   OH258155   1.602   4.633  14.589  0.3154  0.0059 -0.1166
12247TIP3    H158156   1.577   4.661  14.501  1.4366  0.6944 -0.2323
12247TIP3    H258157   1.556   4.694  14.647  0.7573  0.5180 -0.2906
12248TIP3   OH258158   6.170   2.873  15.126  0.0044 -0.8589  0.2620
12248TIP3    H158159   6.078   2.892  15.143 -0.1427 -2.0984  0.9654
12248TIP3    H258160   6.174   2.778  15.117  1.3259 -0.9001  1.0255
12249TIP3   OH258161   3.693   2.329  15.044 -0.0174  0.2318 -0.1839
12249TIP3    H158162   3.621   2.266  15.040  1.7893 -2.0345  0.7011
12249TIP3    H258163   3.706   2.356  14.953  0.3868 -2.2861 -0.9586
12250TIP3   OH258164   2.812   2.825  13.205 -0.3977  0.3066  0.9573
12250TIP3    H158165   2.791   2.754  13.144 -1.5409  1.2719  0.1691
12250TIP3    H258166   2.790   2.790  13.291 -2.5020  0.2085  0.4402
12251TIP3   OH258167   1.908   5.158   4.451 -0.1259  0.4968 -0.0290
12251TIP3    H158168   1.835   5.119   4.403  0.5821  1.6601 -2.1610
12251TIP3    H258169   1.868   5.196   4.530 -1.9603  1.6455 -1.4344
12252TIP3   OH258170   5.641   5.885   0.890 -0.5255  0.3975 -0.7849
12252TIP3    H158171   5.609   5.932   0.967 -0.9118  0.3488 -0.9102
12252TIP3    H258172   5.577   5.815   0.878 -1.5810  1.5760 -2.3229
12253TIP3   OH258173   0.681   6.222  17.333 -0.1789 -0.0860 -0.4581
12253TIP3    H158174   0.683   6.147  17.394 -1.3648 -0.4574 -0.8519
12253TIP3    H258175   0.599   6.267  17.354  0.7981  1.4537  0.1569
12254TIP3   OH258176   0.581   6.419   3.558  0.9777 -0.2947 -0.4201
12254TIP3    H158177   0.504   6.365   3.574  1.8124 -1.6375 -0.8008
12254TIP3    H258178   0.629   6.418   3.641  0.5845  0.5743 -0.1700
12255TIP3   OH258179   5.844   3.306   4.269 -0.2104  0.0192  0.0878
12255TIP3    H158180   5.767   3.292   4.324 -1.3290  0.6717 -1.2421
12255TIP3    H258181   5.915   3.321   4.331 -0.7286 -2.4577  1.3864
12256TIP3   OH258182   4.678   4.694   0.462 -0.6515  0.3183  0.1962
12256TIP3    H158183   4.605   4.747   0.494 -0.8224  0.7111 -0.7808
12256TIP3    H258184   4.642   4.607   0.450 -0.9630  0.5076 -0.2661
12257TIP3   OH258185   5.469   4.322  12.844 -0.0140 -0.3190  0.1730
12257TIP3    H158186   5.405   4.374  12.795 -1.3088 -3.1375 -1.3413
12257TIP3    H258187   5.416   4.261  12.895  1.4521 -0.8632  1.0946
12258TIP3   OH258188   6.256   1.210  13.091 -0.4636 -0.3084 -0.3389
12258TIP3    H158189   6.325   1.150  13.117 -1.3892 -0.7718  1.1543
12258TIP3    H258190   6.176   1.175  13.131 -1.6064  0.1382 -2.1103
12259TIP3   OH258191   0.185   6.423  12.704 -0.2737  0.3128  0.3764
12259TIP3    H158192   0.195   6.328  12.717  0.9974  0.5150  1.0552
12259TIP3    H258193   0.135   6.430  12.623  0.6799 -0.9588 -0.3757
12260TIP3   OH258194   0.244   5.769  15.932 -0.5369  0.0584 -0.1802
12260TIP3    H158195   0.165   5.820  15.920 -0.1951  0.4222 -0.9218
12260TIP3    H258196   0.241   5.742  16.024 -0.4177  1.9097  0.4010
12261TIP3   OH258197   5.298   6.555  14.920  0.4251 -0.2806 -0.1504
12261TIP3    H158198   5.214   6.570  14.963  0.1022  1.6298 -1.3557
12261TIP3    H258199   5.362   6.556  14.991 -0.3672  0.1283  0.5661
12262TIP3   OH258200   5.957   4.137  12.320 -0.0865 -0.5396 -0.8943
12262TIP3    H158201   5.978   4.199  12.389  0.8891 -1.0136 -0.7441
12262TIP3    H258202   5.884   4.086  12.354  0.6345 -1.0258 -0.0370
12263TIP3   OH258203   6.700   2.789   2.033 -0.4335  0.2088 -0.2006
12263TIP3    H158204   6.735   2.783   2.121  0.5059  2.7122 -0.3176
12263TIP3    H258205   6.626   2.849   2.040  0.8927  2.1232 -1.3380
12264TIP3   OH258206   2.108   1.428  10.478 -0.4955  0.2961 -0.1051
12264TIP3    H158207   2.022   1.447  10.515 -0.8999  0.6092 -1.1511
12264TIP3    H258208   2.090   1.413  10.385  0.4499 -0.5998 -0.1590
12265TIP3   OH258209   1.894   4.316   0.128  0.3013  0.6350 -0.1460
12265TIP3    H158210   1.830   4.326   0.058  0.7163 -0.4374 -0.7135
12265TIP3    H258211   1.856   4.249   0.186  0.6513  0.3893 -0.1937
12266TIP3   OH258212   2.024   3.210   1.134  0.1713  0.4687 -0.9947
12266TIP3    H158213   1.990   3.290   1.175  0.8624  0.2611  0.0150
12266TIP3    H258214   2.102   3.239   1.087 -0.1914  0.5683 -1.5507
12267TIP3   OH258215   0.994   2.658  16.192 -0.1733 -0.2320  0.2817
12267TIP3    H158216   1.080   2.623  16.213 -0.2456  0.3414  1.6046
12267TIP3    H258217   1.008   2.707  16.111  1.2961  1.8005  1.6797
12268TIP3   OH258218   1.410   5.126   5.307 -0.4810  0.3387 -0.4157
12268TIP3    H158219   1.389   5.080   5.388  0.6884  0.4773 -0.0152
12268TIP3    H258220   1.453   5.207   5.335 -1.7950  1.3316 -1.1274
12269TIP3   OH258221   3.892   5.330   3.577 -0.4918 -0.4572 -0.3771
12269TIP3    H158222   3.867   5.243   3.546 -0.3566 -0.9735  0.8979
12269TIP3    H258223   3.987   5.326   3.584 -0.0337  1.0510 -3.8769
12270TIP3   OH258224   5.940   0.047  14.181 -0.9986  0.1186  0.2039
12270TIP3    H158225   6.015   0.055  14.239 -1.4344 -0.6166  0.8997
12270TIP3    H258226   5.975   0.007  14.101 -0.2376  1.9029 -0.4045
12271TIP3   OH258227   5.986   6.066  15.746  0.2012  0.1832 -0.0317
12271TIP3    H158228   6.018   6.156  15.751  0.8418 -0.0589  0.3967
12271TIP3    H258229   5.938   6.062  15.663  2.0683  0.3438 -1.1809
12272TIP3   OH258230   2.102   3.433  11.837  0.2877 -0.2212 -0.0449
12272TIP3    H158231   2.093   3.447  11.931  1.2311  0.5346 -0.0498
12272TIP3    H258232   2.185   3.386  11.827 -0.2302 -1.0753 -0.4439
12273TIP3   OH258233   6.210   4.786  15.345  0.2051  0.7727 -0.2075
12273TIP3    H158234   6.278   4.849  15.320 -1.0221  1.8844 -0.8985
12273TIP3    H258235   6.223   4.712  15.286  0.6910  1.0532 -0.4607
12274TIP3   OH258236   6.149   2.446  12.771  0.5165 -0.3293 -0.5712
12274TIP3    H158237   6.193   2.378  12.822  1.5919 -0.0410 -1.0851
12274TIP3    H258238   6.064   2.408  12.749 -1.2486  0.5362  3.6914
12275TIP3   OH258239   2.482   4.069   2.747 -0.5604  0.5308  0.2190
12275TIP3    H158240   2.537   4.005   2.791 -1.3012 -0.1960  0.1124
12275TIP3    H258241   2.421   4.017   2.696 -1.7843  1.2853  0.8608
12276TIP3   OH258242   3.567   6.690  17.208 -0.3465  1.1056  0.1236
12276TIP3    H158243   3.526   6.627  17.148 -0.0128  1.6626 -0.6937
12276TIP3    H258244   3.660   6.670  17.204 -0.3904  0.6000  1.1155
12277TIP3   OH258245   6.231   3.816  13.475 -0.0398 -0.6924 -0.3611
12277TIP3    H158246   6.157   3.846  13.527  0.6974  0.5503  0.0397
12277TIP3    H258247   6.192   3.771  13.400 -1.1372 -1.6798  0.7659
12278TIP3   OH258248   5.715   4.762   0.647 -0.1821 -0.0565 -0.5721
12278TIP3    H158249   5.808   4.764   0.670 -0.4511  0.4899  0.5299
12278TIP3    H258250   5.697   4.848   0.609 -0.6145  0.5359  0.8858
12279TIP3   OH258251   5.080   6.396  11.687 -0.1416  0.5579 -0.4782
12279TIP3    H158252   5.113   6.370  11.601 -0.0278  2.5914 -1.1170
12279TIP3    H258253   5.020   6.469  11.669  0.0678  1.2006  1.1715
12280TIP3   OH258254   5.718   2.850   0.348 -0.4791  0.1071  0.2674
12280TIP3    H158255   5.695   2.937   0.316  3.6240  1.6998  0.9659
12280TIP3    H258256   5.752   2.804   0.270 -2.3029 -0.8396 -0.0256
12281TIP3   OH258257   2.600   3.734   4.820  0.6808 -0.1001 -0.3825
12281TIP3    H158258   2.536   3.748   4.890 -0.5476  0.3516 -1.5424
12281TIP3    H258259   2.583   3.805   4.758 -0.4187 -2.2172 -2.6722
12282TIP3   OH258260   4.650   4.580   3.733  0.0203 -0.0709  0.2038
12282TIP3    H158261   4.642   4.487   3.713  0.3709 -0.0293 -0.1481
12282TIP3    H258262   4.624   4.587   3.825  0.6452 -0.6152  0.4321
12283TIP3   OH258263   1.084   2.778  16.891  0.0706 -0.1774 -0.4326
12283TIP3    H158264   1.033   2.707  16.930 -0.2498  0.4940  0.4328
12283TIP3    H258265   1.165   2.780  16.942  0.3386 -0.2982 -0.8466
12284TIP3   OH258266   5.603   2.629   1.250  0.4139  0.1658  0.1082
12284TIP3    H158267   5.553   2.549   1.234  0.2510  0.4618 -1.0177
12284TIP3    H258268   5.582   2.653   1.340 -0.2103 -0.5918  0.1793
12285TIP3   OH258269   0.381   4.020   3.989  0.2068  0.1381 -0.6070
12285TIP3    H158270   0.427   4.037   4.071 -1.4529  0.7648  0.2584
12285TIP3    H258271   0.420   3.939   3.956 -0.0575 -0.9716  1.5698
12286TIP3   OH258272   1.022   0.375  13.932 -0.3246 -0.0864  0.2711
12286TIP3    H158273   1.061   0.288  13.924  2.0232  0.9016  0.2399
12286TIP3    H258274   0.939   0.368  13.885 -0.8962 -2.6685  1.4604
12287TIP3   OH258275   1.415   2.329  15.223  0.0271  0.4872 -0.4452
12287TIP3    H158276   1.384   2.268  15.291  1.1415  2.0876  1.6071
12287TIP3    H258277   1.497   2.289  15.192  1.5034  1.4725  1.8815
12288TIP3   OH258278   3.756   6.620   2.563  0.0751  0.1929 -0.8300
12288TIP3    H158279   3.713   6.610   2.478 -1.3697  2.0539 -0.3806
12288TIP3    H258280   3.833   6.674   2.544  1.3890 -1.7409 -1.3536
12289TIP3   OH258281   6.665   1.697   2.547 -0.5771  0.1277  0.1713
12289TIP3    H158282   6.727   1.765   2.523 -0.5799  0.1855  0.3298
12289TIP3    H258283   6.654   1.705   2.642  1.8173 -2.0962  0.7572
12290TIP3   OH258284   4.955   1.121   3.596  0.6273 -0.0510  0.9357
12290TIP3    H158285   4.979   1.209   3.623  2.0233  0.6149 -2.0566
12290TIP3    H258286   5.014   1.064   3.645  1.1906  0.8394  1.3144
12291TIP3   OH258287   4.424   4.398   3.484 -0.1666  0.2458 -0.3426
12291TIP3    H158288   4.517   4.382   3.503 -0.6842 -2.3299  0.3071
12291TIP3    H258289   4.426   4.472   3.423  2.1241  1.9916  1.6220
12292TIP3   OH258290   5.280   2.346   0.112 -0.2222 -0.5380 -0.1782
12292TIP3    H158291   5.366   2.370   0.145  0.2866 -1.7603 -0.5368
12292TIP3    H258292   5.219   2.371   0.181  0.6383 -1.5033  0.9812
12293TIP3   OH258293   0.428   5.975   0.152 -0.2470 -0.1507 -0.2733
12293TIP3    H158294   0.472   5.914   0.212  0.5352  0.4900 -0.1783
12293TIP3    H258295   0.463   6.061   0.176 -1.6051  0.4003 -0.1517
12294TIP3   OH258296   1.329   6.639  15.052 -0.8857 -0.0096  0.1729
12294TIP3    H158297   1.333   6.728  15.016  1.8456  0.1571  0.6842
12294TIP3    H258298   1.325   6.651  15.147  0.3086 -0.3958  0.2884
12295TIP3   OH258299   3.373   0.658   1.324 -0.7121  0.4476  0.1284
12295TIP3    H158300   3.375   0.688   1.416  0.4509  0.6621  0.0441
12295TIP3    H258301   3.295   0.701   1.288 -0.8032  0.9118  0.8350
12296TIP3   OH258302   2.690   6.546  10.885  0.3912 -0.1542 -0.4576
12296TIP3    H158303   2.716   6.471  10.939 -0.7917 -0.7737 -0.7091
12296TIP3    H258304   2.725   6.526  10.798 -0.8840 -0.9928 -0.8003
12297TIP3   OH258305   2.452   6.426   2.192 -0.3313  0.2611 -0.1104
12297TIP3    H158306   2.510   6.354   2.217 -0.8422 -0.4521 -0.9152
12297TIP3    H258307   2.510   6.492   2.157  0.0063 -0.4959 -1.0229
12298TIP3   OH258308   1.882   5.878  12.907 -0.2834  0.3748  0.0310
12298TIP3    H158309   1.895   5.830  12.825 -1.8524  0.5482 -0.3533
12298TIP3    H258310   1.864   5.810  12.972  1.4526  0.1995  0.3762
12299TIP3   OH258311   0.256   6.527   5.333 -0.5508  0.1745  0.1304
12299TIP3    H158312   0.161   6.534   5.341 -0.9004 -2.7909 -0.1129
12299TIP3    H258313   0.276   6.438   5.362  2.2598  0.9055  0.7413
12300TIP3   OH258314   0.377   1.177  14.276  0.1460  0.2505  0.5062
12300TIP3    H158315   0.330   1.113  14.223  0.6123 -0.5101  0.9856
12300TIP3    H258316   0.309   1.223  14.324 -0.2606  0.7390 -0.5109
12301TIP3   OH258317   4.475   3.659  15.196  0.1695 -0.1901 -0.2052
12301TIP3    H158318   4.385   3.660  15.165 -0.3393  0.7907  1.1990
12301TIP3    H258319   4.500   3.566  15.192 -1.3802 -0.6837  0.6654
12302TIP3   OH258320   5.762   0.432  12.274 -0.1830 -0.5971 -0.1044
12302TIP3    H158321   5.841   0.473  12.309 -1.3785  0.8917  1.0220
12302TIP3    H258322   5.718   0.396  12.352 -0.2173 -2.1951 -0.8203
12303TIP3   OH258323   4.017   1.094   0.413  0.0938 -0.1360  0.1873
12303TIP3    H158324   3.954   1.027   0.387  1.1257 -1.2174  0.3639
12303TIP3    H258325   4.003   1.166   0.351 -0.4564 -0.8723 -0.5596
12304TIP3   OH258326   5.005   5.792   5.761 -0.3517  0.2460 -0.0425
12304TIP3    H158327   4.956   5.834   5.690  2.1482  1.6077 -1.1176
12304TIP3    H258328   4.972   5.833   5.841 -1.0731  0.9888 -0.7038
12305TIP3   OH258329   5.616   5.236  14.913 -0.7900  0.0754 -0.0330
12305TIP3    H158330   5.557   5.306  14.885 -0.8460  0.5560  1.2072
12305TIP3    H258331   5.628   5.181  14.835 -1.5094  0.9252 -0.7601
12306TIP3   OH258332   1.463   3.287  14.748  0.4832  0.1401 -0.1777
12306TIP3    H158333   1.559   3.293  14.746  0.4958  0.4598 -2.7243
12306TIP3    H258334   1.434   3.352  14.683 -1.5353  0.7500  1.2464
12307TIP3   OH258335   6.542   0.390   1.418  0.3237 -0.9406 -0.4715
12307TIP3    H158336   6.517   0.374   1.326  0.7935 -2.9790 -0.2983
12307TIP3    H258337   6.488   0.329   1.468  1.9564 -1.7719  0.3476
12308TIP3   OH258338   5.829   3.853  13.365 -0.1879  0.0854  0.3475
12308TIP3    H158339   5.879   3.887  13.440 -0.9809 -0.0409  0.9463
12308TIP3    H258340   5.745   3.898  13.370  0.7456  2.3996 -2.2540
12309TIP3   OH258341   3.671   4.139  15.505  0.5229 -0.8539  0.0143
12309TIP3    H158342   3.623   4.172  15.581 -0.0871 -1.3032 -0.1721
12309TIP3    H258343   3.718   4.215  15.471  1.6382 -0.8562  1.4489
12310TIP3   OH258344   1.998   2.878  12.827 -0.0050  0.0951 -0.9103
12310TIP3    H158345   1.974   2.947  12.888 -0.1532 -0.8028  0.0726
12310TIP3    H258346   2.094   2.875  12.830  0.0534  0.9112 -1.7067
12311TIP3   OH258347   4.511   2.806  12.435 -0.5110 -0.2361 -0.2010
12311TIP3    H158348   4.419   2.811  12.407 -0.0984 -0.3615 -1.6460
12311TIP3    H258349   4.559   2.855  12.369  0.3648  0.9050  1.2115
12312TIP3   OH258350   2.812   5.343   2.847 -0.2767 -0.1903 -0.4303
12312TIP3    H158351   2.896   5.359   2.889 -0.0593  1.8791 -1.5060
12312TIP3    H258352   2.775   5.430   2.834 -0.2497 -0.5796 -4.5488
12313TIP3   OH258353   4.411   5.596  15.893 -0.5621  0.0913 -0.1763
12313TIP3    H158354   4.375   5.508  15.883  0.3530 -0.4419  0.9673
12313TIP3    H258355   4.493   5.593  15.843 -0.5299  0.3033 -0.1359
12314TIP3   OH258356   3.772   4.593   1.233 -0.6624  0.0705  0.2010
12314TIP3    H158357   3.717   4.671   1.223 -1.8303 -0.8251 -0.6923
12314TIP3    H258358   3.721   4.535   1.289 -0.3104 -0.4996 -0.0663
12315TIP3   OH258359   4.448   2.688  14.718 -0.2612  0.3289 -0.3001
12315TIP3    H158360   4.421   2.596  14.715 -0.0162  0.2296  0.4770
12315TIP3    H258361   4.393   2.727  14.786 -0.5831  0.8394 -0.8401
12316TIP3   OH258362   1.922   0.870  13.202  0.0336 -0.0664 -0.3244
12316TIP3    H158363   1.990   0.936  13.186  1.2230 -1.3972 -0.9175
12316TIP3    H258364   1.944   0.798  13.143 -2.1109 -0.4016 -0.7904
12317TIP3   OH258365   1.638   3.113  11.974 -0.9247  0.1525 -0.0911
12317TIP3    H158366   1.554   3.128  11.931 -1.7793 -3.9339 -0.2025
12317TIP3    H258367   1.618   3.059  12.050  1.5947 -1.7180 -0.6126
12318TIP3   OH258368   2.633   3.048   1.283 -0.1346 -0.2020  0.2980
12318TIP3    H158369   2.640   2.967   1.233 -1.1486 -2.1717  3.0928
12318TIP3    H258370   2.573   3.103   1.233 -0.0792 -1.4854 -1.2509
12319TIP3   OH258371   5.973   5.370  14.044 -0.2751  0.2502 -0.1365
12319TIP3    H158372   6.059   5.359  14.086 -0.5143 -0.2661  0.2221
12319TIP3    H258373   5.972   5.306  13.974 -0.3742  0.2524 -0.1371
12320TIP3   OH258374   4.960   4.513   2.992 -0.6511 -0.0213  0.2899
12320TIP3    H158375   5.028   4.555   3.045 -1.1116 -0.5710  1.3351
12320TIP3    H258376   4.899   4.584   2.972 -0.3568  0.2368  0.2876
12321TIP3   OH258377   0.939   6.731   0.649 -0.5112 -0.3448  0.0143
12321TIP3    H158378   0.916   6.658   0.707 -2.0715  0.3885  0.3598
12321TIP3    H258379   0.859   6.783   0.643  0.6990  1.6295  0.1652
12322TIP3   OH258380   1.891   2.866   6.206  0.7060 -0.3724 -0.1084
12322TIP3    H158381   1.945   2.797   6.168 -0.3896 -0.8014 -0.9311
12322TIP3    H258382   1.801   2.834   6.199  0.2772  0.5608  0.7281
12323TIP3   OH258383   6.145   5.108   0.286  0.1296  0.1448 -0.0801
12323TIP3    H158384   6.176   5.196   0.266 -0.5902  0.9277  2.0100
12323TIP3    H258385   6.074   5.120   0.348 -1.1797 -1.8566 -1.0554
12324TIP3   OH258386   6.684   2.891   0.423  0.0707 -0.8420  0.1671
12324TIP3    H158387   6.711   2.810   0.379 -0.0591 -0.0389 -1.4642
12324TIP3    H258388   6.732   2.960   0.378 -2.6990  0.3869 -1.1570
12325TIP3   OH258389   1.062   0.118  14.231  0.6931  0.2555  0.4110
12325TIP3    H158390   1.154   0.117  14.204  0.8333 -1.8757  0.8497
12325TIP3    H258391   1.065   0.133  14.325  0.4681  1.6746  0.2292
12326TIP3   OH258392   6.524   4.751  16.019 -0.1204 -0.2311 -0.0373
12326TIP3    H158393   6.527   4.751  15.924  0.5376 -1.4906 -0.0471
12326TIP3    H258394   6.432   4.740  16.041 -0.4399  1.3765 -0.4918
12327TIP3   OH258395   0.793   4.521   0.747 -0.7323  0.4250 -0.6779
12327TIP3    H158396   0.724   4.538   0.811 -0.5712  1.4000 -0.7501
12327TIP3    H258397   0.846   4.452   0.788 -1.2969  0.2116 -0.2840
12328TIP3   OH258398   5.539   2.349  14.615 -0.0676 -0.4993 -0.4954
12328TIP3    H158399   5.516   2.324  14.704  1.1279 -0.2123 -0.0834
12328TIP3    H258400   5.539   2.267  14.565 -1.5431 -0.5537 -0.4377
12329TIP3   OH258401   0.587   2.942   4.345 -0.4115  0.1465 -0.3000
12329TIP3    H158402   0.533   2.867   4.318 -2.6605  1.5878 -0.0786
12329TIP3    H258403   0.541   2.978   4.420  0.6484  1.7511 -0.3831
12330TIP3   OH258404   2.432   1.866   3.534 -0.0615  0.0895  0.5742
12330TIP3    H158405   2.433   1.929   3.462  2.6204 -0.4520 -0.0053
12330TIP3    H258406   2.362   1.805   3.512 -0.2574  0.7691 -0.8141
12331TIP3   OH258407   5.803   4.316   3.919 -0.1673  0.8769  0.6193
12331TIP3    H158408   5.715   4.345   3.892 -0.3133 -1.4028 -1.7944
12331TIP3    H258409   5.787   4.257   3.992 -1.2354 -2.5538 -2.1379
12332TIP3   OH258410   2.462   0.040   3.251 -0.9688 -0.0597 -0.1807
12332TIP3    H158411   2.444  -0.054   3.252  0.5772 -0.3833 -0.2735
12332TIP3    H258412   2.423   0.072   3.170 -1.4834 -0.6278 -0.1588
12333TIP3   OH258413   6.760   5.762  12.826  0.5187 -0.6860  0.2202
12333TIP3    H158414   6.778   5.687  12.884 -0.0169 -1.6784 -0.8547
12333TIP3    H258415   6.721   5.828  12.883 -1.0862 -2.0792  0.8070
12334TIP3   OH258416   6.151   4.098   0.533  0.1324  0.3170  0.0792
12334TIP3    H158417   6.065   4.139   0.533  0.1969  0.4672  0.9471
12334TIP3    H258418   6.136   4.009   0.503 -0.1077  0.7528 -1.1723
12335TIP3   OH258419   2.548   1.647  11.473  0.2099 -0.3220 -0.1771
12335TIP3    H158420   2.625   1.701  11.490  1.4495 -2.2937  0.9120
12335TIP3    H258421   2.523   1.614  11.559  0.1691 -2.2976 -0.8923
12336TIP3   OH258422   5.488   5.471  16.880  0.0973 -0.3515 -0.0148
12336TIP3    H158423   5.464   5.560  16.855 -2.6149 -1.2503 -0.9763
12336TIP3    H258424   5.444   5.456  16.963  0.9698 -0.6698  0.4083
12337TIP3   OH258425   0.837   2.078   3.276 -0.5968 -0.0146 -0.4130
12337TIP3    H158426   0.845   2.165   3.237  0.4147  1.1938  2.2344
12337TIP3    H258427   0.744   2.070   3.297 -0.7157  0.3838 -0.7830
12338TIP3   OH258428   6.200   2.943   2.226  0.6241  0.6882 -0.1415
12338TIP3    H158429   6.164   2.933   2.138  0.4074 -1.1930  0.1063
12338TIP3    H258430   6.137   2.998   2.272 -0.7166 -0.5324 -0.4246
12339TIP3   OH258431   3.500   4.539  16.302 -0.4458 -0.2815 -0.7920
12339TIP3    H158432   3.536   4.473  16.241  1.4226  0.1871 -0.2582
12339TIP3    H258433   3.563   4.542  16.374 -2.0714 -0.0587  0.6922
12340TIP3   OH258434   4.142   6.708   5.166 -0.5735  0.3946 -0.0179
12340TIP3    H158435   4.191   6.634   5.129 -0.5380  0.8254 -0.8584
12340TIP3    H258436   4.114   6.677   5.252  1.0597  0.0731  0.4471
12341TIP3   OH258437   6.510   5.670  14.330  0.0041  0.1087 -0.1916
12341TIP3    H158438   6.547   5.646  14.245 -0.0598  2.1422 -0.8550
12341TIP3    H258439   6.576   5.642  14.394 -0.2945 -2.1634 -0.7890
12342TIP3   OH258440   0.875   3.780  12.511 -0.2764 -0.4094 -0.3679
12342TIP3    H158441   0.833   3.694  12.504 -0.8578 -0.1594 -0.0257
12342TIP3    H258442   0.897   3.788  12.604  2.3274 -1.3551 -0.8114
12343TIP3   OH258443   6.270   1.235   0.167 -0.3847 -0.1084  0.2579
12343TIP3    H158444   6.349   1.197   0.205  0.4851  0.6680 -0.7546
12343TIP3    H258445   6.289   1.246   0.074 -0.9195  1.9662  0.3377
12344TIP3   OH258446   6.516   1.075  13.429 -0.3290 -0.0004  0.1657
12344TIP3    H158447   6.608   1.097  13.414 -0.2665 -0.2663  0.1490
12344TIP3    H258448   6.516   1.034  13.516 -0.8750  2.7130  1.5483
12345TIP3   OH258449   1.956   0.744   1.496  0.0203 -0.0140 -0.2535
12345TIP3    H158450   2.009   0.750   1.576 -0.3769 -0.0139  0.0129
12345TIP3    H258451   1.958   0.651   1.473  1.6349  0.2420 -1.2783
12346TIP3   OH258452   5.165   4.452  13.983  0.3111  0.2740  0.4975
12346TIP3    H158453   5.090   4.512  13.990 -0.1172 -0.2833  0.7639
12346TIP3    H258454   5.135   4.371  14.025  1.0177 -0.0021  0.4817
12347TIP3   OH258455   0.329   1.999  11.894 -0.0328  0.3015 -0.6254
12347TIP3    H158456   0.418   2.035  11.903 -0.2135  0.3128  1.3444
12347TIP3    H258457   0.338   1.907  11.917 -0.7431  0.6026  1.0039
12348TIP3   OH258458   0.508   0.424   3.784  0.2846  0.2100  0.4897
12348TIP3    H158459   0.574   0.483   3.747  1.0840 -0.2631  1.1276
12348TIP3    H258460   0.547   0.337   3.779  0.1709  0.0606  1.8615
12349TIP3   OH258461   3.961   1.115   3.294  0.5211  0.3374  0.3609
12349TIP3    H158462   3.919   1.041   3.337  2.7483 -0.8538  0.6634
12349TIP3    H258463   3.952   1.187   3.356 -3.4761  1.0748 -0.7826
12350TIP3   OH258464   6.427   3.743   5.009  0.2454  0.1511  0.2077
12350TIP3    H158465   6.395   3.795   5.082 -1.3051 -0.9353  0.3447
12350TIP3    H258466   6.475   3.805   4.954 -0.5859  1.4676  0.9258
12351TIP3   OH258467   2.265   0.333  16.558 -0.2631  0.3130 -0.8781
12351TIP3    H158468   2.273   0.429  16.562  0.5211  0.2126  1.1619
12351TIP3    H258469   2.312   0.302  16.635  1.2099 -1.8535 -2.5135
12352TIP3   OH258470   1.780   5.248   2.987  0.3337 -0.2070  0.6329
12352TIP3    H158471   1.745   5.247   3.076  0.6340 -1.7890  0.7480
12352TIP3    H258472   1.838   5.172   2.983  1.3680  0.6067 -0.5115
12353TIP3   OH258473   5.885   2.942   2.750  0.0511 -0.7554 -0.2893
12353TIP3    H158474   5.862   3.032   2.773 -0.1243 -1.0795  0.8738
12353TIP3    H258475   5.980   2.938   2.761  0.2084 -0.4183 -1.4464
12354TIP3   OH258476   6.309   5.785   0.559 -0.1435 -0.4765 -0.1551
12354TIP3    H158477   6.339   5.865   0.515 -0.7089 -1.0140 -1.5817
12354TIP3    H258478   6.269   5.815   0.640  0.7588  0.5726 -0.0747
12355TIP3   OH258479   5.410   6.108  12.661  0.2204 -0.4636 -0.0546
12355TIP3    H158480   5.471   6.113  12.588  0.1617  0.1561 -0.0701
12355TIP3    H258481   5.355   6.032  12.641  0.1767 -0.2776 -0.6797
12356TIP3   OH258482   3.991   1.420  11.737  0.5499  0.2489  0.6671
12356TIP3    H158483   3.982   1.327  11.716 -0.4018  0.5708 -0.4199
12356TIP3    H258484   4.002   1.463  11.653 -1.7077  1.4000  0.8920
12357TIP3   OH258485   3.527   0.708  11.434  0.4971 -0.1810 -0.3168
12357TIP3    H158486   3.457   0.771  11.450  0.0423 -1.0424  1.3037
12357TIP3    H258487   3.592   0.727  11.501  0.9880 -0.5720 -0.6716
12358TIP3   OH258488   0.645   2.863  12.730 -0.1286 -0.4852 -0.2119
12358TIP3    H158489   0.662   2.954  12.756 -1.3981 -0.2493 -0.1217
12358TIP3    H258490   0.729   2.830  12.700  1.0951 -0.2673  2.6638
12359TIP3   OH258491   2.693   3.349  17.201  0.0520  0.3942 -0.0328
12359TIP3    H158492   2.696   3.257  17.176  0.5026  0.2848  0.4066
12359TIP3    H258493   2.667   3.395  17.121  0.8377 -0.0121 -0.5386
12360TIP3   OH258494   1.145   3.641   3.999 -0.0266  0.0036  0.1607
12360TIP3    H158495   1.091   3.669   3.926  0.4390  1.1248  0.2325
12360TIP3    H258496   1.198   3.569   3.964 -0.4896 -0.1114 -0.3171
12361TIP3   OH258497   4.671   2.570  14.012 -0.1438 -0.3634 -0.0895
12361TIP3    H158498   4.662   2.554  13.918 -1.1332 -0.8773  0.0756
12361TIP3    H258499   4.759   2.540  14.033  0.3439  0.4035 -0.9761
12362TIP3   OH258500   3.062   0.172  14.682  0.5509  0.0767 -0.4016
12362TIP3    H158501   3.139   0.199  14.632  1.1820  1.0314  0.9949
12362TIP3    H258502   3.066   0.225  14.762 -0.2180 -1.6079  0.8129
12363TIP3   OH258503   3.784   0.378  12.135  0.0147  0.3318 -0.0502
12363TIP3    H158504   3.699   0.383  12.178  0.1545  2.3270  0.1038
12363TIP3    H258505   3.843   0.425  12.193  1.3381 -1.2856  0.0006
12364TIP3   OH258506   3.696   3.369   1.098  0.2098 -0.1070  0.1327
12364TIP3    H158507   3.675   3.453   1.139 -0.6142  0.2614 -0.9797
12364TIP3    H258508   3.787   3.351   1.124 -0.3303 -0.0225  2.2508
12365TIP3   OH258509   5.256   6.705   4.706 -0.5311 -0.1691  0.4607
12365TIP3    H158510   5.272   6.795   4.736  0.6226 -0.4203  0.6445
12365TIP3    H258511   5.333   6.657   4.734 -1.4383 -1.3832  0.9809
12366TIP3   OH258512   0.420   2.015   4.251  0.2258  0.5755 -0.0514
12366TIP3    H158513   0.391   2.107   4.257 -0.4349  0.3314  0.8161
12366TIP3    H258514   0.338   1.965   4.247  0.5878  0.0355 -0.7445
12367TIP3   OH258515   0.645   4.399   1.282 -0.0578  0.1141 -0.1436
12367TIP3    H158516   0.601   4.403   1.367  0.9734  0.0540  0.4104
12367TIP3    H258517   0.679   4.488   1.269 -1.4631  0.5427 -1.2099
12368TIP3   OH258518   5.878   2.713   0.160  0.0279  0.0884 -0.3686
12368TIP3    H158519   5.945   2.709   0.227 -1.3651  1.3530  1.1720
12368TIP3    H258520   5.890   2.632   0.109  1.1270 -0.8976  1.3752
12369TIP3   OH258521   1.345   0.527  11.636 -0.0644  0.5208 -0.1247
12369TIP3    H158522   1.319   0.602  11.583  2.0026  1.0468 -0.5008
12369TIP3    H258523   1.309   0.545  11.723 -2.3439  0.3072 -0.9575
12370TIP3   OH258524   6.574   1.360  12.540 -0.3409 -0.2868 -0.4620
12370TIP3    H158525   6.666   1.348  12.516 -0.4969 -0.8131 -0.8198
12370TIP3    H258526   6.544   1.433  12.486  0.1448  0.6122  0.4389
12371TIP3   OH258527   4.887   0.675   0.539  0.2827  0.6518  0.1156
12371TIP3    H158528   4.894   0.586   0.506  0.2280  0.6975 -0.0219
12371TIP3    H258529   4.972   0.693   0.580 -0.1394  0.0809  1.2944
12372TIP3   OH258530   2.120   1.132  10.994 -0.1630  0.7889 -0.5009
12372TIP3    H158531   2.033   1.096  10.980  0.9512 -1.2732 -2.7788
12372TIP3    H258532   2.151   1.156  10.906  1.8809  0.7073  0.1401
12373TIP3   OH258533   3.021   4.401   1.174 -0.8487 -0.0345 -0.4306
12373TIP3    H158534   3.109   4.366   1.187 -0.2247  1.3236 -0.8146
12373TIP3    H258535   3.034   4.495   1.164 -2.3723  0.2132 -0.3106
12374TIP3   OH258536   2.367   5.891  17.183 -0.2042 -0.0894 -0.3456
12374TIP3    H158537   2.338   5.975  17.217  1.4367  0.1654  0.5127
12374TIP3    H258538   2.394   5.909  17.093 -1.0186  0.0287 -0.5704
12375TIP3   OH258539   5.467   6.072  14.953 -0.5726 -0.3314 -0.1324
12375TIP3    H158540   5.417   6.133  15.008  0.0532 -1.2506  1.5101
12375TIP3    H258541   5.531   6.127  14.909 -0.2907  0.2821  1.0078
12376TIP3   OH258542   3.136   3.665   4.787  0.0990  0.0033 -0.5444
12376TIP3    H158543   3.192   3.643   4.713 -1.5677 -1.6499 -1.3875
12376TIP3    H258544   3.064   3.715   4.750  0.7175  1.7551  0.4718
12377TIP3   OH258545   1.471   3.881  15.310  0.0781  0.1352  0.0186
12377TIP3    H158546   1.433   3.959  15.352 -0.0163 -0.2658  0.6941
12377TIP3    H258547   1.563   3.904  15.297 -0.1213  0.6626 -0.5348
12378TIP3   OH258548   1.923   2.285  16.766  0.4526  0.2975 -0.4732
12378TIP3    H158549   1.844   2.233  16.786  0.8389 -0.5983 -1.2072
12378TIP3    H258550   1.900   2.333  16.686  1.6620 -2.4298 -2.6561
12379TIP3   OH258551   1.501   1.887   0.114  0.0332  0.1071  0.3183
12379TIP3    H158552   1.463   1.934   0.039  1.1499  1.2956  0.4685
12379TIP3    H258553   1.468   1.933   0.190  1.4784  0.9593  0.4592
12380TIP3   OH258554   4.423   4.960  14.152  0.1368 -0.2212  0.0817
12380TIP3    H158555   4.405   4.980  14.244 -0.1531  0.6496 -0.1484
12380TIP3    H258556   4.513   4.989  14.139 -0.2355  0.8722 -0.2143
12381TIP3   OH258557   6.269   4.738  16.066  0.2582  0.6946  0.2704
12381TIP3    H158558   6.218   4.759  15.988  0.4435  1.7678  0.4248
12381TIP3    H258559   6.232   4.655  16.097 -2.7532  2.3463  1.4992
12382TIP3   OH258560   0.637   0.146  15.916 -0.5793  0.4131 -0.1995
12382TIP3    H158561   0.562   0.168  15.860 -0.2368  0.9075 -0.4808
12382TIP3    H258562   0.659   0.056  15.892 -0.3217  0.6778 -1.0148
12383TIP3   OH258563   2.387   1.493  16.365  0.0682  0.2828 -0.4509
12383TIP3    H158564   2.360   1.403  16.347  1.3767 -0.2566  0.1388
12383TIP3    H258565   2.432   1.489  16.449  0.7874  1.3525 -0.7526
12384TIP3   OH258566   5.608   1.621  13.074  0.4436 -0.1585 -0.7592
12384TIP3    H158567   5.532   1.662  13.117 -0.5826  0.1781 -2.7578
12384TIP3    H258568   5.664   1.694  13.049  1.4353 -0.4041  0.6546
12385TIP3   OH258569   0.586   3.482   2.435 -0.3485 -0.0200 -0.2578
12385TIP3    H158570   0.585   3.389   2.461 -1.6256 -0.4003 -1.5375
12385TIP3    H258571   0.677   3.499   2.412  0.0747 -0.7089  0.7929
12386TIP3   OH258572   2.173   1.902  15.224 -0.0860  0.2438 -0.1727
12386TIP3    H158573   2.096   1.896  15.168  0.5800  0.1908 -1.1178
12386TIP3    H258574   2.225   1.973  15.185  0.4324  0.1482  0.3308
12387TIP3   OH258575   4.680   0.513  12.414 -0.2603 -0.4172  1.0441
12387TIP3    H158576   4.590   0.481  12.413 -0.0678 -0.9797 -0.6217
12387TIP3    H258577   4.684   0.579  12.345  0.4368  0.1355  1.5912
12388TIP3   OH258578   5.729   2.306  14.066  0.0738 -0.1017  0.5774
12388TIP3    H158579   5.783   2.371  14.111 -1.5333 -0.2234  2.8964
12388TIP3    H258580   5.645   2.349  14.053 -0.1280 -0.7845 -0.5078
12389TIP3   OH258581   4.190   2.455   6.353  0.0223 -0.0937 -0.4430
12389TIP3    H158582   4.166   2.540   6.317  1.8645  0.3100 -0.8456
12389TIP3    H258583   4.109   2.420   6.390 -0.3101  2.9367  2.0823
12390TIP3   OH258584   5.491   4.351   5.271  0.0013  0.2417  0.4787
12390TIP3    H158585   5.436   4.346   5.349 -0.8104  0.2723 -0.0847
12390TIP3    H258586   5.462   4.430   5.226 -0.6635 -0.6227 -0.6786
12391TIP3   OH258587   1.690   4.312   4.636  0.1859  0.0261  0.7363
12391TIP3    H158588   1.657   4.225   4.612  0.6750  0.6127 -2.5013
12391TIP3    H258589   1.617   4.353   4.682 -1.4741 -0.8191 -0.9876
12392TIP3   OH258590   4.674   2.466  16.677 -0.2834  0.4083  0.2990
12392TIP3    H158591   4.691   2.554  16.645 -0.5433  0.7417  1.0364
12392TIP3    H258592   4.759   2.422  16.674  0.2668  1.3028  1.7370
12393TIP3   OH258593   4.445   3.629  14.374 -0.0632 -0.2828 -0.0866
12393TIP3    H158594   4.496   3.601  14.450 -0.5932  1.7947  1.1130
12393TIP3    H258595   4.368   3.571  14.374  0.3293 -0.8168  0.4664
12394TIP3   OH258596   6.345   3.415   1.511  0.0279  0.3158  0.2986
12394TIP3    H158597   6.350   3.373   1.597  0.0741  0.0825  0.1824
12394TIP3    H258598   6.399   3.360   1.455 -1.9439 -0.9380 -0.4564
12395TIP3   OH258599   2.005   4.839  16.881 -0.3437 -0.3215  0.1293
12395TIP3    H158600   2.051   4.780  16.940 -0.5617  0.3261  0.9625
12395TIP3    H258601   2.045   4.823  16.795  0.5977 -0.6298  0.6121
12396TIP3   OH258602   1.251   0.504  13.320  0.2892  0.3250  0.2239
12396TIP3    H158603   1.306   0.430  13.347  1.8865 -0.1303 -3.6621
12396TIP3    H258604   1.174   0.463  13.282 -1.5458  0.9232  3.0308
12397TIP3   OH258605   4.915   3.692  15.497  0.1834  0.1169  0.8312
12397TIP3    H158606   4.892   3.770  15.446  0.4766 -1.3919 -1.8001
12397TIP3    H258607   5.010   3.687  15.491  0.0444 -1.4500 -0.7390
12398TIP3   OH258608   1.937   0.889   4.028  0.3752 -0.0987  0.2216
12398TIP3    H158609   1.950   0.840   4.109  1.3359 -1.3664 -0.6685
12398TIP3    H258610   1.935   0.823   3.960 -0.1338  0.9769 -0.8447
12399TIP3   OH258611   1.636   1.500  14.542 -0.1687 -0.1032 -0.2493
12399TIP3    H158612   1.629   1.588  14.506 -3.3847  0.1773  0.7679
12399TIP3    H258613   1.656   1.514  14.635  3.1961 -0.6811 -0.7570
12400TIP3   OH258614   5.966   4.714  12.037  0.5093 -0.1390 -0.1185
12400TIP3    H158615   5.981   4.731  12.130 -1.0291  1.3133 -0.0895
12400TIP3    H258616   5.916   4.790  12.006 -1.1325 -1.7003 -1.5523
12401TIP3   OH258617   0.906   4.438   4.151 -0.3434 -0.2739 -0.6245
12401TIP3    H158618   0.877   4.423   4.061 -1.1739  0.8853 -0.5557
12401TIP3    H258619   0.866   4.367   4.201 -3.0569  1.1761 -0.5525
12402TIP3   OH258620   4.183   3.244   0.861 -0.2532  0.2447 -0.1638
12402TIP3    H158621   4.269   3.281   0.841 -0.6185  1.3849  0.3108
12402TIP3    H258622   4.175   3.168   0.802  0.5646  0.8491 -1.0769
12403TIP3   OH258623   4.901   5.518  11.990 -0.1055  0.2603 -0.3143
12403TIP3    H158624   4.975   5.470  12.027  0.0686  0.8856  0.1814
12403TIP3    H258625   4.874   5.466  11.915 -0.6540 -1.2175  0.8474
12404TIP3   OH258626   0.525   2.475  15.480  0.9478  1.1235  0.0765
12404TIP3    H158627   0.554   2.436  15.397  0.3061  2.1571 -0.6713
12404TIP3    H258628   0.537   2.569  15.467 -0.1824  1.3793  0.7352
12405TIP3   OH258629   5.683   0.203   2.113  0.4312  0.5643  0.2843
12405TIP3    H158630   5.765   0.192   2.065  1.0575 -0.8764  1.6065
12405TIP3    H258631   5.708   0.195   2.205 -1.4572 -2.1267  0.6743
12406TIP3   OH258632   1.146   5.066  15.354  0.2696  0.4055  0.0317
12406TIP3    H158633   1.071   5.030  15.306 -0.6638  0.6491  1.2595
12406TIP3    H258634   1.222   5.017  15.321 -0.3580  0.4547 -1.5402
12407TIP3   OH258635   0.364   2.081   5.605 -0.3328  0.0649  0.1544
12407TIP3    H158636   0.295   2.019   5.630  0.1744 -0.4669  0.2448
12407TIP3    H258637   0.433   2.026   5.568  0.1052  0.5825  0.1961
12408TIP3   OH258638   4.375   2.753  13.817  0.2113 -0.0805  0.0358
12408TIP3    H158639   4.364   2.832  13.869 -0.0725 -2.2867  3.6328
12408TIP3    H258640   4.290   2.710  13.820  0.3386 -0.5625 -1.9134
12409TIP3   OH258641   5.831   4.416   4.426 -0.0189  0.5257  0.5514
12409TIP3    H158642   5.804   4.337   4.472 -2.1642 -0.4470 -2.1253
12409TIP3    H258643   5.926   4.407   4.416  0.1960 -0.2484  2.6898
12410TIP3   OH258644   1.964   0.966   5.782 -0.4583 -0.6465 -0.3031
12410TIP3    H158645   2.010   1.008   5.855  1.0575 -0.6842 -1.1872
12410TIP3    H258646   1.969   0.872   5.802  2.3038 -0.8959 -1.6427
12411TIP3   OH258647   5.540   6.651  13.732  0.4421  0.5794 -0.7011
12411TIP3    H158648   5.557   6.703  13.811  1.6120  0.4800 -0.8788
12411TIP3    H258649   5.613   6.669  13.674 -0.4381  0.6965 -1.8097
12412TIP3   OH258650   4.753   5.491   4.390 -0.3229  0.4661  0.1976
12412TIP3    H158651   4.742   5.417   4.330  2.2290 -0.1425  0.3648
12412TIP3    H258652   4.763   5.450   4.476 -0.5951  1.1264  0.5447
12413TIP3   OH258653   5.613   3.074   5.106 -0.0541 -0.0766 -0.2037
12413TIP3    H158654   5.546   3.127   5.063 -0.1974 -0.3813 -0.3542
12413TIP3    H258655   5.696   3.109   5.072 -0.1208  0.4466  0.1489
12414TIP3   OH258656   3.163   4.917   3.518 -0.1529  0.2158  0.5456
12414TIP3    H158657   3.126   4.867   3.591 -1.7851  0.4820 -0.0602
12414TIP3    H258658   3.254   4.886   3.512 -0.7763 -1.8559  0.9103
12415TIP3   OH258659   3.981   5.074   3.628  0.1598  0.0738  0.0927
12415TIP3    H158660   4.050   5.140   3.638 -2.0720  2.2250  2.9259
12415TIP3    H258661   3.997   5.011   3.699  0.8404 -1.1660 -1.0951
12416TIP3   OH258662   4.342   3.964   3.226  0.4203  1.0225  0.1966
12416TIP3    H158663   4.263   3.925   3.263 -0.0967  0.5997 -1.3052
12416TIP3    H258664   4.385   4.005   3.301 -1.4939  1.7507  0.9544
12417TIP3   OH258665   5.624   3.188  10.482 -0.8008  0.2723 -0.3842
12417TIP3    H158666   5.633   3.281  10.505  2.2162 -0.1894  0.8105
12417TIP3    H258667   5.663   3.181  10.395  0.9785 -0.1224  0.3957
12418TIP3   OH258668   2.297   3.819  12.955  0.3096 -0.2481 -0.0716
12418TIP3    H158669   2.258   3.805  12.869 -1.5162  1.5198  0.3848
12418TIP3    H258670   2.283   3.737  13.002 -0.5071 -0.5439 -0.8068
12419TIP3   OH258671   3.782   3.024  11.717  0.3481  0.7329 -0.0907
12419TIP3    H158672   3.812   2.975  11.640  1.1201  1.9380 -0.5765
12419TIP3    H258673   3.704   2.976  11.746 -0.0659  0.3456 -1.7156
12420TIP3   OH258674   2.142   1.842  10.398 -0.2257 -0.1708 -0.5076
12420TIP3    H158675   2.076   1.802  10.455  1.7941 -0.9798  1.4183
12420TIP3    H258676   2.153   1.781  10.325 -0.8013 -0.5824 -0.2530
12421TIP3   OH258677   6.184   0.292   5.383  0.1578 -0.4931  0.1171
12421TIP3    H158678   6.102   0.337   5.362  0.3730 -0.6388 -1.1624
12421TIP3    H258679   6.183   0.214   5.327  1.1127 -0.5627  0.1768
12422TIP3   OH258680   6.338   2.662   1.368  0.4942 -0.2305  0.1189
12422TIP3    H158681   6.352   2.627   1.280  1.8296 -1.8564  0.9179
12422TIP3    H258682   6.273   2.605   1.407  0.2733  0.1791  0.3603
12423TIP3   OH258683   6.532   0.760  17.290  0.5997 -0.2632  0.4255
12423TIP3    H158684   6.533   0.825  17.360  0.7001 -0.4780  0.6226
12423TIP3    H258685   6.481   0.801  17.220  0.9178  0.1529  0.4310
12424TIP3   OH258686   5.643   4.239  13.308  0.2033 -0.4052 -0.5530
12424TIP3    H158687   5.561   4.286  13.325  0.0594 -0.6736 -0.4968
12424TIP3    H258688   5.712   4.304  13.325 -0.0055 -0.0870 -0.9081
12425TIP3   OH258689   3.305   5.904   0.170  0.1236 -0.2134  0.2460
12425TIP3    H158690   3.335   5.813   0.168  1.8385  0.2694  1.3772
12425TIP3    H258691   3.310   5.933   0.078 -0.2366 -1.1819 -0.0904
12426TIP3   OH258692   1.595   2.545  13.871 -0.2085  0.3756 -0.3219
12426TIP3    H158693   1.539   2.559  13.795  0.1479  1.0863 -0.4742
12426TIP3    H258694   1.540   2.566  13.946 -0.1032  1.2904 -0.4802
12427TIP3   OH258695   5.131   0.552   1.429  0.1114  0.0528 -0.2887
12427TIP3    H158696   5.121   0.464   1.394 -1.8245 -0.3354  1.0353
12427TIP3    H258697   5.149   0.539   1.522 -0.1213  1.0320 -0.0907
12428TIP3   OH258698   2.899   3.563  16.588  0.0129  0.6258 -0.0279
12428TIP3    H158699   2.880   3.642  16.538  0.6895  0.2267 -0.9456
12428TIP3    H258700   2.868   3.492  16.532 -1.9038  0.2652  1.3849
12429TIP3   OH258701   2.094   4.963  13.497  0.1442  0.2179 -0.0716
12429TIP3    H158702   2.019   4.941  13.442 -0.1631  0.4203  0.2579
12429TIP3    H258703   2.164   4.904  13.468 -0.1683 -0.0299 -0.3252
12430TIP3   OH258704   1.078   4.845   0.598  0.0642  0.0227 -0.2725
12430TIP3    H158705   1.126   4.891   0.530  2.3491  0.7962  1.7024
12430TIP3    H258706   0.994   4.890   0.603 -0.8367 -1.0581 -3.5128
12431TIP3   OH258707   4.768   3.448  17.407 -0.4563  0.1063 -0.2504
12431TIP3    H158708   4.798   3.478  17.493 -1.8549  0.0252  0.2847
12431TIP3    H258709   4.707   3.377  17.426 -1.9610  1.0772 -1.2237
12432TIP3   OH258710   1.797   5.497   0.018 -0.1049  0.6973 -0.3881
12432TIP3    H158711   1.742   5.575   0.012  1.1197  1.6132 -0.2413
12432TIP3    H258712   1.874   5.517  -0.035 -1.2495 -1.8129 -3.2787
12433TIP3   OH258713   3.823   4.601   5.517 -0.1594 -0.0730  0.0695
12433TIP3    H158714   3.902   4.652   5.534 -1.0962  1.3206  0.4280
12433TIP3    H258715   3.847   4.541   5.446  0.5460  1.9960 -1.5233
12434TIP3   OH258716   5.154   0.993  16.674 -0.7028 -0.2877 -0.1684
12434TIP3    H158717   5.238   0.955  16.699  0.3956  1.4698 -1.0375
12434TIP3    H258718   5.159   1.084  16.702 -2.8363 -0.4143  0.8757
12435TIP3   OH258719   3.964   4.073  15.213 -0.0458 -0.4186 -0.2330
12435TIP3    H158720   3.984   4.096  15.123  0.5568  1.6258  0.3740
12435TIP3    H258721   3.872   4.094  15.224  0.2011  0.6315 -0.0338
12436TIP3   OH258722   0.052   1.931  16.396  0.5698 -0.5874  0.0448
12436TIP3    H158723   0.144   1.910  16.411  1.1402  1.1642 -0.6843
12436TIP3    H258724   0.044   2.023  16.421 -0.5342 -0.1985 -1.5770
12437TIP3   OH258725   3.379   2.443   5.773  0.7182  0.3733 -0.0970
12437TIP3    H158726   3.294   2.402   5.762  0.8905  0.1596 -0.6792
12437TIP3    H258727   3.388   2.455   5.868 -0.8438  2.2803 -0.1254
12438TIP3   OH258728   6.132   4.833   4.302 -0.3483  0.2027 -0.2423
12438TIP3    H158729   6.148   4.924   4.325 -1.5983  0.5894 -0.7966
12438TIP3    H258730   6.084   4.837   4.219 -0.3825 -0.9532 -0.2955
12439TIP3   OH258731   1.876   2.317  13.695  0.4725 -0.6548 -0.6209
12439TIP3    H158732   1.808   2.263  13.654 -0.5026  0.8115 -1.0331
12439TIP3    H258733   1.937   2.337  13.625 -0.7758  1.1980 -1.2667
12440TIP3   OH258734   3.832   4.752   4.325  0.2590 -0.1573 -0.4684
12440TIP3    H158735   3.737   4.746   4.312  0.1066  1.6702 -0.5560
12440TIP3    H258736   3.842   4.784   4.415  0.8196 -0.7865 -0.2990
12441TIP3   OH258737   3.635   3.516   1.616  0.1549 -0.1318 -0.1508
12441TIP3    H158738   3.643   3.479   1.528  3.4631  2.8269 -1.3287
12441TIP3    H258739   3.541   3.526   1.629 -0.5002 -1.8475 -2.7797
12442TIP3   OH258740   1.103   0.349  10.045  0.2684 -0.0849 -0.2260
12442TIP3    H158741   1.119   0.281   9.980  0.5934 -0.7335  0.5279
12442TIP3    H258742   1.031   0.401  10.008  0.1357 -0.7240 -0.8826
12443TIP3   OH258743   2.967   5.743  16.413 -0.0274 -0.3648  0.1676
12443TIP3    H158744   2.928   5.681  16.474  0.4764  0.6197  1.5200
12443TIP3    H258745   2.981   5.822  16.464  1.2478  0.1982 -0.9907
12444TIP3   OH258746   1.704   1.000  11.249 -0.2083 -0.2723 -0.7531
12444TIP3    H158747   1.747   0.979  11.332 -0.2440  0.1119 -0.6378
12444TIP3    H258748   1.759   0.957  11.183 -1.0563 -1.9256 -0.4330
12445TIP3   OH258749   2.409   2.968  17.171  0.5767 -0.0698 -0.1940
12445TIP3    H158750   2.418   2.874  17.162  1.1797 -0.0640  0.2303
12445TIP3    H258751   2.494   3.003  17.145  0.5586  0.3064  0.2323
12446TIP3   OH258752   4.148   0.872  13.757 -0.5869 -0.3598  0.2149
12446TIP3    H158753   4.147   0.802  13.692  0.6707 -0.1892 -0.0137
12446TIP3    H258754   4.213   0.934  13.724 -0.7477  0.2814  1.0760
12447TIP3   OH258755   0.261   1.409  14.640  0.8711 -0.7199  0.5610
12447TIP3    H158756   0.191   1.356  14.678  0.0826 -0.6405 -0.7105
12447TIP3    H258757   0.341   1.377  14.681  0.0251 -0.0615  2.8900
12448TIP3   OH258758   4.246   5.385  10.653  0.1149 -0.3816  0.0692
12448TIP3    H158759   4.193   5.402  10.575 -0.0468 -0.9317  0.0499
12448TIP3    H258760   4.336   5.380  10.621  0.1229  0.0583  0.0237
12449TIP3   OH258761   0.209   6.372  17.083 -0.4026  0.2966 -0.1098
12449TIP3    H158762   0.294   6.413  17.067 -0.6743  0.2339 -1.8498
12449TIP3    H258763   0.215   6.341  17.173  0.4530  2.5907  0.7187
12450TIP3   OH258764   4.342   1.474  13.737 -0.0009  1.1553 -0.0089
12450TIP3    H158765   4.314   1.383  13.731  0.6537  0.9600 -0.2475
12450TIP3    H258766   4.276   1.516  13.791 -1.6483  1.0994 -1.8738
12451TIP3   OH258767   5.700   5.728   1.995  0.4267 -0.1207 -0.4926
12451TIP3    H158768   5.777   5.677   2.022  1.0314  0.4251 -1.1855
12451TIP3    H258769   5.734   5.814   1.971 -0.4637  0.2892 -0.3351
12452TIP3   OH258770   2.611   4.491  14.235 -0.0068 -0.0687 -0.0895
12452TIP3    H158771   2.579   4.426  14.172  0.2969 -0.1692 -0.1419
12452TIP3    H258772   2.536   4.549  14.249 -0.8409 -1.3603  1.2073
12453TIP3   OH258773   3.302   5.173  17.302  0.6000  0.1058 -0.0065
12453TIP3    H158774   3.308   5.145  17.210  1.0050 -0.0572  0.0633
12453TIP3    H258775   3.229   5.235  17.304 -1.3232 -2.0558  0.1134
12454TIP3   OH258776   6.498   3.919  14.265  0.0169 -0.0218  0.1143
12454TIP3    H158777   6.573   3.979  14.264 -0.5834  0.7440 -0.3880
12454TIP3    H258778   6.529   3.842  14.314  1.4415 -0.1282 -0.8833
12455TIP3   OH258779   0.731   5.723  15.351 -1.0179 -0.3337 -0.1742
12455TIP3    H158780   0.746   5.653  15.288 -2.7536 -0.9783  0.0909
12455TIP3    H258781   0.814   5.731  15.399 -0.0986 -0.7066 -1.6404
12456TIP3   OH258782   4.283   5.214   1.324  0.3300 -0.2871 -0.0725
12456TIP3    H158783   4.291   5.301   1.363  0.7530 -0.6195  0.6018
12456TIP3    H258784   4.234   5.163   1.389  2.7076 -1.3858  0.9717
12457TIP3   OH258785   6.519   1.140  14.871  0.2483  0.5837  0.2168
12457TIP3    H158786   6.509   1.153  14.966  0.4821  0.8476  0.2087
12457TIP3    H258787   6.543   1.048  14.862 -0.6696  0.3278  0.3441
12458TIP3   OH258788   3.283   0.353  16.727 -0.6078 -0.1160  0.0225
12458TIP3    H158789   3.226   0.393  16.793 -0.0545 -1.6201  1.4698
12458TIP3    H258790   3.271   0.408  16.649 -0.9478  1.9877  1.4732
12459TIP3   OH258791   3.014   6.490  12.970  0.3214  0.4254  0.0772
12459TIP3    H158792   3.045   6.542  13.044 -0.3999  0.7299  0.1810
12459TIP3    H258793   3.092   6.446  12.937  0.9803  1.6554 -0.0771
12460TIP3   OH258794   1.158   3.834  10.433  0.1641  0.0980  0.4063
12460TIP3    H158795   1.192   3.900  10.372  1.6120 -1.0644 -0.1083
12460TIP3    H258796   1.168   3.751  10.386  0.4171 -0.7311  1.8566
12461TIP3   OH258797   4.339   2.671   2.482 -0.1757 -0.4944  0.4785
12461TIP3    H158798   4.254   2.659   2.440  0.3792  2.1749 -1.7034
12461TIP3    H258799   4.323   2.739   2.548  0.5238  1.5578 -1.3336
12462TIP3   OH258800   0.438   1.623  12.572  0.0293 -0.1521 -0.4174
12462TIP3    H158801   0.449   1.691  12.639  1.0565  0.8314 -1.5600
12462TIP3    H258802   0.419   1.671  12.492  1.5450 -1.1678 -1.4174
12463TIP3   OH258803   0.133   1.108   5.406  0.6523  0.6271 -0.0644
12463TIP3    H158804   0.113   1.181   5.348  0.9270  0.0405 -0.9282
12463TIP3    H258805   0.067   1.113   5.475  0.3094  1.3359 -0.4299
12464TIP3   OH258806   1.666   4.357  14.476 -0.0636  0.4258  0.2473
12464TIP3    H158807   1.670   4.450  14.499 -0.7195  0.6990 -0.6987
12464TIP3    H258808   1.592   4.323  14.526 -0.2006  0.5517  0.1305
12465TIP3   OH258809   1.602   0.892  10.909 -0.2083  0.5008  0.2677
12465TIP3    H158810   1.513   0.862  10.890 -0.4091  0.5157  1.1716
12465TIP3    H258811   1.651   0.870  10.830 -0.8579 -0.1477  0.0275
12466TIP3   OH258812   2.455   0.666   6.425  0.0675 -0.2020  0.4535
12466TIP3    H158813   2.360   0.661   6.431  0.1800 -0.5286  2.6954
12466TIP3    H258814   2.486   0.654   6.515  2.2535 -0.5047 -0.2751
12467TIP3   OH258815   3.498   4.485   2.790 -0.3143 -0.1937  0.1397
12467TIP3    H158816   3.490   4.421   2.861 -2.0551 -1.1431 -0.8246
12467TIP3    H258817   3.457   4.442   2.715 -0.8494  1.7651 -0.7567
12468TIP3   OH258818   3.809   1.176  12.183 -0.1692 -0.1390 -0.5319
12468TIP3    H158819   3.761   1.106  12.227 -1.5218  1.0920  0.0574
12468TIP3    H258820   3.761   1.190  12.102  1.4071 -1.3520 -1.7206
12469TIP3   OH258821   0.493   5.772   1.852  0.3495 -0.0571  0.1698
12469TIP3    H158822   0.431   5.836   1.814  1.3285  0.9198  0.1624
12469TIP3    H258823   0.438   5.713   1.904 -0.5919  0.8073  0.1871
12470TIP3   OH258824   0.332   5.957   2.072 -0.1847  0.5447 -0.2757
12470TIP3    H158825   0.397   5.987   2.008  1.9207 -0.5850  1.1980
12470TIP3    H258826   0.265   6.026   2.073  0.8303  1.6411 -2.0570
12471TIP3   OH258827   0.879   2.888   3.391  0.2028 -0.6617  0.0527
12471TIP3    H158828   0.953   2.942   3.364  0.9280 -1.4726  0.3955
12471TIP3    H258829   0.917   2.803   3.413 -0.5948 -0.5911  1.8797
12472TIP3   OH258830   2.593   5.228   2.660 -0.5321  0.6921 -0.1497
12472TIP3    H158831   2.672   5.274   2.688 -0.5503 -0.1740  1.4386
12472TIP3    H258832   2.547   5.291   2.605  0.1819  2.0090  0.7079
12473TIP3   OH258833   1.792   1.626  12.338  0.4799  0.0644  0.5255
12473TIP3    H158834   1.840   1.689  12.392  1.2073 -0.8069  0.9270
12473TIP3    H258835   1.860   1.573  12.297 -0.0965  0.1198 -0.5259
12474TIP3   OH258836   6.250   6.658  13.343  0.3635 -0.4810  0.3722
12474TIP3    H158837   6.336   6.660  13.302  0.0212 -1.4297 -0.4268
12474TIP3    H258838   6.199   6.724  13.296  0.8346  0.5881  1.3161
12475TIP3   OH258839   5.052   2.721  11.243 -0.5889 -0.0116  0.0788
12475TIP3    H158840   5.004   2.719  11.326 -1.4431  1.4058 -0.3448
12475TIP3    H258841   5.107   2.643  11.245 -0.3853  0.1277  2.1055
12476TIP3   OH258842   5.314   1.661   1.564 -0.3346  0.7696  1.2257
12476TIP3    H158843   5.315   1.687   1.472  2.0836 -0.4911  0.7880
12476TIP3    H258844   5.225   1.628   1.579 -0.8911  1.3456 -0.5490
12477TIP3   OH258845   5.014   6.129   4.809 -0.0252  0.6636 -0.0620
12477TIP3    H158846   5.094   6.079   4.791 -0.2583  0.2318  0.0856
12477TIP3    H258847   4.965   6.126   4.727 -0.1099  0.5184 -0.0063
12478TIP3   OH258848   0.646   2.045   3.721  0.2479  0.2046 -0.0196
12478TIP3    H158849   0.737   2.076   3.717 -0.3440  2.2068  1.0293
12478TIP3    H258850   0.640   2.000   3.806  0.4162 -0.5496 -0.3963
12479TIP3   OH258851   3.224   3.450  13.490 -0.5460 -0.5744  0.0669
12479TIP3    H158852   3.164   3.446  13.416 -0.1332 -0.5341 -0.2776
12479TIP3    H258853   3.289   3.516  13.464  0.7203 -1.9455 -0.3988
12480TIP3   OH258854   1.955   3.176   2.596  0.2820  0.0140 -0.2480
12480TIP3    H158855   1.987   3.106   2.653 -0.1060 -0.3356 -0.4503
12480TIP3    H258856   1.908   3.235   2.655  1.0389  0.3772  0.0014
12481TIP3   OH258857   1.265   6.739   0.888  0.2391  0.3288  0.0438
12481TIP3    H158858   1.255   6.819   0.837 -1.9633 -0.1806 -0.4383
12481TIP3    H258859   1.258   6.669   0.824 -1.2623 -0.2954  0.8285
12482TIP3   OH258860   0.846   2.534   4.339 -0.2225  0.2603  0.3097
12482TIP3    H158861   0.800   2.581   4.409 -0.1832  1.4201 -0.3995
12482TIP3    H258862   0.895   2.603   4.293  1.6134 -0.8098  0.5558
12483TIP3   OH258863   4.799   4.701   5.446  0.1832 -0.0406 -0.4334
12483TIP3    H158864   4.796   4.696   5.350  0.5139  1.7309 -0.5596
12483TIP3    H258865   4.707   4.712   5.472  0.0353 -1.0445 -0.4942
12484TIP3   OH258866   4.575   5.106  16.756  0.1014  0.7707  0.3003
12484TIP3    H158867   4.603   5.182  16.705 -1.2103  0.9244 -0.2125
12484TIP3    H258868   4.533   5.143  16.833 -0.1206  0.5503  0.2834
12485TIP3   OH258869   4.645   3.890  11.702 -1.2299 -0.3652  0.8370
12485TIP3    H158870   4.643   3.945  11.624 -1.4282 -1.0989  0.3142
12485TIP3    H258871   4.710   3.931  11.760  0.8876 -1.2267 -0.7809
12486TIP3   OH258872   3.358   4.109   3.973 -0.1111 -0.8260 -0.0503
12486TIP3    H158873   3.332   4.090   3.882  1.6489 -0.6110 -0.6227
12486TIP3    H258874   3.444   4.069   3.982  0.5642  0.7644  0.9291
12487TIP3   OH258875   4.801   4.464  14.771 -0.1116 -0.2904 -0.0138
12487TIP3    H158876   4.878   4.429  14.726 -1.0279 -2.1298 -0.2597
12487TIP3    H258877   4.758   4.521  14.707 -0.3392 -1.3321 -0.8150
12488TIP3   OH258878   1.838   0.557   2.354  0.5111 -0.3198  0.3979
12488TIP3    H158879   1.810   0.523   2.438  0.8222 -0.1995  0.5532
12488TIP3    H258880   1.846   0.480   2.298 -3.3679 -0.1114 -0.6741
12489TIP3   OH258881   2.601   2.732  17.123 -0.1443  0.1054 -0.1524
12489TIP3    H158882   2.662   2.801  17.147  0.6322  1.1360 -4.2412
12489TIP3    H258883   2.651   2.651  17.132  1.6957  0.8600 -2.6168
12490TIP3   OH258884   1.186   0.598   0.596 -0.2682  0.6486  0.3067
12490TIP3    H158885   1.261   0.552   0.635 -1.2010 -0.7948  0.4709
12490TIP3    H258886   1.224   0.649   0.524  0.6590 -1.5454 -0.8459
12491TIP3   OH258887   2.660   5.883  11.390  0.4185  0.0918 -0.0292
12491TIP3    H158888   2.636   5.941  11.318  0.2753  0.5559  0.3901
12491TIP3    H258889   2.579   5.872  11.441 -0.4752 -3.1214 -1.8867
12492TIP3   OH258890   2.737   0.147   5.053  0.2385 -0.0430  0.2764
12492TIP3    H158891   2.716   0.121   4.964  1.1742 -0.6426  0.2175
12492TIP3    H258892   2.774   0.235   5.044  2.6026 -1.0101 -0.2627
12493TIP3   OH258893   5.915   5.868  13.502  0.6289 -0.5424 -0.3112
12493TIP3    H158894   5.888   5.785  13.465 -1.4148  0.4588 -1.2297
12493TIP3    H258895   5.833   5.915  13.520  1.6635  0.7351  1.4836
12494TIP3   OH258896   4.977   2.630   3.925 -0.5347 -0.0590 -0.6232
12494TIP3    H158897   4.930   2.655   4.005 -1.3223 -0.4832 -0.9496
12494TIP3    H258898   5.000   2.713   3.884 -0.7701  0.1560 -0.3223
12495TIP3   OH258899   6.680   4.297  12.136 -0.1311 -0.1420  1.0268
12495TIP3    H158900   6.738   4.317  12.063 -0.4379  0.8118  1.0215
12495TIP3    H258901   6.721   4.340  12.211 -0.3483 -0.2455  1.2050
12496TIP3   OH258902   1.697   3.181   0.172  0.1363  0.1295 -0.1980
12496TIP3    H158903   1.717   3.127   0.249  1.7025 -1.5897 -1.7286
12496TIP3    H258904   1.629   3.132   0.126  0.3069  0.3581 -0.6978
12497TIP3   OH258905   1.543   3.076   5.391  0.2079  0.3831  0.4165
12497TIP3    H158906   1.490   3.101   5.315 -0.7268 -0.5440  0.7387
12497TIP3    H258907   1.481   3.037   5.452  1.3014 -1.1119  0.6468
12498TIP3   OH258908   3.034   0.556   5.836  0.0890  0.2794  0.2046
12498TIP3    H158909   2.983   0.518   5.907 -2.5751  1.3955 -0.9786
12498TIP3    H258910   3.082   0.482   5.798  0.0745 -0.6632  1.9251
12499TIP3   OH258911   3.720   2.522   4.179 -0.1217 -0.2940 -0.2087
12499TIP3    H158912   3.629   2.549   4.166  0.0572  0.9618  0.9623
12499TIP3    H258913   3.769   2.572   4.114 -0.2112 -0.7815 -0.6671
12500TIP3   OH258914   4.145   6.019  12.768 -0.6912  0.9427 -1.1107
12500TIP3    H158915   4.053   6.004  12.787 -0.3998 -0.4054 -0.5995
12500TIP3    H258916   4.151   6.019  12.673 -1.0955  0.0625 -1.1472
12501TIP3   OH258917   4.607   6.078  14.702  0.0432 -0.6079  0.2305
12501TIP3    H158918   4.537   6.140  14.721 -2.1850 -2.3597 -1.6276
12501TIP3    H258919   4.619   6.084  14.607 -0.2706 -2.9492 -0.0166
12502TIP3   OH258920   1.747   1.410   1.652  0.3822 -0.7714 -0.0630
12502TIP3    H158921   1.801   1.331   1.648  0.3947 -0.7071 -1.9330
12502TIP3    H258922   1.681   1.398   1.585 -0.0666  0.4945  0.1157
12503TIP3   OH258923   3.535   1.239  17.305 -0.3605 -0.4289 -0.3797
12503TIP3    H158924   3.451   1.213  17.267  0.0692  0.3619 -1.9556
12503TIP3    H258925   3.534   1.335  17.303  0.6543 -0.4134 -0.5939
12504TIP3   OH258926   2.829   2.086  10.924  0.5974 -0.2399 -0.1967
12504TIP3    H158927   2.798   2.175  10.939  0.9903 -0.2765  1.0109
12504TIP3    H258928   2.840   2.079  10.829  1.5877  1.3568 -0.2395
12505TIP3   OH258929   0.072   1.490   0.821  0.0906  0.3139  0.1013
12505TIP3    H158930   0.114   1.409   0.849  1.2061  0.0205 -2.1311
12505TIP3    H258931   0.131   1.560   0.852  2.3274 -0.0800 -2.7392
12506TIP3   OH258932   6.297   1.708   0.984  0.1385  0.6330 -0.0026
12506TIP3    H158933   6.203   1.727   0.987 -0.0869 -0.4991  0.8540
12506TIP3    H258934   6.322   1.696   1.075  0.9679  0.1924 -0.2745
12507TIP3   OH258935   4.669   1.071  16.218  0.3852 -0.1312 -0.4060
12507TIP3    H158936   4.622   1.025  16.288  0.1787  1.5118  0.5845
12507TIP3    H258937   4.601   1.092  16.153  0.2703 -0.1936 -0.3071
12508TIP3   OH258938   2.028   3.278  15.527 -0.4580 -0.0137  0.4187
12508TIP3    H158939   2.038   3.288  15.433 -0.8949  0.1673  0.3897
12508TIP3    H258940   1.941   3.239  15.538 -0.1244 -0.7022  0.7106
12509TIP3   OH258941   4.249   5.687  16.126 -0.2380 -0.0104 -0.2943
12509TIP3    H158942   4.177   5.631  16.098 -0.6854  0.8030 -0.8030
12509TIP3    H258943   4.311   5.685  16.053 -0.1151 -0.0720 -0.1888
12510TIP3   OH258944   2.628   0.139   3.542 -0.2803  0.1987  0.2786
12510TIP3    H158945   2.695   0.082   3.504 -1.2457 -0.2779 -0.7334
12510TIP3    H258946   2.641   0.223   3.498  0.5048  0.5112  1.0640
12511TIP3   OH258947   4.797   2.797   0.874 -0.6290 -0.7185  0.6992
12511TIP3    H158948   4.768   2.859   0.807  1.7950  0.0653  0.2668
12511TIP3    H258949   4.802   2.713   0.829 -0.7746 -0.5605  0.3884
12512TIP3   OH258950   4.370   6.190  11.433 -0.4156 -0.3581 -0.0146
12512TIP3    H158951   4.434   6.245  11.387  0.7851 -1.4455  0.2764
12512TIP3    H258952   4.297   6.248  11.451 -0.1811  0.5398 -1.7444
12513TIP3   OH258953   3.529   1.856   4.054 -0.4927  0.1894  0.5666
12513TIP3    H158954   3.547   1.847   4.148  0.9664  1.1077  0.4105
12513TIP3    H258955   3.480   1.777   4.031  1.7031 -1.5474  1.5068
12514TIP3   OH258956   2.720   2.025  12.908  0.1096  0.0307 -0.5233
12514TIP3    H158957   2.736   2.087  12.837  0.5103 -0.3334 -0.7568
12514TIP3    H258958   2.696   2.080  12.983  1.6067  0.5684 -0.3911
12515TIP3   OH258959   5.061   5.055   5.716 -0.4780  0.1962 -0.5414
12515TIP3    H158960   5.041   5.094   5.801  0.0764 -0.7085  0.0251
12515TIP3    H258961   5.119   5.118   5.674  0.2206  0.1033  0.2611
12516TIP3   OH258962   1.613   1.846  15.128  0.1371 -0.3303  0.1318
12516TIP3    H158963   1.656   1.762  15.144  1.6687  0.5652  0.9120
12516TIP3    H258964   1.678   1.912  15.151 -0.9341  1.0967 -0.7079
12517TIP3   OH258965   0.506   4.805  15.515 -0.5361 -0.4573 -0.0762
12517TIP3    H158966   0.486   4.776  15.426  0.8001 -0.7879 -0.2826
12517TIP3    H258967   0.601   4.795  15.524 -0.5205  0.4180  1.0875
12518TIP3   OH258968   1.179   3.348  13.992  0.2045  0.4027 -0.5594
12518TIP3    H158969   1.181   3.342  13.896 -0.7332 -0.4889 -0.5388
12518TIP3    H258970   1.259   3.395  14.014  0.2283  0.9966 -1.8077
12519TIP3   OH258971   1.114   3.008   0.105 -0.7190  0.3863 -0.6295
12519TIP3    H158972   1.102   2.924   0.150  0.4814  0.0802 -0.8497
12519TIP3    H258973   1.178   2.990   0.037  1.6070  2.0177  0.9603
12520TIP3   OH258974   0.550   5.673   2.814 -0.0780 -0.5453 -0.3096
12520TIP3    H158975   0.603   5.594   2.828  0.1716 -0.5742 -1.3812
12520TIP3    H258976   0.546   5.684   2.719  1.1193  1.5574 -0.1829
12521TIP3   OH258977   5.473   6.182   1.486  0.1076  0.2614 -0.0568
12521TIP3    H158978   5.518   6.098   1.501  2.5655  1.6967  1.4565
12521TIP3    H258979   5.461   6.218   1.574  0.7593  2.2621 -0.7367
12522TIP3   OH258980   1.556   6.194   2.738 -0.1114  0.1855 -0.2497
12522TIP3    H158981   1.498   6.269   2.755 -0.5463  0.2485 -1.8583
12522TIP3    H258982   1.497   6.120   2.726  0.1704  0.1096 -1.2262
12523TIP3   OH258983   0.501   0.103  12.269 -0.4530 -0.2807  0.2576
12523TIP3    H158984   0.564   0.172  12.288 -0.0738 -0.8480  1.1122
12523TIP3    H258985   0.542   0.023  12.301 -1.2495 -0.7830  0.0632
12524TIP3   OH258986   1.952   1.401   1.268  0.5493  0.2106  0.3207
12524TIP3    H158987   2.039   1.410   1.230  0.3491  0.1403 -0.1619
12524TIP3    H258988   1.963   1.427   1.359  0.9483  0.8249  0.1083
12525TIP3   OH258989   3.713   1.565  16.611  0.0044 -0.4244 -0.0613
12525TIP3    H158990   3.624   1.538  16.631 -0.5640 -1.2661 -3.1885
12525TIP3    H258991   3.704   1.654  16.576  0.2359 -0.7681 -1.0483
12526TIP3   OH258992   1.997   6.517   4.001 -0.2402  0.5010 -0.1391
12526TIP3    H158993   1.984   6.427   4.030  0.1530 -0.2675 -2.1475
12526TIP3    H258994   2.092   6.526   3.992 -0.1716  1.5603  1.2199
12527TIP3   OH258995   4.330   3.626   0.756 -0.2191  0.3701 -0.4007
12527TIP3    H158996   4.386   3.642   0.832  0.0741 -0.5955 -0.4000
12527TIP3    H258997   4.330   3.531   0.746 -1.0067  0.4303 -1.0503
12528TIP3   OH258998   6.613   4.932   5.649  0.2128  0.5952  0.1570
12528TIP3    H158999   6.615   4.837   5.636  0.3870  0.6080  0.0828
12528TIP3    H259000   6.620   4.943   5.744 -0.5663  0.5122  0.2321
12529TIP3   OH259001   2.941   2.010  16.523 -0.0523  0.2097  0.0764
12529TIP3    H159002   2.885   1.949  16.570 -2.6201  0.0806 -2.8343
12529TIP3    H259003   2.976   1.958  16.449  2.5030  0.8019  0.7676
12530TIP3   OH259004   0.648   4.630   2.932  0.5207  0.4200 -0.5425
12530TIP3    H159005   0.707   4.606   2.860  0.0432  1.2036 -1.2019
12530TIP3    H259006   0.616   4.717   2.909  1.5855  1.4068  1.3916
12531TIP3   OH259007   6.181   3.012   4.246  0.0444  0.1018 -0.6061
12531TIP3    H159008   6.126   3.032   4.322  1.0761  0.7545 -0.0152
12531TIP3    H259009   6.183   3.094   4.196  1.5798  0.5078  0.0883
12532TIP3   OH259010   1.869   0.490  13.902  0.3651  0.2221 -0.0919
12532TIP3    H159011   1.857   0.478  13.808  0.4919  0.4270 -0.1336
12532TIP3    H259012   1.791   0.539  13.930  0.9557  1.3316 -0.3204
12533TIP3   OH259013   6.375   1.101  12.588 -0.3206  0.2677 -0.1818
12533TIP3    H159014   6.353   1.133  12.501  1.1467  0.1543 -0.6244
12533TIP3    H259015   6.431   1.025  12.572 -1.5999 -0.9422  0.8620
12534TIP3   OH259016   3.375   5.406  12.462  0.2364 -0.1906  0.2584
12534TIP3    H159017   3.442   5.472  12.479  0.9634 -0.8006 -0.1559
12534TIP3    H259018   3.304   5.428  12.522  1.2335 -0.1461  1.4695
12535TIP3   OH259019   0.490   6.222   1.439 -0.5865  0.1759 -0.1518
12535TIP3    H159020   0.410   6.222   1.386 -2.1019 -3.8182  1.7141
12535TIP3    H259021   0.537   6.143   1.412  0.5486  0.1604  1.7101
12536TIP3   OH259022   1.341   2.142  15.506  0.1776  0.3074  0.0040
12536TIP3    H159023   1.406   2.117  15.572 -1.1724  1.6222  1.9140
12536TIP3    H259024   1.319   2.059  15.462  2.5813 -0.2787 -0.2418
12537TIP3   OH259025   0.299   2.196  11.164  0.0267  0.0041  0.0365
12537TIP3    H159026   0.349   2.148  11.231 -0.0045  0.1231  0.1442
12537TIP3    H259027   0.355   2.270  11.141 -0.2087  0.2778  0.3370
12538TIP3   OH259028   0.627   0.116   0.940  0.3701  0.0766 -0.2970
12538TIP3    H159029   0.644   0.048   1.004 -0.2528  0.2247  0.0306
12538TIP3    H259030   0.538   0.145   0.958  0.0326 -0.1509 -1.4771
12539TIP3   OH259031   2.697   2.523  11.374 -0.1760  0.2800 -0.2986
12539TIP3    H159032   2.734   2.488  11.455  0.8708  1.3023 -0.3135
12539TIP3    H259033   2.772   2.560  11.328 -0.9311  0.6490 -1.2561
12540TIP3   OH259034   3.758   5.787   9.967  0.5098  0.0572 -0.1892
12540TIP3    H159035   3.727   5.697   9.964 -0.1586  0.2619  0.4183
12540TIP3    H259036   3.703   5.830  10.032  0.3391  1.0844 -0.9833
12541TIP3   OH259037   4.600   1.452   6.508 -0.6536 -0.1751  0.1533
12541TIP3    H159038   4.618   1.384   6.443 -0.2184  0.5794 -0.5324
12541TIP3    H259039   4.676   1.511   6.503 -0.3592 -0.3739  1.7093
12542TIP3   OH259040   5.698   0.130   2.995 -0.1991  0.2488  0.5721
12542TIP3    H159041   5.673   0.202   3.054  0.4482  0.8845  0.0868
12542TIP3    H259042   5.792   0.142   2.982 -0.5989  1.1931 -1.9698
12543TIP3   OH259043   1.412   3.145   0.883  0.1485 -0.4404  0.9047
12543TIP3    H159044   1.397   3.096   0.802  0.5714  0.6816  0.1119
12543TIP3    H259045   1.492   3.108   0.920  1.5233  0.7936 -0.6549
12544TIP3   OH259046   4.268   0.714   1.180 -0.2825  0.4169  0.2263
12544TIP3    H159047   4.255   0.749   1.092  1.5611  1.1098  0.1694
12544TIP3    H259048   4.363   0.721   1.194 -0.5296  0.2382  2.2244
12545TIP3   OH259049   3.532   1.176  16.946  0.0005 -0.4795  0.6667
12545TIP3    H159050   3.576   1.214  17.022 -0.9284  1.6974  0.2025
12545TIP3    H259051   3.602   1.162  16.883  0.3930  0.6657  0.8174
12546TIP3   OH259052   5.110   4.767  13.875  0.1287  0.0265 -0.0423
12546TIP3    H159053   5.073   4.679  13.866  0.1782 -0.0492  0.4599
12546TIP3    H259054   5.041   4.818  13.918 -0.0391  0.3316 -0.6557
12547TIP3   OH259055   0.916   0.365  12.745  0.0520 -0.1966  0.3608
12547TIP3    H159056   0.829   0.379  12.783 -0.0389  3.4165 -0.7805
12547TIP3    H259057   0.902   0.376  12.651  1.6791  0.0812  0.1270
12548TIP3   OH259058   0.488   1.084   4.492 -0.1818 -0.0798 -0.4519
12548TIP3    H159059   0.450   1.012   4.442 -2.1306  0.6692 -0.1782
12548TIP3    H259060   0.500   1.049   4.580  1.7541 -0.9249 -1.0037
12549TIP3   OH259061   0.526   2.577  17.092 -0.2758  0.2543 -0.3758
12549TIP3    H159062   0.510   2.649  17.153 -0.9206  0.8713 -1.2410
12549TIP3    H259063   0.573   2.618  17.019 -0.2066 -0.3078 -0.6512
12550TIP3   OH259064   3.394   4.839  11.335  0.8125 -0.2922 -0.0676
12550TIP3    H159065   3.430   4.783  11.403  1.2270  1.2434  1.0190
12550TIP3    H259066   3.340   4.780  11.282  1.5842 -1.7924  0.7525
12551TIP3   OH259067   5.419   1.415  13.896 -0.3190 -0.3618 -0.0827
12551TIP3    H159068   5.479   1.341  13.887 -2.0550 -1.8073 -0.4089
12551TIP3    H259069   5.337   1.376  13.924 -1.1709  1.5324  0.2381
12552TIP3   OH259070   4.521   0.209   3.746 -0.1429 -0.4633 -0.0841
12552TIP3    H159071   4.597   0.262   3.771 -0.8695  0.5951 -0.0352
12552TIP3    H259072   4.488   0.174   3.828 -1.8824  2.1225  0.4387
12553TIP3   OH259073   2.981   6.228  12.145 -0.2309 -0.8420  0.3535
12553TIP3    H159074   2.904   6.243  12.199  0.1736  0.6363  0.5638
12553TIP3    H259075   2.951   6.244  12.055  0.1606  1.4177  0.5580
12554TIP3   OH259076   3.231   1.786  13.841  0.1976  0.1133 -0.1767
12554TIP3    H159077   3.321   1.808  13.867 -0.4550 -0.2647  2.7663
12554TIP3    H259078   3.221   1.694  13.864 -1.3097  0.4849  0.7847
12555TIP3   OH259079   5.710   1.427   0.870  0.0299 -0.4206 -0.3446
12555TIP3    H159080   5.758   1.462   0.944  0.0181 -1.8441  0.3639
12555TIP3    H259081   5.618   1.445   0.890  0.0088 -1.0244  0.1146
12556TIP3   OH259082   1.646   0.091  17.259 -0.1911 -0.0999 -0.4023
12556TIP3    H159083   1.651   0.186  17.247 -0.7801 -0.2207 -1.8030
12556TIP3    H259084   1.562   0.076  17.302  0.2894  0.0647  0.6166
12557TIP3   OH259085   2.704   0.089   5.508  0.6247 -0.5645 -0.2287
12557TIP3    H159086   2.662   0.022   5.454 -0.6005 -0.0687  0.0620
12557TIP3    H259087   2.786   0.050   5.537  1.3248 -0.8554 -2.4327
12558TIP3   OH259088   3.103   1.395   2.092 -0.7755  0.8039  0.0816
12558TIP3    H159089   3.059   1.328   2.144  1.7191  0.6080  2.1533
12558TIP3    H259090   3.044   1.471   2.095 -2.4755 -0.4520 -0.1871
12559TIP3   OH259091   5.370   3.895  13.863  0.3581 -0.4716  0.0523
12559TIP3    H159092   5.305   3.825  13.859 -0.9327  0.5631  1.6584
12559TIP3    H259093   5.357   3.946  13.783 -1.4922  0.2630  0.7786
12560TIP3   OH259094   4.950   0.536   4.326 -0.7289  0.0866 -0.4080
12560TIP3    H159095   4.912   0.595   4.392  0.7586  0.1376  0.4535
12560TIP3    H259096   4.928   0.577   4.243 -0.9006  1.1372  0.1339
12561TIP3   OH259097   2.610   0.843   5.012 -0.4044  0.3304 -0.1955
12561TIP3    H159098   2.646   0.782   4.947  0.1693 -0.3570  0.7512
12561TIP3    H259099   2.635   0.929   4.981 -1.9871  0.2011 -2.0527
12562TIP3   OH259100   5.355   5.376   3.817  0.4876 -0.2392 -0.4546
12562TIP3    H159101   5.446   5.385   3.846 -0.0451 -0.3802  1.4232
12562TIP3    H259102   5.311   5.454   3.852 -0.2196 -0.4399 -0.8764
12563TIP3   OH259103   1.283   5.335   5.521  0.3188 -0.7690 -0.3605
12563TIP3    H159104   1.246   5.415   5.559  0.5824 -0.3037 -1.0657
12563TIP3    H259105   1.216   5.268   5.537  0.0241 -0.3742  0.0887
12564TIP3   OH259106   5.698   5.376   1.476 -0.0740 -0.3324  0.0117
12564TIP3    H159107   5.782   5.410   1.508 -0.7321  1.1995  0.1757
12564TIP3    H259108   5.654   5.344   1.555 -0.4441  0.6854  0.2353
12565TIP3   OH259109   2.746   2.672   3.381 -0.2224 -0.2264 -0.0651
12565TIP3    H159110   2.660   2.712   3.395  0.2525  0.4207  1.0669
12565TIP3    H259111   2.809   2.738   3.410  0.7431 -0.0476 -2.3458
12566TIP3   OH259112   3.734   2.686   4.805  0.0144 -0.1018  0.6291
12566TIP3    H159113   3.804   2.751   4.811  0.4498 -0.4300 -0.4832
12566TIP3    H259114   3.660   2.733   4.768 -0.1237  0.0861  1.1467
12567TIP3   OH259115   0.862   6.552   4.043  0.2512 -0.3049 -1.0072
12567TIP3    H159116   0.892   6.461   4.042 -0.4594 -0.5765  0.2694
12567TIP3    H259117   0.923   6.597   4.102  0.5842  0.0499 -1.6130
12568TIP3   OH259118   6.452   1.517  12.797 -0.1962 -0.8059 -0.0237
12568TIP3    H159119   6.460   1.588  12.733  2.2138 -2.0892 -1.2398
12568TIP3    H259120   6.461   1.560  12.882 -1.3512  0.6384 -0.5880
12569TIP3   OH259121   0.759   1.634   2.130 -0.6056 -0.3757  0.1494
12569TIP3    H159122   0.826   1.645   2.198 -0.4501  0.0343 -0.0640
12569TIP3    H259123   0.743   1.723   2.098 -0.7280 -0.5548 -0.2974
12570TIP3   OH259124   6.701   4.128  12.492 -0.4658 -0.1991 -0.1367
12570TIP3    H159125   6.715   4.034  12.492 -0.7792 -0.2807  1.4626
12570TIP3    H259126   6.609   4.139  12.517  0.3403  0.5365  2.9129
12571TIP3   OH259127   0.293   5.724   6.033  0.4205  0.8787 -0.0600
12571TIP3    H159128   0.272   5.777   5.956 -1.6349 -0.5310 -0.5397
12571TIP3    H259129   0.313   5.789   6.101  0.2290  2.1977 -1.2055
12572TIP3   OH259130   4.987   2.590  10.286  0.2685 -0.3574 -0.5830
12572TIP3    H159131   5.000   2.502  10.323 -0.5558 -0.1798  0.1594
12572TIP3    H259132   5.069   2.636  10.304 -0.0684 -0.3051  0.9977
12573TIP3   OH259133   2.651   5.059  12.156  0.6898  0.1723 -0.2279
12573TIP3    H159134   2.582   4.994  12.169  0.6175  0.4391  0.8083
12573TIP3    H259135   2.731   5.015  12.182  0.4786  0.8767  1.8626
12574TIP3   OH259136   4.964   1.190   1.721  0.2477 -0.5981 -0.1567
12574TIP3    H159137   4.968   1.106   1.765  0.4293 -0.2368  0.5261
12574TIP3    H259138   4.890   1.235   1.762  0.1899 -0.3945 -0.4752
12575TIP3   OH259139   3.722   0.824   3.090 -0.2441 -0.0134 -0.0668
12575TIP3    H159140   3.723   0.746   3.035  0.4852 -0.7876  1.0020
12575TIP3    H259141   3.784   0.884   3.049  2.2595 -1.5718  1.2171
12576TIP3   OH259142   5.339   0.728   3.163  0.4577  0.6347 -0.6807
12576TIP3    H159143   5.249   0.742   3.193  0.2211  2.4047 -2.0968
12576TIP3    H259144   5.394   0.760   3.234  0.1597 -3.0061  1.4720
12577TIP3   OH259145   3.725   2.125  13.915  0.5061 -0.1161 -1.1479
12577TIP3    H159146   3.686   2.157  13.996 -0.8874 -0.9394 -1.4548
12577TIP3    H259147   3.811   2.167  13.911  1.1486 -1.0210  1.3698
12578TIP3   OH259148   6.137   1.927  13.784  1.0011 -0.2883 -0.1067
12578TIP3    H159149   6.195   1.891  13.851  0.2972 -0.9598  0.1620
12578TIP3    H259150   6.104   1.850  13.738 -0.3804  0.0146  0.3402
12579TIP3   OH259151   1.569   1.446  14.128  0.0096 -0.5166 -0.4057
12579TIP3    H159152   1.648   1.394  14.113  1.0963  0.8647  0.3790
12579TIP3    H259153   1.572   1.515  14.061 -0.7816 -0.7043 -0.6566
12580TIP3   OH259154   4.022   6.142  16.691  0.2011 -0.0530 -0.2861
12580TIP3    H159155   4.093   6.179  16.743  0.1971 -1.2370  0.5866
12580TIP3    H259156   4.045   6.050  16.680 -1.7194 -0.7635  0.9963
12581TIP3   OH259157   4.757   4.955   4.111  0.4104 -0.1822  0.3450
12581TIP3    H159158   4.668   4.948   4.077  0.4019  1.5664 -0.1217
12581TIP3    H259159   4.810   4.902   4.051 -0.3138 -1.3970  0.7473
12582TIP3   OH259160   2.447   0.851  16.750  0.4719 -0.6847 -0.1279
12582TIP3    H159161   2.515   0.786  16.763  0.5079 -0.5263  0.4930
12582TIP3    H259162   2.492   0.935  16.757 -0.2619 -0.4381  3.7162
12583TIP3   OH259163   2.869   2.476  14.989  0.0422  0.0353  0.4199
12583TIP3    H159164   2.945   2.450  14.937 -0.2917  1.1917 -0.6975
12583TIP3    H259165   2.840   2.558  14.949 -2.7938 -1.1960 -0.2395
12584TIP3   OH259166   1.140   2.285   0.093  0.3178 -0.0706  0.4954
12584TIP3    H159167   1.074   2.329   0.040 -0.8988 -1.0576  1.1488
12584TIP3    H259168   1.167   2.210   0.040  0.5733  0.0576  0.4396
12585TIP3   OH259169   1.285   6.147   5.768 -0.4753 -0.3649 -0.0547
12585TIP3    H159170   1.284   6.054   5.749  0.1065 -0.6949  1.3524
12585TIP3    H259171   1.378   6.168   5.781 -0.7767 -0.3320  2.7025
12586TIP3   OH259172   0.998   1.769   2.852 -0.0811  0.2920 -0.1370
12586TIP3    H159173   0.947   1.845   2.878 -0.5691 -0.6539  1.9248
12586TIP3    H259174   1.068   1.764   2.918  0.6332 -0.3743 -0.9255
12587TIP3   OH259175   6.080   2.868   1.984 -0.0375  0.2227  0.3651
12587TIP3    H159176   6.087   2.773   1.970 -0.3444  0.1596  0.6090
12587TIP3    H259177   5.998   2.892   1.942  0.6264  0.5989 -0.7465
12588TIP3   OH259178   6.492   2.325  15.952  0.5487 -1.0146  0.0854
12588TIP3    H159179   6.426   2.377  15.999  1.1811 -1.1099  1.1165
12588TIP3    H259180   6.573   2.342  15.999  2.3377  2.5336 -3.6512
12589TIP3   OH259181   4.324   4.689  14.365 -0.3894 -0.2831  0.0288
12589TIP3    H159182   4.327   4.597  14.339  0.3473 -0.2620  0.0104
12589TIP3    H259183   4.388   4.697  14.436 -2.1982 -0.2861  1.7520
12590TIP3   OH259184   4.029   5.486   4.200 -0.2056  0.4213  0.5038
12590TIP3    H159185   4.098   5.427   4.170 -0.2120  0.4894  0.3525
12590TIP3    H259186   4.073   5.545   4.261 -0.2547  0.0968  0.8565
12591TIP3   OH259187   4.659   0.681   1.065  0.0935 -0.0463  0.0464
12591TIP3    H159188   4.603   0.703   1.140 -2.5865 -2.6344 -0.9763
12591TIP3    H259189   4.701   0.763   1.041 -1.5640  1.5818  2.3119
12592TIP3   OH259190   5.560   6.509   5.565 -0.2424 -0.1121 -0.1650
12592TIP3    H159191   5.616   6.456   5.509  0.9354 -2.1148  2.6901
12592TIP3    H259192   5.619   6.573   5.605 -0.7435  0.3053 -0.0831
12593TIP3   OH259193   1.953   3.344   4.332  0.4688  0.0976 -0.4379
12593TIP3    H159194   1.940   3.249   4.324 -0.0858  0.1652 -0.3751
12593TIP3    H259195   1.872   3.382   4.300  1.4496  0.6191 -2.4933
12594TIP3   OH259196   1.725   3.100   3.550 -0.7143 -0.5051  0.0389
12594TIP3    H159197   1.678   3.097   3.466  2.5073  0.2609 -1.9489
12594TIP3    H259198   1.680   3.168   3.599 -2.3363 -0.5524 -1.2620
12595TIP3   OH259199   1.516   0.107  12.010  0.8716 -0.0858  0.2362
12595TIP3    H159200   1.506   0.012  12.001  2.0812 -0.4754  2.3340
12595TIP3    H259201   1.505   0.124  12.103 -0.7919  2.0870 -0.2569
12596TIP3   OH259202   5.031   5.959  17.263 -0.6748 -0.1077 -0.1645
12596TIP3    H159203   5.116   5.973  17.221 -1.3247  1.3071 -1.0896
12596TIP3    H259204   5.049   5.971  17.356  0.2934 -0.6546 -0.2663
12597TIP3   OH259205   2.445   1.250   5.001  0.1120  0.1484  0.4196
12597TIP3    H159206   2.429   1.331   4.953  0.3192  1.1165  1.9108
12597TIP3    H259207   2.416   1.269   5.090  1.3832 -0.9607  1.1127
12598TIP3   OH259208   3.816   1.503  13.165 -0.3610 -0.2782 -0.4248
12598TIP3    H159209   3.864   1.527  13.244  0.1055  1.5093 -1.1937
12598TIP3    H259210   3.739   1.561  13.165 -0.5331 -0.4978 -1.1012
12599TIP3   OH259211   1.567   1.111  16.543  0.1284  0.0375 -0.4474
12599TIP3    H159212   1.504   1.049  16.581  2.4364 -0.7561  2.5189
12599TIP3    H259213   1.535   1.197  16.571 -0.7579 -0.1644 -0.8023
12600TIP3   OH259214   1.057   1.992  12.416  0.4358  0.4615  0.4805
12600TIP3    H159215   1.138   2.019  12.373  0.3527 -1.0535 -0.6978
12600TIP3    H259216   1.040   1.903  12.383 -1.2776  0.4304  1.3164
12601TIP3   OH259217   5.982   5.452  13.534  0.5809  0.0594 -0.0790
12601TIP3    H159218   6.044   5.386  13.564  0.2618  0.5504  1.8166
12601TIP3    H259219   5.931   5.473  13.612  0.0748  1.8830 -0.8568
12602TIP3   OH259220   1.814   6.470  14.493  0.5941  0.0447  0.1772
12602TIP3    H159221   1.861   6.476  14.576  1.4548  0.1496 -0.3052
12602TIP3    H259222   1.855   6.396  14.448  0.4025  0.2366 -0.3166
12603TIP3   OH259223   0.756   0.115  15.272  0.2288  0.3011 -0.3894
12603TIP3    H159224   0.724   0.091  15.359  0.1383  3.1195  0.4622
12603TIP3    H259225   0.784   0.032  15.233 -0.4050 -1.1549  2.0197
12604TIP3   OH259226   3.661   2.491   2.192 -0.4531 -0.7064  0.1391
12604TIP3    H159227   3.634   2.530   2.276 -2.8543 -1.1755 -0.3196
12604TIP3    H259228   3.753   2.469   2.204 -0.4738  0.1105  2.3191
12605TIP3   OH259229   0.917   6.612  13.641 -0.1854 -0.2924 -0.3867
12605TIP3    H159230   0.995   6.643  13.596 -1.1102  0.9455 -1.1855
12605TIP3    H259231   0.941   6.526  13.674  1.8358  0.4622  0.2391
12606TIP3   OH259232   3.868   5.702  16.591 -0.7693  0.0911  0.2164
12606TIP3    H159233   3.923   5.767  16.635  1.1431  0.1546 -2.0446
12606TIP3    H259234   3.780   5.740  16.590 -0.3871  1.0809  1.8699
12607TIP3   OH259235   4.941   1.939   6.530 -0.2735  0.0213 -0.0674
12607TIP3    H159236   4.857   1.976   6.558  0.5290  2.4796 -0.6624
12607TIP3    H259237   4.949   1.964   6.438  1.1303 -0.1249 -0.0134
12608TIP3   OH259238   4.429   4.587  13.824  0.5364  0.0716 -0.4173
12608TIP3    H159239   4.418   4.611  13.916 -3.2334 -0.5063 -0.5580
12608TIP3    H259240   4.462   4.497  13.826 -0.7907 -0.4325  0.4803
12609TIP3   OH259241   3.994   0.820  15.032 -0.2724  0.0271  0.1553
12609TIP3    H159242   3.961   0.731  15.028  0.8267 -0.4554  1.3034
12609TIP3    H259243   4.036   0.827  15.118 -1.2602  1.9771  0.5519
12610TIP3   OH259244   3.730   1.336   1.474  0.6151 -0.0858  0.2749
12610TIP3    H159245   3.711   1.389   1.552  1.7905  0.6274  0.0949
12610TIP3    H259246   3.714   1.246   1.503  1.4175  0.1259  1.4821
12611TIP3   OH259247   6.592   6.361   3.605  0.2699 -0.1561 -0.5306
12611TIP3    H159248   6.585   6.342   3.698  3.4147  1.6265  0.1806
12611TIP3    H259249   6.555   6.449   3.595  0.1026 -0.2698 -0.9531
12612TIP3   OH259250   0.085   0.951  10.813 -0.6278 -0.2028  0.7719
12612TIP3    H159251   0.021   0.892  10.775  0.1976 -0.1759 -0.7526
12612TIP3    H259252   0.071   1.035  10.768  0.7608 -0.3264  0.0406
12613TIP3   OH259253   5.592   6.731   4.295 -0.1187  0.2124  0.1763
12613TIP3    H159254   5.617   6.639   4.289 -0.1484  0.2611 -1.1606
12613TIP3    H259255   5.642   6.765   4.369  1.1444 -0.4976 -0.3194
12614TIP3   OH259256   4.147   2.495   2.687  0.3256 -0.0453 -0.1206
12614TIP3    H159257   4.144   2.533   2.775 -0.2402  0.8233 -0.5044
12614TIP3    H259258   4.160   2.569   2.629 -0.1092 -0.5196 -0.8412
12615TIP3   OH259259   2.623   2.635  11.036  0.6530  0.2030 -0.3586
12615TIP3    H159260   2.601   2.723  11.005  0.5222 -0.5349 -2.5002
12615TIP3    H259261   2.715   2.622  11.012  0.7304 -0.1817  0.1172
12616TIP3   OH259262   1.226   4.646   1.947 -0.1565  0.1100 -0.3953
12616TIP3    H159263   1.220   4.695   1.865  0.2891  0.2980 -0.3190
12616TIP3    H259264   1.163   4.575   1.937  0.8547 -0.6737 -1.4646
12617TIP3   OH259265   5.590   5.464   3.099 -0.4768  0.5719 -0.6775
12617TIP3    H159266   5.670   5.417   3.077  0.2284  1.1133  0.6218
12617TIP3    H259267   5.619   5.553   3.117 -1.3303  0.7043  0.1029
12618TIP3   OH259268   0.243   4.772   5.755  0.0382 -0.9938  0.7887
12618TIP3    H159269   0.266   4.805   5.841  0.4832  3.1109 -0.6838
12618TIP3    H259270   0.300   4.696   5.742  2.3297  0.2483  2.8313
12619TIP3   OH259271   1.243   6.103  13.608  0.3271 -0.2390 -0.4792
12619TIP3    H159272   1.316   6.046  13.633  0.6836  0.2555 -0.3835
12619TIP3    H259273   1.262   6.186  13.651 -0.8503 -0.4204  0.4308
12620TIP3   OH259274   6.367   4.224  14.775  0.0561 -0.6918 -0.4703
12620TIP3    H159275   6.422   4.146  14.779  2.4372  0.7624 -1.9497
12620TIP3    H259276   6.309   4.209  14.700  1.5035 -0.5133 -1.6761
12621TIP3   OH259277   1.143   1.562  12.762 -0.3999 -0.3830 -0.1061
12621TIP3    H159278   1.052   1.534  12.749 -0.3728 -0.8589  0.6264
12621TIP3    H259279   1.167   1.524  12.847  0.4798 -0.2574 -0.2911
12622TIP3   OH259280   3.796   0.363   5.206 -0.4923  0.4780  0.5892
12622TIP3    H159281   3.718   0.308   5.203 -1.9573  2.4017  1.5746
12622TIP3    H259282   3.864   0.306   5.242 -0.6143 -2.0450 -2.7049
12623TIP3   OH259283   5.071   5.477   6.033 -0.3807 -0.4673  0.2526
12623TIP3    H159284   5.100   5.529   5.958  0.5467 -2.5612 -0.9263
12623TIP3    H259285   4.976   5.483   6.031 -0.3065  0.8765 -0.0518
12624TIP3   OH259286   4.902   0.592  13.529  0.5195 -0.0953 -0.2461
12624TIP3    H159287   4.929   0.675  13.569 -0.0946 -0.3795  0.7794
12624TIP3    H259288   4.981   0.539  13.528  0.7390  0.2283 -0.2055
12625TIP3   OH259289   5.748   5.187   0.251  0.0291 -0.8164  0.3250
12625TIP3    H159290   5.677   5.250   0.250  0.2025 -0.6189 -0.3322
12625TIP3    H259291   5.816   5.227   0.196 -0.2917 -2.0440 -1.0375
12626TIP3   OH259292   5.448   6.191   3.300  0.0768 -0.4062 -0.4582
12626TIP3    H159293   5.467   6.280   3.330  0.7590 -0.7771  0.2285
12626TIP3    H259294   5.485   6.134   3.367  0.1317 -1.2209 -1.1636
12627TIP3   OH259295   5.354   3.662   6.314 -0.3264  0.4436 -0.2869
12627TIP3    H159296   5.318   3.686   6.229 -1.1099  1.4135  0.2935
12627TIP3    H259297   5.305   3.584   6.339 -2.4157  1.9612  0.6657
12628TIP3   OH259298   3.600   0.921  10.658  0.4880  0.3226  0.1039
12628TIP3    H159299   3.637   0.950  10.574 -0.4189  0.0981 -0.3851
12628TIP3    H259300   3.532   0.986  10.678 -2.8793 -2.2411 -1.9209
12629TIP3   OH259301   0.957   1.981  16.520  0.0944  0.3564  0.2944
12629TIP3    H159302   0.939   1.899  16.567 -1.1366 -0.5327 -1.5856
12629TIP3    H259303   0.900   2.045  16.562 -0.8533 -0.3682  0.1674
12630TIP3   OH259304   3.253   3.454   5.335 -0.0462 -0.2851 -0.2125
12630TIP3    H159305   3.220   3.462   5.424 -3.4937 -3.4267 -0.9871
12630TIP3    H259306   3.330   3.397   5.344 -0.7122 -1.0855  0.7744
12631TIP3   OH259307   2.238   6.461  16.095  0.1933  0.0709 -0.3392
12631TIP3    H159308   2.197   6.547  16.085  3.2920  1.7772  0.1870
12631TIP3    H259309   2.237   6.445  16.190  0.4422 -0.0127 -0.3493
12632TIP3   OH259310   6.302   5.073  15.876 -0.4314 -0.0855  0.8107
12632TIP3    H159311   6.345   5.051  15.958  0.3025 -0.6658  0.2814
12632TIP3    H259312   6.271   4.989  15.842  0.2751 -0.0115 -0.0551
12633TIP3   OH259313   4.386   3.833  12.792 -0.3384  0.2811 -0.0653
12633TIP3    H159314   4.463   3.857  12.741 -0.0051 -1.1063 -0.2385
12633TIP3    H259315   4.391   3.738  12.801 -2.0666  0.1476 -0.1581
12634TIP3   OH259316   1.186   2.286  14.437 -0.3587 -0.2244 -0.1912
12634TIP3    H159317   1.251   2.224  14.470  0.7580  1.2052  0.4423
12634TIP3    H259318   1.168   2.344  14.512 -1.3455  0.2155 -0.7551
12635TIP3   OH259319   5.834   3.195   1.564  0.2128 -0.0506  0.4588
12635TIP3    H159320   5.797   3.137   1.630 -0.9502 -1.0472 -1.0157
12635TIP3    H259321   5.772   3.193   1.492  1.8279  0.3636 -1.0203
12636TIP3   OH259322   3.850   0.499  14.479  0.2118 -0.0091  0.0089
12636TIP3    H159323   3.809   0.568  14.532 -2.1277 -1.5343  0.3083
12636TIP3    H259324   3.804   0.419  14.503  1.6765 -1.4215 -1.5949
12637TIP3   OH259325   0.168   2.306   5.573 -0.5476  0.0409  0.4283
12637TIP3    H159326   0.200   2.229   5.527 -2.0483  0.4102 -1.3915
12637TIP3    H259327   0.246   2.350   5.606  0.5601 -0.6404 -1.1984
12638TIP3   OH259328   1.893   3.707   3.543 -0.4930  0.0820 -0.1443
12638TIP3    H159329   1.923   3.777   3.601  0.4613 -1.0394  0.7722
12638TIP3    H259330   1.971   3.653   3.529 -1.4518 -1.4167  0.1127
12639TIP3   OH259331   6.715   5.212  13.499 -0.0207  0.4400  0.6430
12639TIP3    H159332   6.626   5.236  13.474  0.7943  1.3662 -1.5673
12639TIP3    H259333   6.725   5.121  13.469 -0.0190  0.5467  0.3222
12640TIP3   OH259334   2.596   5.809   0.177  0.1888 -0.4119 -0.2173
12640TIP3    H159335   2.592   5.904   0.191 -0.3785 -0.0601 -2.3627
12640TIP3    H259336   2.686   5.785   0.201  1.2069  1.1726 -2.1446
12641TIP3   OH259337   6.282   0.138   6.488 -0.2525  0.5733  0.0318
12641TIP3    H159338   6.216   0.189   6.536 -0.8069  2.1661 -2.2442
12641TIP3    H259339   6.315   0.075   6.552 -1.3262  2.1712  2.3092
12642TIP3   OH259340   4.854   1.816   4.025 -0.3800 -0.3818  0.2490
12642TIP3    H159341   4.861   1.732   3.979 -1.3551  0.1213 -0.8569
12642TIP3    H259342   4.828   1.792   4.114 -0.8035 -1.2544 -0.0961
12643TIP3   OH259343   3.256   6.053  13.504  0.4278  0.3251  0.3851
12643TIP3    H159344   3.247   5.959  13.496 -2.3773  0.6250 -0.9660
12643TIP3    H259345   3.226   6.073  13.593 -1.0299  0.0920 -0.0286
12644TIP3   OH259346   5.620   1.065  17.212 -0.7238  0.5841 -0.1290
12644TIP3    H159347   5.665   1.100  17.135 -1.4371  0.1962 -0.7354
12644TIP3    H259348   5.691   1.030  17.267 -0.2537  0.1497 -0.9802
12645TIP3   OH259349   1.810   3.672   3.100 -0.0090  0.0842 -0.4475
12645TIP3    H159350   1.791   3.742   3.162 -0.3829 -0.2161 -0.2131
12645TIP3    H259351   1.820   3.594   3.155  0.0213 -0.1167 -0.7340
12646TIP3   OH259352   6.604   2.559   4.878  0.0876 -0.3247 -0.4026
12646TIP3    H159353   6.628   2.467   4.890  0.1962 -0.2898 -0.3546
12646TIP3    H259354   6.530   2.556   4.817 -1.6774 -0.6416  1.6378
12647TIP3   OH259355   0.187   3.201  11.979  0.1998 -0.3883 -0.0327
12647TIP3    H159356   0.189   3.147  12.059 -1.2053 -0.3663  0.0537
12647TIP3    H259357   0.278   3.205  11.950  0.6567 -0.8841  1.2475
12648TIP3   OH259358   1.843   6.710  14.192 -0.5602 -0.7817 -0.5553
12648TIP3    H159359   1.750   6.701  14.171 -0.9997 -0.3085  1.0253
12648TIP3    H259360   1.888   6.663  14.122 -2.1086 -3.3905  0.0581
12649TIP3   OH259361   0.325   5.031  12.165  0.2637 -0.0113  0.0771
12649TIP3    H159362   0.376   4.995  12.092 -0.0966  1.5730 -1.0210
12649TIP3    H259363   0.389   5.079  12.218  0.0472  1.7723 -1.1687
12650TIP3   OH259364   4.408   1.046  12.243 -0.4112 -0.3850 -0.7250
12650TIP3    H159365   4.503   1.047  12.240 -0.2920 -1.1799  0.9723
12650TIP3    H259366   4.384   0.963  12.202 -0.4131  0.0081 -1.5334
12651TIP3   OH259367   5.409   6.331  14.328  0.4547 -0.4372  0.5266
12651TIP3    H159368   5.441   6.317  14.239 -0.5495 -2.1402  0.3773
12651TIP3    H259369   5.417   6.425  14.342 -0.9959  0.1650 -2.0337
12652TIP3   OH259370   3.310   3.790   5.864  0.3374  0.5711 -0.2823
12652TIP3    H159371   3.345   3.701   5.860 -2.4029 -0.5945 -0.6003
12652TIP3    H259372   3.346   3.826   5.945  0.2408 -1.4533  0.7350
12653TIP3   OH259373   1.316   2.671  16.177 -0.7831  0.4584 -0.7893
12653TIP3    H159374   1.320   2.575  16.181  3.0623  0.5144  0.9441
12653TIP3    H259375   1.407   2.699  16.187 -1.8308  4.3463 -0.7101
12654TIP3   OH259376   2.666   3.840   2.235  0.2275  0.1460  0.4667
12654TIP3    H159377   2.717   3.902   2.183  1.8064 -0.7019  0.9498
12654TIP3    H259378   2.606   3.895   2.285  1.5468  1.3070  0.8432
12655TIP3   OH259379   6.249   6.348   3.960  0.3804  0.3977  0.6621
12655TIP3    H159380   6.154   6.362   3.965  0.0646 -1.6666  1.4293
12655TIP3    H259381   6.258   6.254   3.944  2.3130  0.6735 -0.1170
12656TIP3   OH259382   0.560   4.924  16.913 -0.3016 -0.4820  0.0257
12656TIP3    H159383   0.516   4.875  16.983 -1.5523  0.2320 -0.2439
12656TIP3    H259384   0.601   4.997  16.959  0.7588 -1.2133  0.2929
12657TIP3   OH259385   5.430   4.186  16.789  0.2579 -0.2205 -0.2493
12657TIP3    H159386   5.516   4.145  16.778  0.4844 -0.3849  1.6819
12657TIP3    H259387   5.374   4.142  16.725  1.4083 -0.7165 -0.9565
12658TIP3   OH259388   4.555   2.203   1.058 -0.0768  0.4059 -0.5214
12658TIP3    H159389   4.550   2.137   1.127  0.7164 -1.4386 -2.1302
12658TIP3    H259390   4.614   2.270   1.093 -1.9905  1.0549  1.7036
12659TIP3   OH259391   4.113   0.024   5.724  0.1102  0.2205 -0.3904
12659TIP3    H159392   4.123   0.102   5.778  0.1107 -0.6529  0.9196
12659TIP3    H259393   4.160  -0.045   5.772 -1.4689 -1.0261 -0.5365
12660TIP3   OH259394   5.174   1.601   3.720  0.4640 -0.1634  0.0987
12660TIP3    H159395   5.114   1.664   3.759 -0.3085 -0.4722 -0.5481
12660TIP3    H259396   5.261   1.627   3.751  0.3222  1.9207 -1.0616
12661TIP3   OH259397   0.128   2.339   2.354  0.4277 -0.3494 -0.1964
12661TIP3    H159398   0.132   2.339   2.258  0.8175 -0.9440 -0.1896
12661TIP3    H259399   0.074   2.263   2.375  1.3750 -0.9714  0.0752
12662TIP3   OH259400   5.156   2.655  12.783 -0.1631 -0.0670 -0.1392
12662TIP3    H159401   5.136   2.746  12.805  0.5316 -0.2131  1.1719
12662TIP3    H259402   5.072   2.610  12.789 -0.2686  0.2191  0.6689
12663TIP3   OH259403   5.942   3.055  15.836 -0.3335 -0.1071  0.3336
12663TIP3    H159404   5.969   3.126  15.777 -0.4623  1.8041  2.4421
12663TIP3    H259405   5.883   3.001  15.783  0.9582  0.4667 -1.8059
12664TIP3   OH259406   6.547   6.518   0.354  0.0307  0.1229  0.1137
12664TIP3    H159407   6.480   6.472   0.405 -0.2940 -0.0436 -0.4518
12664TIP3    H259408   6.630   6.488   0.391 -0.2019  0.7534  1.1948
12665TIP3   OH259409   2.355   1.950   0.736 -0.5648  0.2082  0.5772
12665TIP3    H159410   2.259   1.954   0.736 -0.7237 -1.9484  1.3196
12665TIP3    H259411   2.375   1.871   0.686  0.7569  0.0310  1.3431
12666TIP3   OH259412   1.968   5.833   3.933  0.6182 -0.5054 -0.0386
12666TIP3    H159413   2.043   5.866   3.883  2.1455 -2.2085  1.0103
12666TIP3    H259414   1.962   5.741   3.909 -0.9895 -0.4686  0.1232
12667TIP3   OH259415   1.931   5.356  14.089 -0.1908 -0.6717 -0.4849
12667TIP3    H159416   1.908   5.380  14.179 -0.5921 -0.6231 -0.5948
12667TIP3    H259417   1.930   5.261  14.088 -0.1880 -0.6718 -0.4339
12668TIP3   OH259418   3.274   0.438   5.119  0.6303 -0.9637 -0.1456
12668TIP3    H159419   3.196   0.493   5.122  2.5845  2.0239 -0.4638
12668TIP3    H259420   3.317   0.451   5.203  0.6868 -2.8255  0.1547
12669TIP3   OH259421   2.878   1.492  13.598  0.3612  0.0571 -0.0779
12669TIP3    H159422   2.858   1.485  13.691  0.3103 -0.2337 -0.1081
12669TIP3    H259423   2.808   1.546  13.562 -0.6719 -1.3567 -0.2706
12670TIP3   OH259424   0.891   0.713   4.103  0.0808 -0.0738 -0.2048
12670TIP3    H159425   0.817   0.760   4.141  0.2986  0.5240 -0.4940
12670TIP3    H259426   0.968   0.760   4.135  0.2934 -0.0165 -0.7772
12671TIP3   OH259427   2.739   4.811  11.773  0.0971  0.5509  0.1460
12671TIP3    H159428   2.646   4.832  11.779  0.2068  1.1399 -0.2009
12671TIP3    H259429   2.783   4.895  11.777  0.5298  0.4476 -1.6402
12672TIP3   OH259430   2.973   2.694  11.755 -0.4726 -0.3182  0.1871
12672TIP3    H159431   2.997   2.693  11.662 -0.3745 -1.2269  0.2182
12672TIP3    H259432   2.975   2.787  11.779 -1.4455  0.0214 -0.9592
12673TIP3   OH259433   1.432   3.258   4.051 -0.0246 -0.1867 -0.3781
12673TIP3    H159434   1.368   3.194   4.018 -1.2839  0.4693  0.6981
12673TIP3    H259435   1.408   3.340   4.008 -0.3462  0.2067  0.5166
12674TIP3   OH259436   5.891   0.857  15.958 -0.1060  0.7088 -0.1607
12674TIP3    H159437   5.844   0.895  16.032 -0.0273 -0.0122  0.2785
12674TIP3    H259438   5.834   0.872  15.883 -1.2050 -0.4160  0.4118
12675TIP3   OH259439   1.790   3.672  14.723  0.0535 -0.0743 -0.0459
12675TIP3    H159440   1.822   3.759  14.746 -1.4632  0.5689 -0.2505
12675TIP3    H259441   1.763   3.680  14.631 -2.2231 -0.0573  0.5566
12676TIP3   OH259442   2.457   1.122   3.855  0.5685 -0.2130 -0.0915
12676TIP3    H159443   2.372   1.161   3.836  0.6737 -0.0290 -0.1870
12676TIP3    H259444   2.511   1.141   3.778  0.6958 -0.3274 -0.0322
12677TIP3   OH259445   2.912   0.665   1.953 -0.1102 -0.2417  0.3057
12677TIP3    H159446   2.843   0.625   1.900 -1.6790  2.4909  0.1064
12677TIP3    H259447   2.874   0.671   2.041  0.8054 -0.8307  0.7541
12678TIP3   OH259448   1.725   0.359  12.281  0.9361 -0.5316 -0.1276
12678TIP3    H159449   1.665   0.433  12.270  4.0929  2.3242  0.2380
12678TIP3    H259450   1.727   0.344  12.376  1.7058  0.2607 -0.0060
12679TIP3   OH259451   0.951   0.322  10.997 -0.2306 -0.6647  0.2858
12679TIP3    H159452   0.985   0.392  10.941 -1.3208 -2.0092 -2.2099
12679TIP3    H259453   0.866   0.355  11.028  0.8771  0.5620  2.2711
12680TIP3   OH259454   3.912   2.580  14.431  0.0911 -0.6767 -0.2919
12680TIP3    H159455   3.823   2.554  14.409 -0.3456  0.3699  0.1651
12680TIP3    H259456   3.901   2.651  14.495  1.2605 -1.2417  0.5846
12681TIP3   OH259457   4.507   1.547  15.222  0.0656  0.0020 -0.6297
12681TIP3    H159458   4.489   1.612  15.290  0.0136 -0.4858 -0.1684
12681TIP3    H259459   4.426   1.540  15.173 -0.4008 -0.7532  0.2172
12682TIP3   OH259460   3.543   1.222  10.280 -0.5242  0.1156 -0.0145
12682TIP3    H159461   3.592   1.145  10.310 -0.7111  1.0713  3.1106
12682TIP3    H259462   3.609   1.285  10.253 -0.1395  0.2133  1.1020
12683TIP3   OH259463   3.326   1.247  12.283 -0.0835  0.1735  0.4254
12683TIP3    H159464   3.236   1.270  12.257 -0.4812 -0.0503  1.5608
12683TIP3    H259465   3.381   1.292  12.219 -1.0153 -0.3851 -0.8265
12684TIP3   OH259466   3.467   2.066  10.518 -0.2610  0.4105 -0.1320
12684TIP3    H159467   3.512   2.150  10.530 -1.0884  0.8237  0.1792
12684TIP3    H259468   3.429   2.047  10.604 -0.6415  0.0514 -0.3754
12685TIP3   OH259469   4.509   4.692   5.493  0.0072 -0.0189 -0.0440
12685TIP3    H159470   4.464   4.751   5.433  1.4274  1.6894  0.4960
12685TIP3    H259471   4.455   4.693   5.573 -0.5438 -0.3426 -0.4005
12686TIP3   OH259472   6.244   1.654  11.911 -0.1210 -0.1970  0.5309
12686TIP3    H159473   6.224   1.605  11.831 -0.8424  0.8439  0.0543
12686TIP3    H259474   6.192   1.734  11.903 -0.4203 -0.2004  2.1761
12687TIP3   OH259475   2.123   2.532  14.935  0.4537  0.0607 -0.0423
12687TIP3    H159476   2.069   2.564  15.007  0.7450  0.1424  0.1367
12687TIP3    H259477   2.162   2.611  14.897  1.1338 -0.0758  0.3701
12688TIP3   OH259478   2.336   0.531   0.100  0.1689  0.3642 -0.1793
12688TIP3    H159479   2.314   0.600   0.038 -1.5359 -1.8063 -2.2043
12688TIP3    H259480   2.329   0.450   0.049  2.3158 -1.3319  1.9866
12689TIP3   OH259481   3.959   2.373   2.267  0.1146 -0.3336 -0.6312
12689TIP3    H159482   3.961   2.355   2.361 -1.5475  2.8457  0.1513
12689TIP3    H259483   4.039   2.423   2.251 -0.6541  1.0265 -0.3776
12690TIP3   OH259484   1.542   2.974  16.650  0.1177 -0.3653 -0.7175
12690TIP3    H159485   1.473   2.952  16.587 -0.7304 -1.1415  0.4586
12690TIP3    H259486   1.601   3.032  16.601 -0.5153 -0.9440 -2.2244
12691TIP3   OH259487   1.699   5.197   0.639  0.1991  0.0908  0.5400
12691TIP3    H159488   1.697   5.131   0.707 -1.6578  0.5323  0.9692
12691TIP3    H259489   1.685   5.149   0.557 -0.5801 -0.1304  0.7942
12692TIP3   OH259490   1.776   3.051  15.321  0.1566  0.6516  0.6689
12692TIP3    H159491   1.722   3.023  15.247  3.0115 -2.2163 -0.5712
12692TIP3    H259492   1.744   3.000  15.395 -0.7344  1.2606  0.7237
12693TIP3   OH259493   3.187   0.187  12.838  0.0144 -0.7308 -0.0050
12693TIP3    H159494   3.137   0.173  12.918 -1.3746  0.2193 -0.6881
12693TIP3    H259495   3.256   0.120  12.841 -0.4987 -1.2137  1.5831
12694TIP3   OH259496   5.088   5.720   5.349  0.3287 -0.1801  0.3830
12694TIP3    H159497   5.042   5.677   5.277 -0.5341  1.3160 -0.0148
12694TIP3    H259498   5.038   5.800   5.364  1.3600  0.2538  1.6680
12695TIP3   OH259499   0.481   6.375  11.650 -0.0946 -0.3560 -0.4820
12695TIP3    H159500   0.445   6.319  11.582 -1.5842 -0.1085  0.0747
12695TIP3    H259501   0.422   6.450  11.653 -0.4156 -0.6438  1.4822
12696TIP3   OH259502   1.684   3.530  11.122  0.0328  0.1691 -0.1781
12696TIP3    H159503   1.675   3.514  11.028 -0.6646 -0.4261 -0.0158
12696TIP3    H259504   1.775   3.508  11.142  0.2944  0.6666 -0.7770
12697TIP3   OH259505   1.127   1.372   4.982 -0.6232 -0.1056 -0.4598
12697TIP3    H159506   1.045   1.343   5.022 -0.1789 -0.1631  0.4254
12697TIP3    H259507   1.162   1.294   4.940 -0.4902 -0.3432  0.0865
12698TIP3   OH259508   2.290   5.313  16.865  0.2300  0.0781 -0.2403
12698TIP3    H159509   2.247   5.286  16.783 -0.7005  0.0587  0.2448
12698TIP3    H259510   2.325   5.232  16.901 -0.9113 -0.2123  0.2598
12699TIP3   OH259511   2.639   2.030   0.169  0.0166 -0.0444 -0.3579
12699TIP3    H159512   2.633   2.055   0.261 -1.3271 -2.4592  0.2813
12699TIP3    H259513   2.726   1.990   0.161 -0.8693 -2.3689  0.6479
12700TIP3   OH259514   6.255   1.159  15.416 -0.0891  0.2548 -0.1814
12700TIP3    H159515   6.226   1.080  15.462 -0.3497 -1.4443 -3.0766
12700TIP3    H259516   6.346   1.141  15.392  0.0927  1.1732 -0.2252
12701TIP3   OH259517   0.468   6.467  17.021 -0.5267  0.2293  0.4986
12701TIP3    H159518   0.541   6.509  17.067  0.4196 -0.5303 -0.2425
12701TIP3    H259519   0.509   6.429  16.943 -1.6122 -0.7463  0.3825
12702TIP3   OH259520   0.409   1.594   0.601  0.6311  0.0818 -0.1140
12702TIP3    H159521   0.318   1.624   0.604  0.2551 -0.9111 -0.9273
12702TIP3    H259522   0.420   1.545   0.683  0.3845  0.0540 -0.0952
12703TIP3   OH259523   4.360   4.213  10.441 -0.0942 -0.4830  0.5929
12703TIP3    H159524   4.312   4.295  10.449 -2.4727 -1.4656 -2.0925
12703TIP3    H259525   4.300   4.153  10.397  3.0608 -2.3224 -1.6881
12704TIP3   OH259526   5.027   3.685   5.095  1.0876 -0.3395  0.0934
12704TIP3    H159527   5.122   3.687   5.090  1.1576  0.0670  1.2359
12704TIP3    H259528   4.998   3.765   5.052  1.3308  0.1163  0.7609
12705TIP3   OH259529   0.281   1.617   5.610 -0.4407  0.1511 -0.2485
12705TIP3    H159530   0.297   1.549   5.675 -0.0503 -0.8889 -1.4002
12705TIP3    H259531   0.355   1.677   5.620  2.1658 -2.3381 -2.6139
12706TIP3   OH259532   3.431   2.103  11.561 -0.4065  0.1729  0.8415
12706TIP3    H159533   3.470   2.167  11.501 -0.3567 -1.8807 -1.4754
12706TIP3    H259534   3.354   2.070  11.514 -0.3836 -1.4954  1.8928
12707TIP3   OH259535   4.119   1.845   6.043  0.4001  0.0202 -0.5289
12707TIP3    H159536   4.078   1.914   6.095  0.7899 -1.2158  1.5603
12707TIP3    H259537   4.137   1.885   5.959 -2.1665  1.5459 -0.4543
12708TIP3   OH259538   3.165   1.575   1.391  0.2548  0.0979  0.1620
12708TIP3    H159539   3.215   1.637   1.338 -1.9278  1.6778 -0.2194
12708TIP3    H259540   3.115   1.524   1.327  1.0177 -1.1616  0.5419
12709TIP3   OH259541   1.278   2.189   0.838  0.9525 -0.1712 -0.1730
12709TIP3    H159542   1.234   2.191   0.753  1.1476  1.1525 -0.2563
12709TIP3    H259543   1.336   2.265   0.837  0.5183  0.1973  1.3764
12710TIP3   OH259544   4.806   6.194  12.549 -0.1963 -0.1686 -0.3697
12710TIP3    H159545   4.894   6.195  12.586 -0.3962 -1.2704  0.2014
12710TIP3    H259546   4.820   6.197  12.454  0.4121  0.5662 -0.2625
12711TIP3   OH259547   0.037   6.363   1.787 -0.5358  0.0529 -0.0509
12711TIP3    H159548  -0.037   6.414   1.821 -0.2902 -0.4632  1.3548
12711TIP3    H259549  -0.003   6.296   1.733 -0.9157  1.2371 -1.2977
12712TIP3   OH259550   6.115   2.312   3.479  0.3516  0.7639 -0.2279
12712TIP3    H159551   6.204   2.285   3.498  0.0350  0.6143  1.1945
12712TIP3    H259552   6.062   2.234   3.494 -0.3673  1.6227  2.2411
12713TIP3   OH259553   4.924   0.613  12.588 -0.1227  0.0266 -0.2065
12713TIP3    H159554   4.860   0.543  12.603 -0.3788  0.1356 -0.7788
12713TIP3    H259555   4.880   0.692  12.618  0.7634 -0.2311  2.0174
12714TIP3   OH259556   5.626   2.413   4.340  0.3190 -0.3814 -0.0783
12714TIP3    H159557   5.574   2.409   4.420 -4.0596  0.0721 -2.5838
12714TIP3    H259558   5.654   2.505   4.334  0.4616 -0.3631  0.7460
12715TIP3   OH259559   5.836   3.937   1.124 -0.7467 -0.1691 -0.0113
12715TIP3    H159560   5.758   3.992   1.129 -2.3258 -2.2711  0.0256
12715TIP3    H259561   5.810   3.854   1.164  0.9364 -1.5512 -1.5712
12716TIP3   OH259562   5.420   3.601   3.425 -0.1138  0.1223 -0.0901
12716TIP3    H159563   5.425   3.506   3.437 -0.7801  0.1903  0.8826
12716TIP3    H259564   5.460   3.637   3.503  0.7938  0.6618 -0.7905
12717TIP3   OH259565   3.237   5.449   4.393 -0.0098 -0.2889 -0.1707
12717TIP3    H159566   3.157   5.426   4.441 -0.5612 -0.3497 -1.0921
12717TIP3    H259567   3.252   5.541   4.413  0.4458 -0.6191  1.0624
12718TIP3   OH259568   1.516   5.789  14.743  0.1957 -0.2030  0.6605
12718TIP3    H159569   1.458   5.716  14.763  1.5660 -1.6325 -0.3618
12718TIP3    H259570   1.470   5.866  14.778 -2.9938 -1.0092 -1.3294
12719TIP3   OH259571   2.436   4.038   0.442  0.5162 -0.5017  0.6174
12719TIP3    H159572   2.518   4.084   0.423  0.2796  1.2739  3.4169
12719TIP3    H259573   2.465   3.958   0.487  0.7421 -0.4017  0.6541
12720TIP3   OH259574   0.282   1.409  12.602 -0.1432 -0.2791  0.1017
12720TIP3    H159575   0.355   1.368  12.648  1.3630 -1.8841 -3.3938
12720TIP3    H259576   0.316   1.494  12.575  0.4163 -0.9279 -1.3157
12721TIP3   OH259577   2.880   4.984  14.703 -0.1884 -0.2224  0.2234
12721TIP3    H159578   2.878   4.889  14.709 -0.9199 -0.1516  1.5009
12721TIP3    H259579   2.970   5.008  14.724  0.0534 -0.6368 -0.3306
12722TIP3   OH259580   6.577   5.000  13.885  0.1540  0.4881  0.1290
12722TIP3    H159581   6.559   5.083  13.842  1.1809  0.7634  0.2077
12722TIP3    H259582   6.564   4.934  13.816 -0.7930  0.6926  0.1042
12723TIP3   OH259583   6.481   6.334  15.012  0.1416  0.1447 -0.1067
12723TIP3    H159584   6.444   6.292  15.090  2.1052 -0.7564  0.3977
12723TIP3    H259585   6.408   6.384  14.975 -1.0049  0.1294  1.9723
12724TIP3   OH259586   2.190   1.267  12.626 -0.2959 -0.8414 -0.2923
12724TIP3    H159587   2.256   1.326  12.588 -0.6239 -0.1908  0.1185
12724TIP3    H259588   2.210   1.267  12.720 -1.1462 -0.2824 -0.0987
12725TIP3   OH259589   2.186   1.638   5.877 -0.0810 -0.0406 -0.2884
12725TIP3    H159590   2.117   1.598   5.930 -0.6850  0.3846 -0.7502
12725TIP3    H259591   2.239   1.688   5.940 -1.2100  1.0470 -0.1699
12726TIP3   OH259592   6.363   5.071   3.927  0.3671 -0.0637 -0.1181
12726TIP3    H159593   6.419   5.105   3.858  3.4784 -1.7846  1.3690
12726TIP3    H259594   6.306   5.145   3.950  0.0213  0.9226 -3.5873
12727TIP3   OH259595   5.692   5.285   0.537 -0.0428 -0.3156  0.2182
12727TIP3    H159596   5.645   5.294   0.455 -0.4795  1.7543  0.6359
12727TIP3    H259597   5.686   5.372   0.578 -0.7272 -1.5037  2.8921
12728TIP3   OH259598   3.049   5.443  16.095 -0.0804 -0.1602 -0.1205
12728TIP3    H159599   2.961   5.450  16.132  0.3200  3.2996  0.5757
12728TIP3    H259600   3.107   5.474  16.165  1.4475 -0.0963 -1.3511
12729TIP3   OH259601   1.511   5.799  13.960 -0.4892 -0.2624  0.0795
12729TIP3    H159602   1.510   5.735  13.889  0.0364  0.0328 -0.2025
12729TIP3    H259603   1.602   5.826  13.967 -0.5997 -0.0109  0.6217
12730TIP3   OH259604   2.477   2.054  16.741 -0.3587  0.0075 -0.1927
12730TIP3    H159605   2.395   2.103  16.745  0.2869  1.0934 -0.1056
12730TIP3    H259606   2.516   2.078  16.657 -0.2342 -0.6920 -0.3419
12731TIP3   OH259607   2.631   4.448   0.190 -0.4921  0.0448  0.1083
12731TIP3    H159608   2.625   4.519   0.125 -0.3891 -0.8724 -0.9378
12731TIP3    H259609   2.699   4.477   0.251  0.5891  0.2291 -1.1330
12732TIP3   OH259610   3.190   0.659  14.172  0.1546 -0.7175 -0.3882
12732TIP3    H159611   3.268   0.664  14.228  0.3673  2.0109 -0.7981
12732TIP3    H259612   3.205   0.726  14.105 -2.5787 -0.0579 -0.4267
12733TIP3   OH259613   2.522   3.498   5.335 -0.4519  0.4540  0.8734
12733TIP3    H159614   2.590   3.461   5.278 -0.7511  1.3033 -0.0564
12733TIP3    H259615   2.559   3.489   5.423  0.2215 -0.4567  0.5206
12734TIP3   OH259616   0.417   6.581   4.060  0.1178 -0.1437  0.0723
12734TIP3    H159617   0.360   6.657   4.076  0.5125  0.1631  0.0242
12734TIP3    H259618   0.494   6.597   4.113  0.9146  0.2913 -1.1729
12735TIP3   OH259619   5.460   6.540   1.467 -0.1037 -0.4237 -0.5368
12735TIP3    H159620   5.551   6.520   1.492 -0.2537 -0.8399 -0.3133
12735TIP3    H259621   5.418   6.564   1.550 -0.2270 -0.3324 -0.6256
12736TIP3   OH259622   6.100   1.716  14.512 -0.1148 -0.0244 -0.0748
12736TIP3    H159623   6.150   1.685  14.437  1.6307  1.8363  0.2198
12736TIP3    H259624   6.142   1.675  14.587 -0.5086 -0.2433  0.0264
12737TIP3   OH259625   2.077   2.090  12.541 -0.4460  0.0354 -0.2002
12737TIP3    H159626   2.031   2.008  12.524 -1.0333  0.0061  1.4237
12737TIP3    H259627   2.170   2.068  12.531 -0.6534 -0.4865 -1.0907
12738TIP3   OH259628   3.801   2.444   3.057  0.1939  0.2792 -0.2317
12738TIP3    H159629   3.880   2.400   3.025 -0.1354 -1.5691  1.3080
12738TIP3    H259630   3.831   2.491   3.136  0.2451  1.7689 -1.0904
12739TIP3   OH259631   0.998   5.871  16.947  0.0010  0.2837 -0.3989
12739TIP3    H159632   0.969   5.837  16.862 -2.4986  1.8768 -0.2890
12739TIP3    H259633   0.967   5.962  16.948  2.2749  1.1348  1.1985
12740TIP3   OH259634   5.484   5.520   0.137 -0.1774 -0.5091  0.0017
12740TIP3    H159635   5.396   5.557   0.148 -0.5981 -0.9778 -1.5554
12740TIP3    H259636   5.482   5.478   0.051  1.0271 -2.0522  0.6638
12741TIP3   OH259637   1.339   6.249  14.877  0.1309  0.5039 -0.1132
12741TIP3    H159638   1.265   6.281  14.826 -0.7095  1.5213  1.6462
12741TIP3    H259639   1.400   6.323  14.880  1.2060 -0.2738 -1.4124
12742TIP3   OH259640   4.720   3.204   2.047  0.4455 -0.3515 -0.1512
12742TIP3    H159641   4.670   3.283   2.028  2.2369  0.3432 -2.4904
12742TIP3    H259642   4.703   3.147   1.972  2.1053 -0.6171 -0.3472
12743TIP3   OH259643   5.583   4.808  16.522  0.3097 -0.9197  0.3006
12743TIP3    H159644   5.659   4.861  16.500  0.1022 -0.8168 -0.1979
12743TIP3    H259645   5.550   4.844  16.604  0.1568 -0.2568 -0.0486
12744TIP3   OH259646   0.622   6.622  13.235 -0.3177 -0.5724  0.1627
12744TIP3    H159647   0.655   6.653  13.319 -0.1438 -1.2841  0.3714
12744TIP3    H259648   0.527   6.623  13.245 -0.3327  0.4244 -0.0406
12745TIP3   OH259649   0.030   3.131  12.914  0.1140 -0.0757  0.0361
12745TIP3    H159650  -0.047   3.102  12.866  0.0378 -1.4495  0.9390
12745TIP3    H259651   0.062   3.207  12.865 -0.3001 -1.0538 -1.8138
12746TIP3   OH259652   2.173   4.667  14.429  0.2409  0.3120 -0.1346
12746TIP3    H159653   2.124   4.677  14.348  1.8018  1.2842 -0.9901
12746TIP3    H259654   2.110   4.626  14.489 -0.8490 -0.7712 -1.9017
12747TIP3   OH259655   5.229   2.156   1.989  0.0442  0.2477 -0.8035
12747TIP3    H159656   5.164   2.137   1.921 -2.8932 -0.6314  2.0197
12747TIP3    H259657   5.231   2.252   1.993 -1.5208  0.3072 -0.6470
12748TIP3   OH259658   0.298   0.994   5.619 -0.4638 -0.0722 -0.5823
12748TIP3    H159659   0.234   1.026   5.556 -0.6475 -0.8704 -0.8246
12748TIP3    H259660   0.378   0.979   5.567 -0.2157  0.4983 -0.3691
12749TIP3   OH259661   1.463   0.396  11.949  0.0450 -0.0704  0.0704
12749TIP3    H159662   1.459   0.306  11.980 -0.3865  0.0753  0.4456
12749TIP3    H259663   1.555   0.409  11.926  0.0782 -0.6545 -0.1458
12750TIP3   OH259664   2.750   2.369   2.177  0.5153  0.1907  0.4205
12750TIP3    H159665   2.789   2.320   2.249 -2.8153 -2.3626  0.7533
12750TIP3    H259666   2.699   2.438   2.220  0.5408  0.2680  0.3266
12751TIP3   OH259667   4.831   5.430  11.736  0.4268  0.5691 -0.4502
12751TIP3    H159668   4.884   5.502  11.701 -0.2943  1.2477 -0.1727
12751TIP3    H259669   4.767   5.412  11.667  1.6033 -0.9252 -1.2112
12752TIP3   OH259670   5.907   2.606   0.839 -0.1664  0.3059 -0.1480
12752TIP3    H159671   5.906   2.691   0.884  0.1061  0.4830 -0.4750
12752TIP3    H259672   5.990   2.605   0.792 -0.2120 -0.1055 -0.2189
12753TIP3   OH259673   4.725   4.921   1.235  0.3406  0.2161  0.3662
12753TIP3    H159674   4.669   4.982   1.186 -1.4413 -2.3361 -0.9711
12753TIP3    H259675   4.727   4.957   1.324 -2.0547  1.3266  0.0446
12754TIP3   OH259676   4.679   3.987  12.374 -0.3104  0.6569  0.1895
12754TIP3    H159677   4.596   4.017  12.339  0.4814  2.0116 -0.5938
12754TIP3    H259678   4.730   3.960  12.298 -0.1099 -0.4207  0.6792
12755TIP3   OH259679   5.879   2.081   1.244  0.6880 -0.3834  0.1382
12755TIP3    H159680   5.807   2.033   1.203  1.0828  1.4256 -2.9704
12755TIP3    H259681   5.836   2.150   1.293  0.1067  1.8090 -3.1421
12756TIP3   OH259682   2.027   4.241  12.128 -0.4844 -0.0058 -0.4160
12756TIP3    H159683   1.931   4.233  12.120 -0.5016 -1.7760  0.9080
12756TIP3    H259684   2.040   4.301  12.201 -0.6011  0.0970 -0.4802
12757TIP3   OH259685   1.796   4.129   5.010  0.3533 -0.8064  0.3555
12757TIP3    H159686   1.835   4.208   4.972 -1.3505 -0.9384 -1.8346
12757TIP3    H259687   1.842   4.118   5.094 -1.0000  3.9683  2.0685
12758TIP3   OH259688   1.973   5.805   4.786 -0.0613 -0.6603 -0.4335
12758TIP3    H159689   1.950   5.759   4.867  0.6826 -1.7910 -0.8423
12758TIP3    H259690   1.981   5.897   4.812 -1.9499 -0.6540  0.3372
12759TIP3   OH259691   0.322   4.177   4.717 -0.1743  0.3268 -0.6867
12759TIP3    H159692   0.366   4.197   4.799 -0.0661  0.6049 -0.8109
12759TIP3    H259693   0.346   4.086   4.698 -0.7267  0.0445 -0.0817
12760TIP3   OH259694   2.377   4.766  17.253 -0.9475 -0.8398  0.0562
12760TIP3    H159695   2.388   4.672  17.238 -0.6649 -0.9409  0.8261
12760TIP3    H259696   2.426   4.783  17.334 -0.4506  0.0961 -0.4272
12761TIP3   OH259697   0.927   5.111  15.147  0.0854 -0.3195  0.2051
12761TIP3    H159698   0.951   5.130  15.057  2.2107 -2.3927  0.2359
12761TIP3    H259699   0.949   5.191  15.195  1.1473  0.0036 -0.7759
12762TIP3   OH259700   1.836   5.992   2.606 -0.1492 -0.0168  0.8858
12762TIP3    H159701   1.776   5.920   2.623  0.0089 -0.2211  0.5832
12762TIP3    H259702   1.913   5.973   2.660  0.2409 -0.5224  0.1659
12763TIP3   OH259703   2.058   4.370  14.203 -0.3625  0.2043 -1.0253
12763TIP3    H159704   2.109   4.339  14.278 -0.7996  0.6317 -0.5483
12763TIP3    H259705   2.089   4.316  14.130  1.7171  1.3168 -1.0569
12764TIP3   OH259706   3.866   1.590   4.415  0.2782  0.9101 -0.4552
12764TIP3    H159707   3.792   1.630   4.368  1.3833  2.0419 -1.3030
12764TIP3    H259708   3.858   1.497   4.397  1.3558  1.3554 -4.0911
12765TIP3   OH259709   0.462   4.747  17.109  0.4542  0.4551 -0.3436
12765TIP3    H159710   0.482   4.766  17.201 -1.3280 -1.0908  0.4207
12765TIP3    H259711   0.486   4.655  17.097 -1.1737  0.0676 -0.8404
12766TIP3   OH259712   5.066   3.027   0.101  0.0857  0.1263 -0.0390
12766TIP3    H159713   5.078   2.943   0.055  1.2528  0.0159  0.4119
12766TIP3    H259714   5.087   3.093   0.034  0.1438  0.0210 -0.1268
12767TIP3   OH259715   1.946   6.054   5.204 -0.1779  0.4916 -0.2806
12767TIP3    H159716   1.908   6.032   5.119  0.8414 -0.3269 -0.5419
12767TIP3    H259717   1.886   6.017   5.268  0.1361 -0.7583 -0.6866
12768TIP3   OH259718   5.205   5.467  11.039  0.0052 -0.1898 -0.0143
12768TIP3    H159719   5.177   5.551  11.075 -1.1732  0.0076 -1.3154
12768TIP3    H259720   5.154   5.457  10.959  2.4203 -0.6583 -1.5900
12769TIP3   OH259721   1.919   3.062  11.126  0.1181  0.2559 -0.1270
12769TIP3    H159722   1.894   3.032  11.039 -1.0545  0.1454  0.2396
12769TIP3    H259723   1.980   3.135  11.109  1.0345 -0.6770 -1.0195
12770TIP3   OH259724   6.500   1.461  13.288  0.1403 -0.0655  0.2778
12770TIP3    H159725   6.473   1.443  13.378  2.7644  1.2408  1.4130
12770TIP3    H259726   6.541   1.380  13.259  1.1671  0.1684  1.0378
12771TIP3   OH259727   4.694   4.716   6.690 -0.2552  0.3183 -0.3074
12771TIP3    H159728   4.681   4.625   6.666  0.9314  0.4874 -1.7328
12771TIP3    H259729   4.662   4.766   6.615  0.1145  1.0222 -0.0127
12772TIP3   OH259730   6.603   0.738  11.016  0.1571  0.1691  0.3319
12772TIP3    H159731   6.661   0.813  11.030  0.1712  0.4126 -0.9131
12772TIP3    H259732   6.539   0.743  11.087 -1.4328  2.9370 -1.1029
12773TIP3   OH259733   1.524   2.713   0.249  0.1727  0.3754  0.6645
12773TIP3    H159734   1.534   2.729   0.343  0.2983 -0.9308  0.8930
12773TIP3    H259735   1.451   2.652   0.243 -0.8435  1.6306 -0.2219
12774TIP3   OH259736   1.747   2.756  12.846  0.1838  0.1166  0.7800
12774TIP3    H159737   1.680   2.820  12.823  0.3269 -0.5785 -1.9636
12774TIP3    H259738   1.830   2.802  12.833  0.2672 -0.2527 -0.0798
12775TIP3   OH259739   5.167   5.006   1.927 -0.2616  0.6666 -0.4146
12775TIP3    H159740   5.122   4.925   1.951  0.3214 -0.3484 -2.5338
12775TIP3    H259741   5.155   5.063   2.003 -1.6928 -0.9694  0.6678
12776TIP3   OH259742   4.512   2.517  13.743 -0.3981  0.1681 -0.3119
12776TIP3    H159743   4.465   2.501  13.662 -0.7712  0.6970 -0.2061
12776TIP3    H259744   4.484   2.605  13.770 -0.5155 -0.1238  0.5495
12777TIP3   OH259745   6.252   0.845   0.068 -0.1216  0.1835 -0.3080
12777TIP3    H159746   6.186   0.910   0.091 -1.4711 -0.5709 -1.8026
12777TIP3    H259747   6.315   0.892   0.013 -0.8435  0.3463 -1.0101
12778TIP3   OH259748   0.479   4.594  13.125  0.4247  0.2168 -0.0310
12778TIP3    H159749   0.547   4.659  13.142  2.4842 -1.8544  0.1339
12778TIP3    H259750   0.498   4.562  13.037  0.4072 -1.2177  0.4704
12779TIP3   OH259751   4.563   0.484  11.953 -0.1017  0.2621 -0.0258
12779TIP3    H159752   4.497   0.513  12.015 -1.2657  2.6433 -2.2015
12779TIP3    H259753   4.527   0.404  11.915 -0.1546 -0.2651  1.0929
12780TIP3   OH259754   6.224   3.762   1.381  0.6294  0.0553  0.1130
12780TIP3    H159755   6.182   3.678   1.362  0.2318  0.2481  0.1406
12780TIP3    H259756   6.295   3.739   1.442  0.1283 -0.1847  0.6226
12781TIP3   OH259757   0.537   2.251  14.466 -0.1399  0.0952 -0.1201
12781TIP3    H159758   0.574   2.336  14.442 -0.8026  0.5385  0.3879
12781TIP3    H259759   0.486   2.224  14.389 -2.3780  1.5762  0.7480
12782TIP3   OH259760   2.127   2.255  16.144 -0.4023  0.0177 -0.6235
12782TIP3    H159761   2.116   2.304  16.062 -1.1280  1.6020  0.3690
12782TIP3    H259762   2.081   2.173  16.129 -1.0820  0.5521 -1.5941
12783TIP3   OH259763   5.071   4.383  15.539  0.2688 -0.4383  0.0531
12783TIP3    H159764   5.159   4.376  15.575 -0.0527  2.0862  1.5706
12783TIP3    H259765   5.023   4.309  15.578  1.3500 -1.0602  0.2514
12784TIP3   OH259766   3.573   0.546   1.571  0.0659 -0.1262 -0.4032
12784TIP3    H159767   3.603   0.635   1.557  0.9824 -0.3117  0.2800
12784TIP3    H259768   3.629   0.492   1.515  1.0949 -0.4765  0.9006
12785TIP3   OH259769   5.739   3.566   1.044 -0.2132 -0.1840  0.0184
12785TIP3    H159770   5.699   3.620   1.112  0.4045  0.0694  0.1887
12785TIP3    H259771   5.814   3.525   1.087 -0.2449 -0.5984 -0.3125
12786TIP3   OH259772   3.926   0.101  10.610 -0.7842 -0.2086  0.4572
12786TIP3    H159773   3.887   0.067  10.690 -0.5493 -0.9966  0.2502
12786TIP3    H259774   3.866   0.169  10.580 -1.5579 -0.8129  0.6017
12787TIP3   OH259775   1.746   1.487  11.947  0.0248  0.4299 -0.4272
12787TIP3    H159776   1.751   1.397  11.979  0.9859  0.4199 -0.5842
12787TIP3    H259777   1.691   1.481  11.869  3.0584 -0.7424 -2.7057
12788TIP3   OH259778   2.509   0.470   1.289 -0.5944  0.0749  0.3868
12788TIP3    H159779   2.601   0.496   1.290 -0.0587 -1.5621 -0.6524
12788TIP3    H259780   2.478   0.495   1.201 -1.2588  0.9089  0.8402
12789TIP3   OH259781   3.307   6.403  13.876 -0.1491 -0.4797  0.0185
12789TIP3    H159782   3.318   6.325  13.931 -0.0446 -0.4954 -0.0232
12789TIP3    H259783   3.371   6.391  13.805  0.5019  0.0653  0.4919
12790TIP3   OH259784   3.484   5.397  11.295  0.1759 -0.0244 -0.1806
12790TIP3    H159785   3.451   5.332  11.233 -2.0542 -0.4560  1.3679
12790TIP3    H259786   3.421   5.469  11.290  1.4880  1.1632 -0.3691
12791TIP3   OH259787   4.280   1.932  12.412  0.7600  0.0120  0.0378
12791TIP3    H159788   4.244   1.857  12.364 -2.1856  0.8282  0.7772
12791TIP3    H259789   4.283   1.902  12.503  2.2332 -0.0851 -0.0202
12792TIP3   OH259790   6.397   4.019   4.182  0.0195  0.1063  0.2906
12792TIP3    H159791   6.355   3.950   4.131  2.1339 -0.3970 -0.8583
12792TIP3    H259792   6.426   3.975   4.262 -3.3694  0.9124  2.1689
12793TIP3   OH259793   4.957   4.701   2.392 -0.2395  0.0235  0.6940
12793TIP3    H159794   5.023   4.639   2.425 -0.5765 -0.0204  1.3108
12793TIP3    H259795   5.004   4.753   2.327  0.6063  0.4528  1.6064
12794TIP3   OH259796   1.073   5.366   4.759  0.4670 -0.0281 -0.6483
12794TIP3    H159797   1.024   5.447   4.745 -0.1728 -0.2511  0.2556
12794TIP3    H259798   1.034   5.303   4.699  2.2246  0.8036 -2.7808
12795TIP3   OH259799   2.963   2.255  13.050 -0.6737  0.3328  0.1644
12795TIP3    H159800   2.975   2.164  13.075  1.7020  1.2187  2.6831
12795TIP3    H259801   3.007   2.263  12.965  2.1479 -0.2285  1.4727
12796TIP3   OH259802   6.662   1.767  15.687  0.1626 -0.7555  0.6112
12796TIP3    H159803   6.657   1.740  15.596  1.9122  2.4597 -0.5921
12796TIP3    H259804   6.574   1.798  15.709 -0.5123 -2.4385  0.3800
12797TIP3   OH259805   1.248   2.547  10.921 -0.1648 -0.0740  0.1152
12797TIP3    H159806   1.206   2.466  10.893 -1.6875  1.1063 -1.2198
12797TIP3    H259807   1.220   2.612  10.856  1.7072  1.3522  0.6386
12798TIP3   OH259808   4.557   3.937  13.414  0.4971  0.1173 -0.2113
12798TIP3    H159809   4.530   3.885  13.338  0.9576 -0.1748 -0.1796
12798TIP3    H259810   4.512   4.021  13.403 -0.4836 -0.3928 -0.1001
12799TIP3   OH259811   6.386   4.584   1.089 -0.2949  0.1315  0.3675
12799TIP3    H159812   6.412   4.524   1.159  0.6787 -0.1504 -0.2181
12799TIP3    H259813   6.467   4.627   1.063 -0.9128  1.4081  0.4825
12800TIP3   OH259814   4.276   0.394  14.703  0.4505 -0.0608 -0.1731
12800TIP3    H159815   4.183   0.415  14.697  0.2753  0.1857  2.2889
12800TIP3    H259816   4.320   0.463  14.654 -0.5995  0.6154 -0.1946
12801TIP3   OH259817   0.196   6.561   6.668 -0.1889  0.4867 -0.3118
12801TIP3    H159818   0.265   6.563   6.602 -0.0045  1.0847 -0.1060
12801TIP3    H259819   0.117   6.537   6.620 -0.4708  2.8569 -1.1483
12802TIP3   OH259820   5.808   4.952  16.452 -0.1143  0.5659 -0.5255
12802TIP3    H159821   5.762   5.002  16.384  1.5171  1.0432 -1.3300
12802TIP3    H259822   5.846   5.019  16.509  0.5857  0.2181 -0.5760
12803TIP3   OH259823   3.709   5.830   3.427  0.2729  0.3101 -0.2911
12803TIP3    H159824   3.721   5.740   3.457 -0.3308  0.1169 -0.5994
12803TIP3    H259825   3.794   5.871   3.441 -0.2107  0.5372  2.6289
12804TIP3   OH259826   3.992   3.547  13.929  0.3460 -0.0643 -0.0384
12804TIP3    H159827   3.943   3.569  13.850 -1.3030 -0.8130  0.7267
12804TIP3    H259828   3.989   3.626  13.983 -0.9743 -0.4329  0.4555
12805TIP3   OH259829   5.087   4.889  12.237  0.2547 -0.2238  0.0928
12805TIP3    H159830   5.164   4.926  12.195 -0.3399  1.7068  0.6117
12805TIP3    H259831   5.042   4.964  12.275 -2.1534 -1.2065 -0.6184
12806TIP3   OH259832   3.449   1.292   4.303 -0.0057 -0.0961  0.1886
12806TIP3    H159833   3.368   1.264   4.346 -0.4566 -0.9886 -1.1535
12806TIP3    H259834   3.519   1.261   4.360 -0.5910  0.7167  1.3839
12807TIP3   OH259835   3.870   3.943  14.644  0.3685 -0.4639 -0.2420
12807TIP3    H159836   3.963   3.931  14.663 -0.2633 -2.9224  2.0198
12807TIP3    H259837   3.834   3.981  14.725 -0.8484 -1.3283 -0.3443
12808TIP3   OH259838   4.785   0.070  17.078 -0.0028  0.3925 -0.0826
12808TIP3    H159839   4.867   0.109  17.047  0.8728  0.2453  1.8940
12808TIP3    H259840   4.749   0.134  17.140 -1.0630  0.1796 -0.4535
12809TIP3   OH259841   0.319   4.269  16.820  0.0017 -0.5051  0.0879
12809TIP3    H159842   0.364   4.195  16.780  0.7987  0.6684 -1.2792
12809TIP3    H259843   0.361   4.346  16.782 -3.0857  0.6817 -1.2185
12810TIP3   OH259844   6.701   0.792  15.425 -0.1990 -0.6507 -0.5397
12810TIP3    H159845   6.710   0.704  15.388 -0.3846 -0.2143 -1.6493
12810TIP3    H259846   6.665   0.777  15.513 -0.5874 -1.6620 -0.8567
12811TIP3   OH259847   5.681   5.972  13.009  0.6620 -0.1420 -0.7772
12811TIP3    H159848   5.607   5.913  13.002  2.7740 -2.9515 -1.0603
12811TIP3    H259849   5.697   6.000  12.919 -0.7447  1.5354 -0.5646
12812TIP3   OH259850   1.120   3.849   3.168  0.0307 -0.4482  0.1675
12812TIP3    H159851   1.032   3.814   3.173  0.8754 -2.5152  2.9712
12812TIP3    H259852   1.157   3.811   3.088 -1.2477 -0.4420 -0.4389
12813TIP3   OH259853   2.081   2.510  14.333 -0.3459  0.5624  0.1190
12813TIP3    H159854   2.012   2.539  14.394 -0.7347 -1.5092  0.7461
12813TIP3    H259855   2.074   2.571  14.259 -1.2511  1.8610  1.2100
12814TIP3   OH259856   5.818   4.152  15.104  0.1482 -0.1533 -0.2691
12814TIP3    H159857   5.850   4.214  15.170 -0.5227  1.7706 -1.6654
12814TIP3    H259858   5.728   4.131  15.132  0.3273 -0.3980  0.1300
12815TIP3   OH259859   2.079   3.982   1.146 -0.6288  0.2916  0.4849
12815TIP3    H159860   2.050   4.050   1.207  1.3322  2.5566 -0.9413
12815TIP3    H259861   2.052   4.013   1.060 -0.3913 -1.1751 -0.1603
12816TIP3   OH259862   3.152   3.741   3.235 -0.3516 -0.0894 -0.2083
12816TIP3    H159863   3.193   3.666   3.278  0.4068 -0.3756 -1.3773
12816TIP3    H259864   3.059   3.732   3.253 -0.0901 -0.3637  1.0905
12817TIP3   OH259865   4.937   0.562  12.956  0.9621 -0.2654 -0.3888
12817TIP3    H159866   5.022   0.606  12.964  1.0971 -0.7584  1.2724
12817TIP3    H259867   4.899   0.566  13.044 -0.8699  0.1518 -1.1494
12818TIP3   OH259868   5.884   0.265  17.321 -0.1778 -0.3520 -0.6857
12818TIP3    H159869   5.911   0.341  17.270 -0.0858  1.0478  1.3043
12818TIP3    H259870   5.893   0.294  17.412  0.6517 -3.0259  0.1702
12819TIP3   OH259871   1.350   0.311  15.545  0.2279  0.0599  0.3709
12819TIP3    H159872   1.403   0.312  15.625  2.2854 -0.0302 -0.9218
12819TIP3    H259873   1.414   0.311  15.474 -1.5230  1.8059 -1.3193
12820TIP3   OH259874   6.752   0.626   2.930  0.1290 -0.2154  0.6180
12820TIP3    H159875   6.706   0.692   2.983 -1.6083 -0.7695 -0.1310
12820TIP3    H259876   6.815   0.587   2.991  1.0626  1.9488  1.1430
12821TIP3   OH259877   5.978   0.509  17.256  0.5068  0.2813  0.1633
12821TIP3    H159878   5.985   0.567  17.332  0.7034  0.0506  0.3205
12821TIP3    H259879   5.892   0.528  17.220 -0.2075 -0.6805  1.3144
12822TIP3   OH259880   0.960   1.407  15.367  0.6065 -0.2884 -0.5144
12822TIP3    H159881   0.945   1.377  15.456  0.1515 -0.3974 -0.6253
12822TIP3    H259882   1.054   1.396  15.353  0.5338 -1.1614 -0.3660
12823TIP3   OH259883   5.106   3.981   3.636 -0.1497 -0.1132 -0.4946
12823TIP3    H159884   5.075   4.016   3.552  0.4526 -0.6287 -0.9325
12823TIP3    H259885   5.157   3.904   3.613 -0.3212 -0.4971  0.3800
12824TIP3   OH259886   4.167   2.994  11.070 -0.2263 -0.5687  0.6224
12824TIP3    H159887   4.094   3.054  11.053 -0.1668 -0.6611  0.0240
12824TIP3    H259888   4.177   2.945  10.988  1.8306  0.8164 -0.0001
12825TIP3   OH259889   5.413   6.265  16.790  0.4196  0.1221 -0.3347
12825TIP3    H159890   5.362   6.238  16.713  0.5098  0.2665 -0.4450
12825TIP3    H259891   5.504   6.250  16.764  0.4127 -0.8148  0.1192
12826TIP3   OH259892   5.700   6.626  15.289 -0.0792 -0.7471 -0.2768
12826TIP3    H159893   5.636   6.571  15.334 -0.1682 -0.8125 -0.4838
12826TIP3    H259894   5.784   6.589  15.314 -0.0964 -0.3679  0.3882
12827TIP3   OH259895   5.386   5.334   5.621 -0.4796 -0.2515 -0.1976
12827TIP3    H159896   5.403   5.243   5.647 -3.3834 -0.8657 -0.1137
12827TIP3    H259897   5.299   5.331   5.580 -0.9230  2.5908  0.3557
12828TIP3   OH259898   0.565   2.448  12.606 -0.9121 -0.3396 -0.0075
12828TIP3    H159899   0.478   2.457  12.645 -0.4386  0.1673  0.9483
12828TIP3    H259900   0.623   2.427  12.679 -0.0657  0.3093 -0.4701
12829TIP3   OH259901   5.727   6.557   0.488  0.2097 -0.0540 -0.2519
12829TIP3    H159902   5.650   6.613   0.497  0.5415  0.2383  1.0601
12829TIP3    H259903   5.716   6.490   0.556  1.2338  0.1629  0.1489
12830TIP3   OH259904   4.669   2.197  15.866  0.1705  0.1725  0.3858
12830TIP3    H159905   4.648   2.290  15.863  0.8725  0.3419 -2.3160
12830TIP3    H259906   4.585   2.152  15.855  0.1182  0.6016 -1.1638
12831TIP3   OH259907   3.101   1.675   3.055 -0.1538 -0.0548 -0.2660
12831TIP3    H159908   3.145   1.751   3.017  0.1934  0.3856  0.9714
12831TIP3    H259909   3.118   1.604   2.993  1.6147  0.2972 -0.2406
12832TIP3   OH259910   4.013   2.973  11.862 -0.0004  0.0011  0.2720
12832TIP3    H159911   3.928   2.970  11.817 -0.4914 -1.0275  1.2001
12832TIP3    H259912   4.035   3.066  11.866 -0.6743  0.2250 -0.7199
12833TIP3   OH259913   0.776   0.462  11.401  0.0446 -0.1430 -0.1611
12833TIP3    H159914   0.869   0.472  11.425  0.4984  1.7775 -2.3157
12833TIP3    H259915   0.736   0.545  11.427 -0.8378 -0.5426 -0.2159
12834TIP3   OH259916   4.558   3.498   3.858  0.4509  0.5024  0.6565
12834TIP3    H159917   4.574   3.590   3.836  0.1266  0.6287  0.9542
12834TIP3    H259918   4.630   3.451   3.815  1.0022  0.9595  1.0687
12835TIP3   OH259919   2.835   0.177  14.312 -0.3093  0.2290  0.1711
12835TIP3    H159920   2.815   0.244  14.378 -2.7542  0.5983 -0.8295
12835TIP3    H259921   2.879   0.107  14.361 -2.9895 -0.0159  2.4949
12836TIP3   OH259922   6.168   1.645  12.462  0.2790  0.0110  0.0521
12836TIP3    H159923   6.198   1.563  12.501 -2.3320 -0.6260  0.9143
12836TIP3    H259924   6.198   1.712  12.524 -2.1002 -0.8235  2.3026
12837TIP3   OH259925   0.305   2.883   0.408 -0.1079 -0.0496  0.0516
12837TIP3    H159926   0.243   2.935   0.357 -1.0355  0.1005  1.2744
12837TIP3    H259927   0.251   2.818   0.453  0.9723 -1.7859 -1.0467
12838TIP3   OH259928   5.704   1.204  11.021  0.9267 -0.1921  0.2920
12838TIP3    H159929   5.756   1.124  11.020  0.2721 -0.6286 -1.5099
12838TIP3    H259930   5.757   1.268  10.974 -0.4353 -0.8789 -2.3375
12839TIP3   OH259931   5.581   5.096   1.680  1.0326 -0.1064  0.3329
12839TIP3    H159932   5.525   5.028   1.718  0.5183  0.5122  0.6996
12839TIP3    H259933   5.552   5.103   1.590  0.7318 -0.0045  0.4375
12840TIP3   OH259934   3.141   5.259  11.506  0.0543  0.0418  0.5243
12840TIP3    H159935   3.129   5.244  11.600 -2.0299 -1.0338  0.1359
12840TIP3    H259936   3.110   5.179  11.465  0.5502  0.6616 -1.1246
12841TIP3   OH259937   2.842   6.384   4.171 -0.5151 -0.3979  0.5439
12841TIP3    H159938   2.767   6.388   4.111  0.7350  0.9850 -1.0213
12841TIP3    H259939   2.863   6.291   4.177 -2.2024 -0.7856  0.8541
12842TIP3   OH259940   6.478   1.505   3.672 -1.0878 -0.2045 -0.0418
12842TIP3    H159941   6.449   1.419   3.700  0.1265 -0.2161  1.3320
12842TIP3    H259942   6.398   1.553   3.653 -1.7772 -1.7009 -1.1124
12843TIP3   OH259943   6.450   6.610   3.603 -1.5217 -0.1954 -0.6295
12843TIP3    H159944   6.529   6.663   3.594 -0.0818 -1.9092  0.8826
12843TIP3    H259945   6.379   6.666   3.573  0.2222  1.5314 -1.7556
12844TIP3   OH259946   2.899   5.762  11.413 -0.0824  0.1460 -0.8176
12844TIP3    H159947   2.818   5.814  11.404 -0.9123 -1.3345 -2.2608
12844TIP3    H259948   2.896   5.700  11.341  1.1204 -1.6007  0.5560
12845TIP3   OH259949   6.652   0.022   3.591  0.0883 -0.5268  0.5416
12845TIP3    H159950   6.615   0.102   3.628 -0.6797  0.7297 -2.6534
12845TIP3    H259951   6.733   0.050   3.549  0.7031 -1.8038  0.8287
12846TIP3   OH259952   5.168   1.565  13.011  0.1896 -0.4293 -0.0777
12846TIP3    H159953   5.224   1.548  13.087  0.2396 -0.7494 -0.1831
12846TIP3    H259954   5.081   1.538  13.038  0.4294 -1.7536 -0.5504
12847TIP3   OH259955   2.885   0.534  14.778 -0.4453 -0.0712 -0.5209
12847TIP3    H159956   2.883   0.532  14.874 -0.0584 -0.9277 -0.5239
12847TIP3    H259957   2.794   0.518  14.752 -0.0517 -3.2029 -0.3078
12848TIP3   OH259958   4.812   5.334  17.235  0.5684  0.6591 -0.0406
12848TIP3    H159959   4.718   5.343  17.247  0.3275 -0.4969 -0.8442
12848TIP3    H259960   4.834   5.252  17.279  1.3128  1.1934  0.6165
12849TIP3   OH259961   2.256   1.709  12.177  0.1288  0.3137 -0.2576
12849TIP3    H159962   2.247   1.696  12.271  0.1243 -1.0735 -0.4250
12849TIP3    H259963   2.241   1.623  12.139 -0.4849  0.9705 -1.5887
12850TIP3   OH259964   5.598   4.348   2.492  0.3726  0.2201  0.5588
12850TIP3    H159965   5.670   4.404   2.523  0.0040  1.8469 -1.3147
12850TIP3    H259966   5.641   4.267   2.465  1.2954  0.5620  0.9559
12851TIP3   OH259967   0.276   0.231   5.276  0.2331  0.1003 -0.3307
12851TIP3    H159968   0.370   0.217   5.288  0.3636 -0.7622 -2.0800
12851TIP3    H259969   0.268   0.263   5.186 -1.1719 -0.0032 -0.2634
12852TIP3   OH259970   5.179   4.196   4.842 -0.5363 -0.2095  0.2585
12852TIP3    H159971   5.173   4.214   4.748 -1.5731  0.8295  0.5029
12852TIP3    H259972   5.193   4.101   4.847 -2.7942 -0.6867 -0.8992
12853TIP3   OH259973   1.257   0.126  14.593 -0.3735  0.4709 -0.2892
12853TIP3    H159974   1.169   0.141  14.558 -1.1054 -1.5561  0.5507
12853TIP3    H259975   1.285   0.043  14.554  1.6215  1.5371 -1.2993
12854TIP3   OH259976   0.182   5.541  12.580 -0.0641 -0.0916  0.3877
12854TIP3    H159977   0.229   5.563  12.661  0.9748 -0.2956 -0.1343
12854TIP3    H259978   0.200   5.448  12.567  1.2876  0.3142 -0.9868
12855TIP3   OH259979   0.748   0.671   2.384  0.6331  0.6891  0.2966
12855TIP3    H159980   0.816   0.631   2.330  1.4151 -1.0779  2.3919
12855TIP3    H259981   0.715   0.745   2.333  2.5562  0.2277 -1.7346
12856TIP3   OH259982   4.656   0.108  11.723  0.2977 -0.5938  0.2734
12856TIP3    H159983   4.728   0.065  11.770  1.6739  0.5716 -0.6652
12856TIP3    H259984   4.680   0.100  11.631  0.1094  1.2800  0.0209
12857TIP3   OH259985   2.442   5.594  11.135 -0.1170 -0.0997 -0.7131
12857TIP3    H159986   2.528   5.633  11.124 -0.1596  0.5218  0.8640
12857TIP3    H259987   2.456   5.518  11.191 -0.4684 -0.5718 -1.2485
12858TIP3   OH259988   1.418   1.255  12.111  0.6838  0.1361  0.0869
12858TIP3    H159989   1.432   1.335  12.061  0.8269 -0.4438 -0.8188
12858TIP3    H259990   1.323   1.246  12.115  0.6790 -0.1462 -0.6216
12859TIP3   OH259991   3.005   0.488   1.713  0.3511  0.2228  0.4949
12859TIP3    H159992   3.064   0.412   1.713  2.2383  1.6243  0.0625
12859TIP3    H259993   3.043   0.548   1.777 -1.0247  0.8986  0.7077
12860TIP3   OH259994   1.814   3.327  10.370 -0.2594  0.8940 -0.3605
12860TIP3    H159995   1.909   3.323  10.380 -0.2279 -1.6184 -0.9961
12860TIP3    H259996   1.784   3.239  10.393 -2.2873  1.2130 -1.5744
12861TIP3   OH259997   3.024   1.910   5.004  0.6539 -0.1292  0.0739
12861TIP3    H159998   2.947   1.853   5.004  0.6216 -0.0920 -0.8250
12861TIP3    H259999   2.992   1.993   4.970  1.0120 -0.0044  0.0427
12862TIP3   OH260000   0.824   1.576  14.466 -0.5888  0.6843  0.2092
12862TIP3    H160001   0.752   1.515  14.478  0.0823 -0.1562  0.1298
12862TIP3    H260002   0.824   1.594  14.372 -0.6062  0.5735  0.1879
12863TIP3   OH260003   3.305   3.969  15.523 -0.6475  0.3197 -0.1502
12863TIP3    H160004   3.261   4.034  15.578  1.1308 -0.3359  2.2177
12863TIP3    H260005   3.350   3.912  15.585  1.0385 -0.8384 -2.2999
12864TIP3   OH260006   4.152   2.881   1.770 -0.1486  0.5336 -0.0795
12864TIP3    H160007   4.090   2.882   1.843 -0.0677  2.7849  0.0480
12864TIP3    H260008   4.097   2.882   1.692 -0.2618  0.5175 -0.0005
12865TIP3   OH260009   0.484   5.628  10.974 -0.3779  0.0608  0.3851
12865TIP3    H160010   0.541   5.606  11.048  0.0713 -0.8495 -0.2148
12865TIP3    H260011   0.464   5.544  10.933  0.5680  0.6647 -1.3995
12866TIP3   OH260012   2.330   6.342  17.247 -0.1466 -0.1974  0.8214
12866TIP3    H160013   2.274   6.402  17.199  1.6589  2.2014  1.5253
12866TIP3    H260014   2.396   6.315  17.182 -0.9018 -1.4111  0.5311
12867TIP3   OH260015   1.571   6.364  13.862  0.1393 -0.9651 -0.1794
12867TIP3    H160016   1.656   6.325  13.845  0.2583 -0.9738  0.4221
12867TIP3    H260017   1.572   6.386  13.956 -0.8053 -1.6859  0.0218
12868TIP3   OH260018   5.040   2.435   0.652 -0.2033 -0.3053 -0.2244
12868TIP3    H160019   5.125   2.412   0.689 -1.0553 -1.9557  0.8249
12868TIP3    H260020   5.058   2.455   0.560  1.3940  0.0313  0.1342
12869TIP3   OH260021   0.512   0.918  16.910 -0.2421 -0.5332 -0.2871
12869TIP3    H160022   0.600   0.934  16.944 -0.7751 -0.0664  0.9109
12869TIP3    H260023   0.468   1.002  16.917 -1.5946 -1.3209  1.6366
12870TIP3   OH260024   3.951   3.343  12.962 -0.6851 -0.0381 -1.1154
12870TIP3    H160025   4.004   3.263  12.962  1.1312  1.1097 -1.4554
12870TIP3    H260026   3.870   3.318  13.007  0.7038 -1.5294  0.7317
12871TIP3   OH260027   0.634   5.029  15.138  0.8014  0.0244  0.0917
12871TIP3    H160028   0.726   5.048  15.118  0.4800  2.0285  0.2685
12871TIP3    H260029   0.588   5.048  15.056  0.5421 -1.2462 -0.0801
12872TIP3   OH260030   1.642   0.024   5.097  0.1650 -0.3469 -0.2477
12872TIP3    H160031   1.617  -0.054   5.146  0.0215 -0.1890 -0.0704
12872TIP3    H260032   1.720   0.056   5.141 -0.4586  0.2914  0.4192
12873TIP3   OH260033   5.689   4.990   5.114  0.2087  0.0843  0.2318
12873TIP3    H160034   5.658   4.971   5.025 -1.1467  1.7014  0.3049
12873TIP3    H260035   5.638   4.931   5.170  0.6954 -0.5757 -0.0091
12874TIP3   OH260036   2.070   0.076  13.108 -0.0447 -0.0647  0.1004
12874TIP3    H160037   2.006   0.099  13.042 -0.9295  0.4325  1.1060
12874TIP3    H260038   2.057  -0.018  13.123 -0.2237 -0.0588 -0.0266
12875TIP3   OH260039   0.446   4.092  14.431  0.2053 -0.0481 -0.1527
12875TIP3    H160040   0.437   4.039  14.352 -0.3674 -0.9770  0.5180
12875TIP3    H260041   0.519   4.054  14.478  0.6105  0.5671 -0.2704
12876TIP3   OH260042   4.568   6.194  11.902 -0.2070 -0.3436 -0.2850
12876TIP3    H160043   4.638   6.132  11.923  0.7366  0.4219 -1.1025
12876TIP3    H260044   4.527   6.158  11.824 -1.0780 -1.0470  0.4646
12877TIP3   OH260045   0.306   3.319  13.617  0.2178 -0.4775  0.4613
12877TIP3    H160046   0.256   3.396  13.588  1.1871 -0.8292 -2.3518
12877TIP3    H260047   0.365   3.353  13.684 -0.4353  0.9058  0.3685
12878TIP3   OH260048   5.325   1.804   3.032  0.2564 -0.3545  0.0775
12878TIP3    H160049   5.244   1.786   3.079  1.4992 -1.8925  1.7691
12878TIP3    H260050   5.302   1.870   2.967 -2.1030 -0.0372  1.1787
12879TIP3   OH260051   4.077   2.309   3.029  0.3225 -0.2337 -0.6606
12879TIP3    H160052   4.088   2.248   3.102  1.4808 -1.0710 -1.4943
12879TIP3    H260053   4.156   2.363   3.032  0.6959 -0.7012 -1.6596
12880TIP3   OH260054   1.768   0.985   2.476  0.2466 -0.4046 -0.3076
12880TIP3    H160055   1.789   0.955   2.565  0.2122 -0.6463 -0.3799
12880TIP3    H260056   1.679   1.020   2.484 -0.4962 -2.0993 -0.6196
12881TIP3   OH260057   2.039   5.405  16.071 -0.1980 -0.1246  0.1480
12881TIP3    H160058   2.047   5.377  16.162 -0.2348 -2.0321 -0.3841
12881TIP3    H260059   2.118   5.454  16.053 -0.2740  0.4248  1.2524
12882TIP3   OH260060   4.682   2.133   6.354  0.2740 -0.0063 -0.2052
12882TIP3    H160061   4.720   2.219   6.336  2.5275 -1.1786 -1.4112
12882TIP3    H260062   4.691   2.123   6.449  0.8597  0.7002 -0.1732
12883TIP3   OH260063   6.454   5.145  15.652  0.7913  0.3240  0.2320
12883TIP3    H160064   6.407   5.127  15.734 -0.0283  0.4387 -0.1990
12883TIP3    H260065   6.480   5.059  15.620 -2.3722 -0.2001 -1.3876
12884TIP3   OH260066   0.098   0.626  13.952  0.3948  0.0283  0.2850
12884TIP3    H160067   0.018   0.615  13.900  1.1930  1.5089 -1.3479
12884TIP3    H260068   0.077   0.697  14.013 -0.1405 -0.8934  1.2083
12885TIP3   OH260069   4.312   3.589  11.157 -0.2977 -0.1078 -0.0381
12885TIP3    H160070   4.317   3.682  11.134  0.1419  0.6030  2.6009
12885TIP3    H260071   4.341   3.543  11.078  0.4972  2.0369 -1.0690
12886TIP3   OH260072   3.181   5.611  16.274 -0.0166  0.0014  0.7383
12886TIP3    H160073   3.260   5.654  16.307  0.6156 -0.9522  0.4863
12886TIP3    H260074   3.109   5.663  16.310  0.7028  0.3975  1.6437
12887TIP3   OH260075   4.022   5.105  16.272  0.2022  0.7173  0.1567
12887TIP3    H160076   4.063   5.088  16.188  0.8505  1.3589  0.3291
12887TIP3    H260077   4.006   5.018  16.309  0.6393  0.4441 -0.2816
12888TIP3   OH260078   3.443   2.560  15.708  0.2056  0.1095  0.4397
12888TIP3    H160079   3.420   2.538  15.618 -0.1964  0.4169  0.4620
12888TIP3    H260080   3.390   2.638  15.728 -1.1483 -1.0411  1.5568
12889TIP3   OH260081   4.721   2.670  14.708 -0.0702  0.5214  0.6092
12889TIP3    H160082   4.627   2.669  14.725 -0.4437  0.3084 -1.2540
12889TIP3    H260083   4.731   2.717  14.625  1.5233  0.9596  0.9980
12890TIP3   OH260084   1.194   0.439  15.105 -0.5507  0.1871  0.3644
12890TIP3    H160085   1.151   0.525  15.105 -0.1707  0.3917 -0.7688
12890TIP3    H260086   1.156   0.394  15.181 -1.5953  0.9373  0.3188
12891TIP3   OH260087   5.590   0.253  13.706  0.1258 -0.5541 -0.4015
12891TIP3    H160088   5.621   0.202  13.632  0.9668 -1.7855  0.7431
12891TIP3    H260089   5.595   0.193  13.781  0.0299  0.8519  0.7912
12892TIP3   OH260090   1.133   6.476   2.168  0.0448  0.7214 -0.2785
12892TIP3    H160091   1.105   6.500   2.080 -1.2090 -0.8010 -0.3476
12892TIP3    H260092   1.220   6.514   2.177  0.9539 -0.5411 -2.8319
12893TIP3   OH260093   3.763   1.572  11.253 -0.4174 -0.4118  0.0830
12893TIP3    H160094   3.849   1.538  11.231 -0.3623  0.3403 -0.9436
12893TIP3    H260095   3.761   1.573  11.349  0.6409 -0.5978  0.1146
12894TIP3   OH260096   5.923   2.182  12.737  0.1236  0.3132 -0.3139
12894TIP3    H160097   5.973   2.193  12.818  1.9556  0.0778 -1.3792
12894TIP3    H260098   5.834   2.209  12.761  0.6689  0.5056  1.7001
12895TIP3   OH260099   5.690   1.491   5.989 -0.7856  0.0055  0.6755
12895TIP3    H160100   5.615   1.449   5.946 -1.0986  1.7642 -0.6350
12895TIP3    H260101   5.752   1.419   6.005 -1.9205 -1.1811 -0.0230
12896TIP3   OH260102   1.692   6.568   4.058  0.3857  0.0564  0.5274
12896TIP3    H160103   1.647   6.636   4.009  1.8178  0.4070 -0.3757
12896TIP3    H260104   1.776   6.607   4.081  1.0215 -1.2047  0.4483
12897TIP3   OH260105   6.099   0.938  12.630  0.5132  0.5404  0.7809
12897TIP3    H160106   6.164   0.962  12.696  2.7099 -1.1517 -0.6267
12897TIP3    H260107   6.125   0.851  12.602 -1.0337  0.7388 -1.4981
12898TIP3   OH260108   1.495   4.307  13.252 -0.0925  0.8734 -0.0888
12898TIP3    H160109   1.499   4.230  13.309  0.3012  0.7930 -0.2167
12898TIP3    H260110   1.585   4.341  13.253 -0.7389  2.6944  1.7896
12899TIP3   OH260111   3.667   3.106   6.704  0.1671 -0.0306 -0.3749
12899TIP3    H160112   3.649   3.170   6.636  2.3991 -3.1253 -4.3456
12899TIP3    H260113   3.747   3.138   6.747 -0.3099  1.1493 -0.3335
12900TIP3   OH260114   2.945   4.439   6.530  0.0476 -0.1182 -0.2158
12900TIP3    H160115   2.975   4.349   6.517 -2.4298 -0.7365 -2.4482
12900TIP3    H260116   2.972   4.460   6.620  3.5509 -1.8336 -0.6937
12901TIP3   OH260117   1.028   6.554  17.232 -0.4888  0.0596 -0.3221
12901TIP3    H160118   1.089   6.513  17.171 -0.0527  0.6537 -0.2880
12901TIP3    H260119   0.966   6.484  17.254 -1.2404  0.0724 -2.1855
12902TIP3   OH260120   2.966   5.497   0.558 -0.0178  0.1152  0.1498
12902TIP3    H160121   2.898   5.451   0.509 -0.8409  2.0116 -0.5919
12902TIP3    H260122   2.925   5.521   0.641  1.0097 -2.0672  1.3716
12903TIP3   OH260123   3.623   4.397  12.665 -0.0084  0.0922 -0.4952
12903TIP3    H160124   3.686   4.326  12.672  0.1544  0.1510 -1.2694
12903TIP3    H260125   3.625   4.422  12.573  0.3106  1.4511 -0.1444
12904TIP3   OH260126   5.441   1.462   1.223  0.4420  0.1638  0.2967
12904TIP3    H160127   5.408   1.541   1.180  2.0650  2.2432  2.5741
12904TIP3    H260128   5.515   1.493   1.275  1.3394 -2.9628  1.0628
12905TIP3   OH260129   3.860   3.977  13.914 -0.0722 -0.2469 -0.9023
12905TIP3    H160130   3.856   4.067  13.945  0.9569 -0.4814 -0.0057
12905TIP3    H260131   3.768   3.948  13.913 -0.2123 -0.1469  1.8270
12906TIP3   OH260132   1.054   3.677   2.987 -0.4274 -0.5282 -0.7073
12906TIP3    H160133   1.115   3.673   2.913  1.1731  1.6072  0.3951
12906TIP3    H260134   0.978   3.723   2.953 -0.0686 -0.3304 -1.2657
12907TIP3   OH260135   5.771   0.566   3.604 -0.0680  0.1119 -0.2118
12907TIP3    H160136   5.686   0.552   3.644 -0.8413  0.3165 -1.7005
12907TIP3    H260137   5.833   0.565   3.677 -1.2226 -0.9780  0.7924
12908TIP3   OH260138   2.178   3.782  12.695 -0.5136 -0.5223  0.6942
12908TIP3    H160139   2.096   3.764  12.742 -0.3346  1.5182  1.9120
12908TIP3    H260140   2.160   3.758  12.604 -3.1587  1.5920  0.5246
12909TIP3   OH260141   4.200   2.059   2.631 -0.3708  0.6844  0.1677
12909TIP3    H160142   4.144   2.034   2.557 -1.4638  1.5943  0.6584
12909TIP3    H260143   4.144   2.114   2.686 -0.4758 -2.0756  3.0970
12910TIP3   OH260144   4.183   3.497   4.930  0.0099 -0.2507 -0.0137
12910TIP3    H160145   4.260   3.440   4.923 -0.9885 -1.6860  0.0581
12910TIP3    H260146   4.113   3.438   4.959 -1.3009  0.8522 -0.8269
12911TIP3   OH260147   5.402   0.549   4.963  0.2036  0.1028  0.2654
12911TIP3    H160148   5.471   0.512   5.017 -0.0860 -0.7299  0.0876
12911TIP3    H260149   5.381   0.633   5.004  0.8018  0.0272  0.7435
12912TIP3   OH260150   4.012   3.378  17.069 -0.3367  0.2845 -0.3091
12912TIP3    H160151   4.106   3.391  17.080 -0.4485  0.6199  0.3017
12912TIP3    H260152   4.002   3.344  16.980  0.5520 -1.5811  0.2439
12913TIP3   OH260153   2.814   0.343  12.621 -0.4877 -0.5453 -0.2954
12913TIP3    H160154   2.811   0.397  12.542 -1.0461 -1.5882 -1.0107
12913TIP3    H260155   2.888   0.378  12.670 -0.0069  0.0071 -1.3616
12914TIP3   OH260156   5.685   4.925   0.362 -0.3844 -1.5343  0.0714
12914TIP3    H160157   5.767   4.917   0.411 -1.6311 -0.5323  2.5246
12914TIP3    H260158   5.691   5.010   0.319  0.1049 -1.7326 -0.2559
12915TIP3   OH260159   4.048   0.916   4.015  0.0752 -0.0500  0.1779
12915TIP3    H160160   4.090   0.998   4.041 -0.0294  0.1567 -0.2926
12915TIP3    H260161   3.963   0.943   3.980 -0.2399 -0.4194  0.6382
12916TIP3   OH260162   2.558   3.539   4.569 -0.5774 -0.2453 -0.0688
12916TIP3    H160163   2.615   3.599   4.617 -0.8148 -1.0326  1.2343
12916TIP3    H260164   2.562   3.570   4.478 -0.1957  1.3360  0.4575
12917TIP3   OH260165   0.610   3.438  15.164 -0.1820 -0.2721  0.1260
12917TIP3    H160166   0.660   3.400  15.237  1.2589 -1.5061 -1.4395
12917TIP3    H260167   0.531   3.386  15.159  0.1862 -0.8396  0.1773
12918TIP3   OH260168   6.731   0.993  12.878  0.2805  0.3382 -0.0200
12918TIP3    H160169   6.806   1.019  12.826  2.2827 -1.9143  1.5167
12918TIP3    H260170   6.763   0.992  12.968 -1.4549 -1.0429  0.6536
12919TIP3   OH260171   4.174   5.124   4.371  0.0558  0.3436  0.2873
12919TIP3    H160172   4.172   5.128   4.275  0.1108 -1.9393  0.1261
12919TIP3    H260173   4.143   5.210   4.399  2.2417  1.9132 -1.7277
12920TIP3   OH260174   6.382   0.255  13.989  0.0574  0.1840  0.0954
12920TIP3    H160175   6.373   0.160  13.979 -1.2109  0.0397  1.9251
12920TIP3    H260176   6.394   0.268  14.083 -0.8857  1.8920  0.0338
12921TIP3   OH260177   4.318   6.629  12.064 -0.1543  0.4641 -0.0600
12921TIP3    H160178   4.287   6.687  11.995  1.8068  1.5224 -0.1416
12921TIP3    H260179   4.340   6.547  12.019 -1.2615  0.2457 -0.2354
12922TIP3   OH260180   4.026   4.887  16.480 -0.0919 -1.1777 -0.1490
12922TIP3    H160181   3.984   4.814  16.526  0.0363 -1.0290  0.2135
12922TIP3    H260182   4.079   4.930  16.548  0.6344 -1.3544 -0.5945
12923TIP3   OH260183   3.646   0.634   1.020  0.4870  0.0460  0.2300
12923TIP3    H160184   3.723   0.593   1.059 -0.2181  0.3270  1.9802
12923TIP3    H260185   3.625   0.707   1.078  0.1507  1.3007 -1.3971
12924TIP3   OH260186   1.673   5.519  14.062 -0.3080 -0.0143  0.2474
12924TIP3    H160187   1.679   5.587  13.995  1.2614 -0.1329  0.2371
12924TIP3    H260188   1.730   5.449  14.031 -0.6063 -0.6428  1.0715
12925TIP3   OH260189   2.621   5.553  12.689  0.3166 -0.0016  0.1584
12925TIP3    H160190   2.643   5.470  12.646  1.1706  0.2100  0.1834
12925TIP3    H260191   2.676   5.618  12.646 -0.8154  0.6727 -0.3046
12926TIP3   OH260192   0.845   1.987  14.478 -0.0175 -0.4630 -0.4034
12926TIP3    H160193   0.883   2.071  14.502  0.4589 -1.2716  1.9273
12926TIP3    H260194   0.759   1.987  14.519  0.6892 -1.7779  1.1765
12927TIP3   OH260195   5.045   1.819   3.095  0.6300  0.2998 -0.2683
12927TIP3    H160196   5.003   1.735   3.116  1.0308  0.4407  1.2561
12927TIP3    H260197   4.985   1.885   3.127  0.3534  0.6174 -1.3992
12928TIP3   OH260198   4.181   4.742   1.772 -0.2725  0.5077 -1.0007
12928TIP3    H160199   4.123   4.666   1.770 -0.4778  0.6802 -1.8585
12928TIP3    H260200   4.233   4.734   1.693 -1.2555  1.9900 -1.8439
12929TIP3   OH260201   1.389   6.406   3.812 -0.9125 -0.0234 -0.5446
12929TIP3    H160202   1.468   6.374   3.769 -0.8720 -0.1990 -0.3403
12929TIP3    H260203   1.392   6.501   3.801  0.6206  0.2478  1.6488
12930TIP3   OH260204   5.015   3.813  16.190 -0.4974  0.5181  0.1737
12930TIP3    H160205   4.969   3.732  16.167 -0.0901  0.3614 -0.1200
12930TIP3    H260206   5.009   3.817  16.286  0.1696 -0.2946  0.2668
12931TIP3   OH260207   5.832   0.260   6.929 -0.7497 -0.0127  0.5053
12931TIP3    H160208   5.817   0.169   6.902  0.5056 -0.0877  0.0096
12931TIP3    H260209   5.859   0.305   6.849  1.1032  0.2089  1.2095
12932TIP3   OH260210   3.533   4.730  15.937 -0.6332 -0.2187 -0.2288
12932TIP3    H160211   3.554   4.784  16.014 -0.5396  0.0729 -0.4565
12932TIP3    H260212   3.502   4.647  15.974 -1.5717  0.2829  0.1345
12933TIP3   OH260213   1.351   3.572  11.196  0.1467 -0.1791 -0.3770
12933TIP3    H160214   1.331   3.659  11.232  0.9784 -0.8470  1.8727
12933TIP3    H260215   1.445   3.576  11.177  0.7934 -1.2837  2.1433
12934TIP3   OH260216   0.347   5.471  16.240 -0.0472  0.4885  0.0101
12934TIP3    H160217   0.421   5.458  16.181 -0.3909  2.0894 -0.8180
12934TIP3    H260218   0.377   5.435  16.324  1.5118  0.7427 -0.4072
12935TIP3   OH260219   3.254   4.021   2.763  0.0036 -0.1262 -0.1811
12935TIP3    H160220   3.334   4.037   2.713 -0.2865  1.7288 -0.0992
12935TIP3    H260221   3.268   4.065   2.847 -0.6804 -0.7082  0.2541
12936TIP3   OH260222   0.955   3.597  16.994 -0.5485  0.6511 -0.2932
12936TIP3    H160223   1.002   3.613  17.075  1.4304 -1.3966 -0.9185
12936TIP3    H260224   0.935   3.503  16.996  0.1833  0.3841 -2.4245
12937TIP3   OH260225   2.629   0.015  14.509  0.2964  0.3605  0.3857
12937TIP3    H160226   2.558   0.078  14.493  0.4548  0.4976  0.2125
12937TIP3    H260227   2.669   0.002  14.424 -0.6893 -1.1554  0.1166
12938TIP3   OH260228   0.476   1.315   2.647  0.2006 -0.2202 -0.0859
12938TIP3    H160229   0.502   1.359   2.728  0.0315 -1.9312  0.9171
12938TIP3    H260230   0.411   1.374   2.608  0.9851  1.0917  0.4944
12939TIP3   OH260231   1.253   3.505   3.376 -0.0420 -0.4310 -0.2413
12939TIP3    H160232   1.304   3.466   3.447 -2.5013 -1.2461  1.1837
12939TIP3    H260233   1.162   3.493   3.402 -1.0066  2.2273 -1.9762
12940TIP3   OH260234   0.731   0.637   5.022 -0.5684  0.2866  0.0497
12940TIP3    H160235   0.746   0.701   5.092  1.0485 -0.2039  0.1854
12940TIP3    H260236   0.715   0.555   5.067 -0.0175  0.0699 -0.1405
12941TIP3   OH260237   4.629   5.797  14.602 -0.1873  0.2254  0.3943
12941TIP3    H160238   4.657   5.847  14.526  1.1882 -2.2955 -0.9100
12941TIP3    H260239   4.575   5.857  14.653  1.7245  3.0993 -0.7545
12942TIP3   OH260240   5.859   1.584  12.675 -0.0884 -1.1744 -0.0520
12942TIP3    H160241   5.885   1.542  12.593 -3.8499 -0.5641 -1.7456
12942TIP3    H260242   5.841   1.675  12.651  1.4089 -0.2127  2.1341
12943TIP3   OH260243   2.173   2.748   4.166 -0.2150  0.2985  0.0441
12943TIP3    H160244   2.104   2.697   4.207 -0.1693  1.3841  1.5418
12943TIP3    H260245   2.127   2.819   4.120 -0.2168 -0.4743 -1.2106
12944TIP3   OH260246   5.385   0.163  16.577  0.9145 -0.1238  0.1878
12944TIP3    H160247   5.412   0.225  16.508  0.7085  0.5881  0.7330
12944TIP3    H260248   5.401   0.210  16.659  0.2142 -0.5775  0.5944
12945TIP3   OH260249   1.299   0.422  12.186 -0.6277  0.6749  0.1887
12945TIP3    H160250   1.313   0.447  12.277  1.4918  1.2654 -0.2513
12945TIP3    H260251   1.386   0.424  12.146 -0.8888 -3.2768 -0.9639
12946TIP3   OH260252   1.202   1.111  12.762  0.5038  0.9062 -0.0706
12946TIP3    H160253   1.149   1.128  12.840  0.1392  1.4151 -0.4239
12946TIP3    H260254   1.222   1.018  12.767 -0.6841  0.6299 -0.0831
12947TIP3   OH260255   0.525   1.824  13.219  0.1415  0.6683 -0.6872
12947TIP3    H160256   0.469   1.750  13.238 -1.2360  1.3623 -1.8905
12947TIP3    H260257   0.599   1.787  13.170 -0.3954  0.0560 -1.0415
12948TIP3   OH260258   1.688   0.173  11.693  0.0594  0.0508 -0.0367
12948TIP3    H160259   1.727   0.260  11.694  0.1315  0.1686  3.9819
12948TIP3    H260260   1.614   0.179  11.755 -1.6201 -2.1075 -1.6765
12949TIP3   OH260261   1.556   1.016  12.262 -0.1734  0.0366  0.5294
12949TIP3    H160262   1.485   0.970  12.217  0.7950 -0.9966 -0.0154
12949TIP3    H260263   1.538   1.108  12.249  0.5894 -0.1758 -2.9887
12950TIP3   OH260264   4.157   4.335   5.224 -0.4737 -0.1760 -0.1422
12950TIP3    H160265   4.126   4.274   5.158 -0.5500  0.8590 -1.0906
12950TIP3    H260266   4.229   4.289   5.267 -0.5598 -0.9481 -0.8082
12951TIP3   OH260267   3.364   5.013   5.880  0.0889  0.0688  0.2411
12951TIP3    H160268   3.352   5.057   5.964  1.0545  2.0248 -0.5823
12951TIP3    H260269   3.423   5.070   5.831  1.0188 -1.9283 -1.1091
12952TIP3   OH260270   1.621   0.564  11.699  0.2394 -0.9110  0.1431
12952TIP3    H160271   1.540   0.522  11.670  0.3214 -0.8662 -0.1653
12952TIP3    H260272   1.690   0.512  11.656  0.2979  0.5885 -1.7197
12953TIP3   OH260273   6.380   1.429  16.955 -0.2558 -0.0141 -0.9356
12953TIP3    H160274   6.316   1.459  16.890 -0.8196  0.5103 -0.1524
12953TIP3    H260275   6.463   1.431  16.908 -0.6021  0.6777 -1.5530
12954TIP3   OH260276   0.161   6.060  17.126  0.2094  0.2621  0.0589
12954TIP3    H160277   0.252   6.040  17.102  0.0850  0.8864 -0.9788
12954TIP3    H260278   0.168   6.110  17.207  0.7845  0.2200  0.0377
12955TIP3   OH260279   5.612   4.687   0.208  0.5590  0.1141  0.9569
12955TIP3    H160280   5.643   4.776   0.221 -0.9219  0.6905  0.7309
12955TIP3    H260281   5.582   4.659   0.295 -3.1711  1.5467  0.2983
12956TIP3   OH260282   3.106   1.256  12.114  0.3099 -0.8095  0.5632
12956TIP3    H160283   3.163   1.250  12.037 -0.3406 -1.6727  0.1316
12956TIP3    H260284   3.048   1.330  12.095  0.3098 -0.8696  0.3218
12957TIP3   OH260285   0.821   6.337   2.407  0.0838 -0.7453 -0.1187
12957TIP3    H160286   0.797   6.425   2.435  0.2157 -0.3738 -1.1463
12957TIP3    H260287   0.851   6.347   2.317  0.2083 -1.8267 -0.2160
12958TIP3   OH260288   2.934   1.990   0.331 -0.1976 -0.4874 -0.3281
12958TIP3    H160289   2.937   1.921   0.265 -0.5012 -1.4181  0.5979
12958TIP3    H260290   2.996   2.056   0.300 -1.9854  0.2167 -2.6938
12959TIP3   OH260291   3.912   4.139  10.964  0.8182  0.1139  0.2238
12959TIP3    H160292   3.967   4.083  10.909  0.0909  0.6834 -1.1278
12959TIP3    H260293   3.822   4.113  10.944  0.5415 -0.0542  1.5920
12960TIP3   OH260294   4.432   5.086  15.391 -0.3745 -0.6320 -0.5165
12960TIP3    H160295   4.418   5.143  15.466 -2.4912 -0.7524 -0.7686
12960TIP3    H260296   4.370   5.014  15.404  0.2554 -1.4075 -1.6440
12961TIP3   OH260297   2.010   4.073   0.885  0.4400  0.6771  0.5018
12961TIP3    H160298   2.045   4.082   0.796  1.3976 -2.1665  0.5038
12961TIP3    H260299   1.928   4.026   0.874  1.5631 -1.5623  1.1984
12962TIP3   OH260300   3.528   6.234  15.919  0.3827 -0.2284  0.1220
12962TIP3    H160301   3.433   6.247  15.913 -0.1030 -2.9229  0.7083
12962TIP3    H260302   3.566   6.309  15.873 -2.0603  0.2409 -1.2823
12963TIP3   OH260303   3.713   2.129   3.463 -0.1353 -0.4544 -0.1192
12963TIP3    H160304   3.706   2.220   3.435 -2.0360  0.3868  2.7180
12963TIP3    H260305   3.798   2.123   3.507 -0.0708 -0.0044 -0.1815
12964TIP3   OH260306   2.879   6.765  13.183  0.0101 -0.4561  0.5405
12964TIP3    H160307   2.820   6.707  13.135 -1.2614  0.4267  0.9766
12964TIP3    H260308   2.823   6.838  13.211  1.0599 -0.1732  2.0032
12965TIP3   OH260309   0.455   6.314   3.972 -0.1962  0.0264 -0.1950
12965TIP3    H160310   0.461   6.407   3.997 -0.5076 -0.4893  2.0319
12965TIP3    H260311   0.427   6.270   4.052  0.0101 -2.0190 -1.1940
12966TIP3   OH260312   4.633   0.265   3.269 -0.1224 -0.1546  0.4527
12966TIP3    H160313   4.692   0.210   3.218  0.2183  0.5284  0.0955
12966TIP3    H260314   4.691   0.308   3.333 -0.2533  0.3854  0.2129
12967TIP3   OH260315   0.591   4.533   4.871  0.3876 -0.0357  0.2846
12967TIP3    H160316   0.607   4.441   4.893 -0.4597 -0.8113 -2.0142
12967TIP3    H260317   0.672   4.578   4.895  0.6353 -1.2545  1.9347
12968TIP3   OH260318   4.698   3.960   2.973 -0.7090 -0.0272  0.0182
12968TIP3    H160319   4.613   3.997   2.949 -0.9021  0.5754  1.4803
12968TIP3    H260320   4.698   3.873   2.935 -1.0300  0.7697 -1.9276
12969TIP3   OH260321   2.669   1.680  11.116 -0.0169 -0.0415  0.7248
12969TIP3    H160322   2.611   1.657  11.043 -1.1786 -1.9834  2.1430
12969TIP3    H260323   2.655   1.774  11.129  1.2794  0.6999 -2.3438
12970TIP3   OH260324   3.459   3.042  12.811 -0.0464 -0.2218  0.1733
12970TIP3    H160325   3.498   3.007  12.731 -1.3819  0.7782 -0.9713
12970TIP3    H260326   3.497   3.129  12.820  0.2762 -0.4176  0.7809
12971TIP3   OH260327   2.336   1.990  17.083 -0.3406 -0.1273  0.0303
12971TIP3    H160328   2.428   1.983  17.057 -0.7946  0.1416 -1.8185
12971TIP3    H260329   2.298   1.906  17.057 -0.8806  0.2501 -0.4218
12972TIP3   OH260330   4.569   2.497  11.194 -0.1252  0.3934 -0.4217
12972TIP3    H160331   4.530   2.479  11.109  0.9856  0.1938 -0.9069
12972TIP3    H260332   4.602   2.586  11.187  0.2268  0.2757 -0.3093
12973TIP3   OH260333   6.424   6.729  15.674 -0.6367 -0.0497  0.1687
12973TIP3    H160334   6.397   6.813  15.637  1.4349 -0.1448 -1.7914
12973TIP3    H260335   6.414   6.667  15.603 -0.4598 -1.1245  1.0583
12974TIP3   OH260336   3.049   0.280   3.615  0.1421  0.0857 -0.1280
12974TIP3    H160337   2.990   0.245   3.548 -0.1494  1.5050 -0.6629
12974TIP3    H260338   3.052   0.213   3.683  1.9683 -2.3246 -2.3744
12975TIP3   OH260339   0.769   2.115   0.875 -0.1220 -0.3751  0.0438
12975TIP3    H160340   0.786   2.024   0.901  1.0204 -0.6606 -1.5849
12975TIP3    H260341   0.810   2.167   0.944  0.2422 -1.0926  0.3870
12976TIP3   OH260342   4.086   5.448   3.039 -0.1988  0.4909 -0.5255
12976TIP3    H160343   4.057   5.509   2.971 -2.0737 -0.2304 -0.4384
12976TIP3    H260344   4.039   5.476   3.117  0.2788 -0.0132 -0.0506
12977TIP3   OH260345   6.106   4.916  13.408 -0.1515  0.1779  0.1028
12977TIP3    H160346   6.067   4.980  13.468  1.2427  1.2750 -0.1327
12977TIP3    H260347   6.084   4.947  13.321  1.6536  1.1223 -0.0535
12978TIP3   OH260348   0.912   6.504  11.230 -0.1511  0.7762  0.0351
12978TIP3    H160349   0.852   6.488  11.157 -0.6868  0.4515  0.5421
12978TIP3    H260350   0.968   6.427  11.232 -1.7038 -0.3810  1.4731
12979TIP3   OH260351   4.434   1.092  11.272  0.0528 -0.0822  0.3785
12979TIP3    H160352   4.527   1.071  11.268  0.0355 -0.0145 -0.5364
12979TIP3    H260353   4.396   1.048  11.196 -0.7452 -0.4943  1.0013
12980TIP3   OH260354   1.641   1.896   4.835  0.0095  0.4366  0.2264
12980TIP3    H160355   1.602   1.984   4.836  1.0739  0.9276  1.6027
12980TIP3    H260356   1.711   1.900   4.900  1.0490 -1.0186 -0.7435
12981TIP3   OH260357   3.886   1.034   0.662 -0.8586 -0.2723 -0.0431
12981TIP3    H160358   3.833   1.111   0.684 -1.2502 -0.4455 -0.3697
12981TIP3    H260359   3.964   1.069   0.619 -0.4892  0.0151  0.8374
12982TIP3   OH260360   0.672   2.643  16.870  0.3892  0.7088 -0.0073
12982TIP3    H160361   0.616   2.609  16.801 -0.7822  0.9816  0.7931
12982TIP3    H260362   0.748   2.585  16.869  0.3645  0.6487 -1.4427
12983TIP3   OH260363   0.491   1.806   5.328  0.2583 -0.2099  0.1908
12983TIP3    H160364   0.569   1.754   5.343 -0.2155 -1.0245 -0.1438
12983TIP3    H260365   0.419   1.743   5.328 -0.3041  0.4179 -0.3748
12984TIP3   OH260366   3.157   0.486  16.928 -0.1266  0.5687  0.3767
12984TIP3    H160367   3.067   0.514  16.912 -1.2704 -2.6140  0.4350
12984TIP3    H260368   3.167   0.491  17.023 -0.8782 -0.6088  0.5398
12985TIP3   OH260369   2.740   2.467  12.422 -0.6391 -0.3969  0.2408
12985TIP3    H160370   2.748   2.375  12.397 -1.1354 -0.3964  0.0665
12985TIP3    H260371   2.793   2.515  12.358 -1.5693 -0.4331 -0.5842
12986TIP3   OH260372   3.399   1.579  16.623  0.1416 -0.0009  0.6864
12986TIP3    H160373   3.409   1.673  16.641 -0.1507  0.3266 -0.7445
12986TIP3    H260374   3.344   1.547  16.695 -0.6579  1.1529  0.6173
12987TIP3   OH260375   4.215   5.685   3.483  0.4764 -0.3502 -0.2108
12987TIP3    H160376   4.302   5.647   3.485  0.9647  0.7086 -0.5690
12987TIP3    H260377   4.225   5.766   3.431 -0.2460  0.9294  1.5481
12988TIP3   OH260378   3.926   5.301  17.020  0.6772 -0.1610 -0.0465
12988TIP3    H160379   3.852   5.326  16.965  1.4088  2.2062 -0.0711
12988TIP3    H260380   4.002   5.308  16.963  1.3480  1.4904  0.9768
12989TIP3   OH260381   4.992   0.024  16.454 -0.3895 -0.7084 -0.1456
12989TIP3    H160382   5.015   0.030  16.547 -0.5108 -1.2397 -0.0792
12989TIP3    H260383   4.978   0.115  16.427  0.7712 -0.4538  0.0647
12990TIP3   OH260384   1.811   6.469  15.270 -0.4198 -0.0263  0.0068
12990TIP3    H160385   1.890   6.523  15.277  0.4219 -1.1220 -0.8046
12990TIP3    H260386   1.743   6.531  15.244  0.3552  0.7929 -0.1460
12991TIP3   OH260387   4.963   1.157  14.019  0.4328  0.1338 -0.0332
12991TIP3    H160388   4.926   1.094  13.958 -0.2735  1.1968 -0.7387
12991TIP3    H260389   4.940   1.242  13.982  0.1193  0.8075  1.6295
12992TIP3   OH260390   3.827   0.934   3.472 -0.2020 -0.4662  0.0234
12992TIP3    H160391   3.734   0.920   3.452 -0.7616  2.1309  0.3632
12992TIP3    H260392   3.836   0.911   3.564 -0.7863  0.2689  0.2740
12993TIP3   OH260393   4.341   5.119   5.369 -0.1456 -0.2645  0.0816
12993TIP3    H160394   4.266   5.108   5.428 -0.7152  0.0216 -0.5739
12993TIP3    H260395   4.308   5.091   5.284  0.6075 -0.4753 -0.1425
12994TIP3   OH260396   2.441   0.538   1.656  0.2691 -0.2174  0.3516
12994TIP3    H160397   2.432   0.486   1.735 -0.2884  1.6788  1.6085
12994TIP3    H260398   2.523   0.507   1.616  0.3606 -1.4749  1.4448
12995TIP3   OH260399   0.222   2.869  16.829  0.4677  0.1765 -0.4542
12995TIP3    H160400   0.307   2.860  16.786  0.1262  3.2154 -2.0569
12995TIP3    H260401   0.170   2.921  16.767 -1.4471  1.2469  1.9123
12996TIP3   OH260402   1.744   3.661  11.544 -0.6063  0.2037  0.3902
12996TIP3    H160403   1.783   3.692  11.463 -0.9641 -0.2683  0.0328
12996TIP3    H260404   1.703   3.578  11.521  1.3820 -1.1935  1.5888
12997TIP3   OH260405   1.758   2.431   5.444  0.4955 -0.5940 -0.1929
12997TIP3    H160406   1.784   2.463   5.358  0.6486  0.6621  0.2958
12997TIP3    H260407   1.675   2.385   5.428  0.3424 -0.0723 -0.9642
12998TIP3   OH260408   5.238   5.574   2.203  0.1137  0.5677  0.4941
12998TIP3    H160409   5.233   5.611   2.291  1.4255 -0.3304  0.9759
12998TIP3    H260410   5.312   5.513   2.207  0.2764  0.6051 -1.2592
12999TIP3   OH260411   5.811   0.150  17.045  0.0456  0.1934  0.0635
12999TIP3    H160412   5.843   0.066  17.013 -0.8925 -0.5269  0.9666
12999TIP3    H260413   5.885   0.187  17.094  0.6649  0.1991 -0.8470
13000TIP3   OH260414   4.464   3.926  16.923 -0.1850 -0.7233 -0.0308
13000TIP3    H160415   4.455   3.831  16.938 -0.7138 -0.6799 -0.0657
13000TIP3    H260416   4.471   3.934  16.828 -0.6226 -0.6929 -0.0646
13001TIP3   OH260417   2.114   1.471  15.186 -0.1074 -0.6382  0.0167
13001TIP3    H160418   2.102   1.379  15.211 -0.2761 -1.0441 -1.4768
13001TIP3    H260419   2.068   1.520  15.254  0.5329 -1.6179  1.1906
13002TIP3   OH260420   2.569   6.405  14.508  0.0146 -0.2979 -0.6895
13002TIP3    H160421   2.547   6.324  14.554 -1.3155  0.7050  0.5074
13002TIP3    H260422   2.659   6.424  14.536 -0.0263 -0.8127 -0.1914
13003TIP3   OH260423   4.754   1.809  16.890 -0.5277  0.6989 -0.1223
13003TIP3    H160424   4.762   1.824  16.984 -0.2913 -2.5865  0.5061
13003TIP3    H260425   4.839   1.774  16.863 -1.4018 -0.8776 -0.9716
13004TIP3   OH260426   2.426   2.694  11.869 -0.0813  1.0553  0.3412
13004TIP3    H160427   2.342   2.648  11.874 -1.4212  3.1217 -1.4288
13004TIP3    H260428   2.477   2.643  11.806 -1.1833  1.3490 -0.8568
13005TIP3   OH260429   1.076   1.976   2.476 -0.2642  0.2372  0.0782
13005TIP3    H160430   1.076   1.991   2.570 -2.8950 -0.4768  0.2652
13005TIP3    H260431   0.985   1.956   2.455  0.3678 -0.2309 -2.5290
13006TIP3   OH260432   5.253   1.437  11.390 -1.4225 -0.2047 -0.3462
13006TIP3    H160433   5.160   1.418  11.402 -1.6813  1.4974  0.6707
13006TIP3    H260434   5.261   1.456  11.296 -2.0977 -0.4411 -0.4600
13007TIP3   OH260435   5.514   2.805  12.592  0.5888 -0.0926  0.0621
13007TIP3    H160436   5.547   2.818  12.503  1.0012 -0.3806  0.1721
13007TIP3    H260437   5.422   2.833  12.588  0.7909  0.5461 -0.2867
13008TIP3   OH260438   1.284   5.567  10.744 -0.1513  0.7195 -0.0309
13008TIP3    H160439   1.338   5.518  10.682 -0.2245 -0.1925  0.5922
13008TIP3    H260440   1.347   5.621  10.792  0.2485 -0.3745  0.7269
13009TIP3   OH260441   5.054   6.615  13.312  0.2070 -0.3218  0.0180
13009TIP3    H160442   5.129   6.615  13.371 -0.5184  0.3433  0.9745
13009TIP3    H260443   5.038   6.522  13.294  2.0457 -0.4296 -1.2762
13010TIP3   OH260444   4.043   5.436   2.552  0.3492 -0.2308  0.6386
13010TIP3    H160445   4.002   5.485   2.623 -0.4348  1.0387 -0.6517
13010TIP3    H260446   4.132   5.473   2.546 -0.3223  1.3366 -0.5121
13011TIP3   OH260447   5.992   1.048   6.055 -0.6865 -0.0880 -0.7402
13011TIP3    H160448   5.942   1.119   6.015  0.4675  0.6977 -0.8315
13011TIP3    H260449   6.018   1.082   6.141 -1.5861 -1.0715 -0.0376
13012TIP3   OH260450   4.448   3.889   2.172  0.8207  0.1209  0.2769
13012TIP3    H160451   4.486   3.802   2.156  0.3382 -0.2262  0.9229
13012TIP3    H260452   4.519   3.940   2.209  0.6408 -0.5863  1.6797
13013TIP3   OH260453   4.272   2.981   2.030 -0.1129  0.4382  0.4119
13013TIP3    H160454   4.234   2.894   2.020  0.1816  0.4820 -1.3733
13013TIP3    H260455   4.259   3.002   2.122 -1.2186 -1.0089  0.6238
13014TIP3   OH260456   5.330   3.173  12.491  0.5781 -0.3607  0.4084
13014TIP3    H160457   5.412   3.133  12.464  0.0540 -0.9336 -0.4026
13014TIP3    H260458   5.263   3.109  12.466 -0.1985  0.5823 -0.0027
13015TIP3   OH260459   4.523   0.107  12.176 -0.0445 -0.1822 -0.1403
13015TIP3    H160460   4.506   0.039  12.112  1.6569 -1.0465  0.2474
13015TIP3    H260461   4.466   0.180  12.151 -0.2733 -0.9262 -1.8974
13016TIP3   OH260462   5.489   0.292   4.205  0.3716 -0.1551  0.0922
13016TIP3    H160463   5.481   0.380   4.167  0.6523  0.0141  0.4171
13016TIP3    H260464   5.430   0.294   4.280  1.1535  0.1005  0.7128
13017TIP3   OH260465   0.008   3.086  16.078  0.3751  0.1542 -0.2435
13017TIP3    H160466   0.084   3.035  16.107 -0.0043 -0.4288 -0.2529
13017TIP3    H260467  -0.051   3.021  16.040  0.1661  0.6923 -0.8672
13018TIP3   OH260468   0.304   3.691  16.575 -0.3040 -0.4115 -0.4263
13018TIP3    H160469   0.349   3.668  16.656 -2.2733 -1.4904  0.4476
13018TIP3    H260470   0.366   3.671  16.506  0.4352 -2.1822  0.6790
13019TIP3   OH260471   3.012   2.987   5.691 -0.6223 -0.0715 -0.2051
13019TIP3    H160472   2.934   3.020   5.736 -0.1835 -0.4699  0.8847
13019TIP3    H260473   3.022   2.897   5.723 -0.2878 -0.3631 -1.1101
13020TIP3   OH260474   3.263   4.513   4.523 -0.4661 -0.2692  0.4178
13020TIP3    H160475   3.190   4.526   4.584 -0.1864  0.5725  0.5768
13020TIP3    H260476   3.232   4.549   4.440 -0.0146  0.6496  0.6386
13021TIP3   OH260477   4.067   3.965   5.250  0.5537  0.1837  0.0302
13021TIP3    H160478   4.152   3.922   5.241  0.3354 -0.3271  0.3894
13021TIP3    H260479   4.057   4.015   5.170  1.4705  0.7375  0.2452
13022TIP3   OH260480   4.184   2.616   0.261  0.4377 -0.3004 -0.9386
13022TIP3    H160481   4.186   2.621   0.357 -0.8341  1.5367 -0.9482
13022TIP3    H260482   4.168   2.523   0.242  4.0345 -1.3397  0.4576
13023TIP3   OH260483   4.558   0.286  14.693 -0.4981 -0.3775  0.3142
13023TIP3    H160484   4.601   0.201  14.686 -1.4967 -0.8408 -0.4291
13023TIP3    H260485   4.487   0.272  14.755 -0.6702 -0.0858  0.1841
13024TIP3   OH260486   4.218   0.531  15.828  0.1696 -0.5147  0.1259
13024TIP3    H160487   4.136   0.580  15.824  0.3527 -0.2222 -0.1465
13024TIP3    H260488   4.195   0.443  15.796 -0.2476 -0.7387  1.0126
13025TIP3   OH260489   3.859   5.706   5.146 -0.0672  0.0467  0.0389
13025TIP3    H160490   3.870   5.633   5.084  1.8590  0.6115 -0.3543
13025TIP3    H260491   3.899   5.781   5.102  0.8857  0.5833  1.7477
13026TIP3   OH260492   3.902   5.128  16.763 -0.0412  0.1676  0.5173
13026TIP3    H160493   3.979   5.075  16.781  1.1325  1.0867 -1.4490
13026TIP3    H260494   3.907   5.147  16.670 -2.9004 -0.0619  0.2263
13027TIP3   OH260495   4.232   6.090  17.140 -0.1483 -0.3887  0.1760
13027TIP3    H160496   4.317   6.053  17.162 -0.4987 -0.0790  2.3580
13027TIP3    H260497   4.251   6.180  17.113  0.2209 -0.3236  0.6425
13028TIP3   OH260498   1.742   0.926  13.437 -1.0411 -0.4390 -0.2984
13028TIP3    H160499   1.797   0.870  13.382 -0.9339 -0.6800  0.0469
13028TIP3    H260500   1.790   1.008  13.444 -0.8355 -0.5680 -0.1868
13029TIP3   OH260501   2.289   4.186  15.175  0.3596 -0.5680 -0.3034
13029TIP3    H160502   2.293   4.256  15.240 -1.4772  0.0895 -0.8492
13029TIP3    H260503   2.361   4.205  15.115  1.7565 -0.8870  1.1849
13030TIP3   OH260504   0.218   6.740   2.329 -0.1445  0.0182 -0.5550
13030TIP3    H160505   0.297   6.758   2.280 -0.6173 -0.6596 -1.5985
13030TIP3    H260506   0.187   6.826   2.359  0.7484  0.3194 -0.4772
13031TIP3   OH260507   3.284   3.818   2.439  0.4236  0.3584 -0.3177
13031TIP3    H160508   3.216   3.774   2.389  0.0367 -0.8355  1.2031
13031TIP3    H260509   3.237   3.878   2.497  0.9624  3.9588 -3.2097
13032TIP3   OH260510   6.119   4.613   3.087  0.0107 -0.1653  0.1336
13032TIP3    H160511   6.038   4.623   3.137  0.1421 -0.5589  0.4285
13032TIP3    H260512   6.148   4.523   3.105  0.8706  0.1860  0.5727
13033TIP3   OH260513   6.319   0.912  17.100 -0.1688  0.3101  0.2384
13033TIP3    H160514   6.359   0.887  17.017 -0.9862 -2.6408  0.6468
13033TIP3    H260515   6.311   1.008  17.095  0.9485  0.3306 -2.5184
13034TIP3   OH260516   1.445   3.422   0.219 -0.0468  0.7050  0.0195
13034TIP3    H160517   1.470   3.492   0.159  0.6986  1.3265  1.0193
13034TIP3    H260518   1.498   3.347   0.194  0.9113  1.2261  0.4428
13035TIP3   OH260519   5.154   0.697  12.961 -0.1451 -0.1304 -0.0697
13035TIP3    H160520   5.187   0.738  12.881 -0.5267  0.3159 -0.0022
13035TIP3    H260521   5.229   0.650  12.997  0.4050  0.8390  0.0681
13036TIP3   OH260522   6.119   1.959   3.837  0.7274 -0.0613  0.1313
13036TIP3    H160523   6.155   2.032   3.888  1.5743  1.0964 -1.9862
13036TIP3    H260524   6.169   1.960   3.755 -1.7451 -0.6396 -1.5053
13037TIP3   OH260525   4.140   6.391   2.336  0.8879 -0.0408  0.0300
13037TIP3    H160526   4.222   6.405   2.288  0.6283  1.5511 -0.0096
13037TIP3    H260527   4.080   6.357   2.270  0.2988  2.8846 -1.0703
13038TIP3   OH260528   2.856   2.286  14.729  0.0197 -0.5822  0.6528
13038TIP3    H160529   2.833   2.194  14.716  0.0181 -0.8545  2.2776
13038TIP3    H260530   2.801   2.334  14.668 -0.2147 -1.6392  0.0072
13039TIP3   OH260531   2.278   5.579   2.078  0.1506 -0.1884 -0.3218
13039TIP3    H160532   2.258   5.672   2.069  1.9305  0.3128  0.5340
13039TIP3    H260533   2.197   5.534   2.053 -0.9761  1.6024 -0.0129
13040TIP3   OH260534   6.680   5.604  12.620  0.2028 -0.1998 -0.1265
13040TIP3    H160535   6.765   5.575  12.586 -0.7304 -0.7192 -2.2314
13040TIP3    H260536   6.701   5.652  12.700  2.5621  0.4477 -1.0338
13041TIP3   OH260537   1.481   0.772  15.712  0.1390  0.8920 -0.5255
13041TIP3    H160538   1.528   0.747  15.633 -0.6584  1.8694 -1.3443
13041TIP3    H260539   1.389   0.757  15.691 -0.0234  0.2255  0.5792
13042TIP3   OH260540   1.126   1.547   1.456  0.6349  0.5505  0.5163
13042TIP3    H160541   1.048   1.534   1.404 -0.5112 -2.8283  2.7755
13042TIP3    H260542   1.198   1.519   1.400 -0.3043 -0.8392 -0.0232
13043TIP3   OH260543   5.638   5.522  12.519 -0.5176  0.8299 -0.2655
13043TIP3    H160544   5.716   5.559  12.478  1.3465  0.1357  2.3539
13043TIP3    H260545   5.615   5.586  12.587 -2.3540  1.0724 -1.0661
13044TIP3   OH260546   2.297   3.519  12.294  0.2956 -0.0503 -0.0759
13044TIP3    H160547   2.346   3.567  12.362  1.6159 -2.0180  0.4319
13044TIP3    H260548   2.359   3.512  12.221  0.3559 -1.4578  0.0849
13045TIP3   OH260549   4.773   1.873  10.959  0.2779 -0.4462 -0.4297
13045TIP3    H160550   4.779   1.966  10.977 -2.3856 -0.1404 -0.7091
13045TIP3    H260551   4.789   1.866  10.865  1.1470 -0.3808 -0.2947
13046TIP3   OH260552   0.726   5.387  16.037 -0.1179  0.1622  0.2955
13046TIP3    H160553   0.742   5.396  16.131 -0.7883  0.6189  0.3714
13046TIP3    H260554   0.652   5.327  16.031 -0.6763  0.8595  0.1053
13047TIP3   OH260555   3.340   2.772  12.808 -0.1150  0.1349 -0.7369
13047TIP3    H160556   3.346   2.756  12.714 -2.0285  1.2049 -1.0955
13047TIP3    H260557   3.379   2.859  12.820  0.1466 -0.0102 -0.5405
13048TIP3   OH260558   3.264   5.051  12.151  0.4209  0.9267 -0.0076
13048TIP3    H160559   3.303   5.049  12.239  0.8177 -0.6197 -0.1907
13048TIP3    H260560   3.322   5.108  12.100  0.4739  1.4207  0.5865
13049TIP3   OH260561   4.950   6.725  11.280  0.0808 -0.1085 -0.1379
13049TIP3    H160562   4.931   6.758  11.192 -1.3930  1.1688  0.6265
13049TIP3    H260563   4.886   6.655  11.294 -0.8394  0.8464  0.5470
13050TIP3   OH260564   4.837   3.430   3.276 -0.2541 -0.1127  0.2371
13050TIP3    H160565   4.916   3.413   3.224  0.3536  0.6267  0.8877
13050TIP3    H260566   4.847   3.374   3.354  0.7832  1.6283  1.4254
13051TIP3   OH260567   5.648   0.629   3.124  0.3915  0.2570 -0.4472
13051TIP3    H160568   5.623   0.670   3.206 -0.4577 -1.6175  0.2955
13051TIP3    H260569   5.707   0.691   3.082  1.1981  1.0500  1.7819
13052TIP3   OH260570   4.735   0.254  12.245 -0.3361 -0.2246  0.1856
13052TIP3    H160571   4.700   0.303  12.319 -2.5383 -0.0755 -0.8805
13052TIP3    H260572   4.666   0.193  12.221  0.8691 -1.2330 -0.8908
13053TIP3   OH260573   4.434   5.032  11.845 -0.5069  0.0039 -0.4760
13053TIP3    H160574   4.452   5.125  11.857 -1.6082  0.2650 -0.7527
13053TIP3    H260575   4.521   4.991  11.841 -0.0171  0.8971  0.4894
13054TIP3   OH260576   6.004   3.598   3.032 -0.4400  0.8344  0.1475
13054TIP3    H160577   6.056   3.517   3.037  1.9105  2.2336 -0.4801
13054TIP3    H260578   5.985   3.619   3.124  1.3100  0.9867  0.5183
13055TIP3   OH260579   6.018   6.152   4.869 -0.0898  0.5559  0.5107
13055TIP3    H160580   6.040   6.106   4.950 -1.9566  0.4223  0.9919
13055TIP3    H260581   6.058   6.238   4.878 -0.9030  0.8179  1.9572
13056TIP3   OH260582   6.417   5.944   2.197  0.1604 -0.0694  0.1225
13056TIP3    H160583   6.435   5.852   2.215  1.6395  0.4142  1.3345
13056TIP3    H260584   6.401   5.947   2.102 -0.8077 -1.6725  0.1931
13057TIP3   OH260585   1.420   4.964  12.865  0.6289  0.5703  0.0458
13057TIP3    H160586   1.335   4.961  12.908  0.3898 -0.8427 -0.4727
13057TIP3    H260587   1.415   5.037  12.805  0.5686  1.8725  1.5669
13058TIP3   OH260588   3.906   1.318   2.424  0.3957 -0.2204 -0.1074
13058TIP3    H160589   3.930   1.236   2.381 -2.1509 -1.0986  0.0209
13058TIP3    H260590   3.876   1.375   2.353  1.0467  0.2036 -0.0543
13059TIP3   OH260591   4.250   5.166   3.415  0.3041 -0.7064 -0.8552
13059TIP3    H160592   4.192   5.235   3.446 -0.3790 -2.2551  1.6126
13059TIP3    H260593   4.197   5.115   3.354  0.2731 -0.0495 -1.3871
13060TIP3   OH260594   6.209   3.892  14.758 -0.3207 -0.4257 -0.1132
13060TIP3    H160595   6.218   3.812  14.810 -2.2578 -0.3063  0.5032
13060TIP3    H260596   6.124   3.928  14.784 -0.1996  1.0087 -1.5233
13061TIP3   OH260597   6.695   2.309   0.703  0.2571  0.1084  0.2878
13061TIP3    H160598   6.644   2.321   0.623 -0.3163  1.6306  0.8551
13061TIP3    H260599   6.786   2.318   0.674  0.1453 -0.8377 -0.4220
13062TIP3   OH260600   2.021   0.701  14.421  0.4936  0.2023  0.0782
13062TIP3    H160601   2.010   0.787  14.463 -0.3717 -0.2443  0.8149
13062TIP3    H260602   2.114   0.697  14.399  0.6265  1.1682  0.4047
13063TIP3   OH260603   5.450   6.456  13.387  0.7201 -0.0654  0.5144
13063TIP3    H160604   5.417   6.520  13.325  1.3473  1.4714  1.7011
13063TIP3    H260605   5.394   6.466  13.464  1.5043 -0.1813  1.1119
13064TIP3   OH260606   1.515   0.338  15.773  0.6222  0.2355 -0.1785
13064TIP3    H160607   1.582   0.401  15.747  1.5335 -0.3666  0.6400
13064TIP3    H260608   1.537   0.315  15.863 -0.9808  0.3861  0.2933
13065TIP3   OH260609   0.270   6.378  15.704  0.5046  0.0623 -0.7607
13065TIP3    H160610   0.269   6.292  15.748  2.0471 -0.2097 -1.1844
13065TIP3    H260611   0.194   6.377  15.647  0.0033 -0.6688 -0.1026
13066TIP3   OH260612   0.922   6.488   2.705 -0.2132 -0.2323 -0.3990
13066TIP3    H160613   0.885   6.403   2.727 -1.0604  0.3727  0.6174
13066TIP3    H260614   0.847   6.547   2.703  0.3608  0.5099 -1.0709
13067TIP3   OH260615   1.286   5.288   0.947  0.8017 -0.2107  0.0060
13067TIP3    H160616   1.274   5.376   0.983  0.4717 -0.2364 -0.0330
13067TIP3    H260617   1.304   5.301   0.854 -1.1699 -0.2367 -0.4420
13068TIP3   OH260618   5.206   6.721  12.979  0.0818 -0.2574 -0.3583
13068TIP3    H160619   5.222   6.759  12.893 -0.3385 -0.9960 -0.7719
13068TIP3    H260620   5.114   6.696  12.978 -0.1096  0.3732  0.5662
13069TIP3   OH260621   5.988   0.441   3.133 -0.1387 -0.0447 -0.1984
13069TIP3    H160622   6.070   0.418   3.176 -0.4433 -0.2629  0.2758
13069TIP3    H260623   5.936   0.482   3.201  0.1341  1.4749 -0.8682
13070TIP3   OH260624   5.219   0.946   6.277 -0.6692  0.1161 -0.2777
13070TIP3    H160625   5.217   0.999   6.356 -0.8666 -2.3360  1.4870
13070TIP3    H260626   5.128   0.940   6.250 -0.6086  0.9060 -0.6843
13071TIP3   OH260627   0.860   5.340  16.878  0.1770 -0.3400 -0.3704
13071TIP3    H160628   0.771   5.324  16.910  0.4152 -1.8410 -0.3430
13071TIP3    H260629   0.914   5.277  16.926  1.7734  2.4225  1.7479
13072TIP3   OH260630   2.825   5.635  15.866  0.0411 -0.4198 -0.2946
13072TIP3    H160631   2.857   5.709  15.918 -0.1175  0.0496 -0.8573
13072TIP3    H260632   2.890   5.566  15.881  0.5813  0.0694 -0.3314
13073TIP3   OH260633   1.289   6.610  13.722  0.0265 -0.2333 -0.2047
13073TIP3    H160634   1.268   6.519  13.743 -1.5831  0.2602  0.5438
13073TIP3    H260635   1.246   6.625  13.638  0.2401 -0.1475 -0.2984
13074TIP3   OH260636   4.079   5.025  13.272  0.7239  0.7702 -0.9754
13074TIP3    H160637   4.134   5.067  13.338  0.5133  0.6856 -0.7473
13074TIP3    H260638   4.066   4.936  13.304  1.1165  0.5405 -1.4262
13075TIP3   OH260639   3.723   3.251   0.277  0.1156  0.1024 -0.1827
13075TIP3    H160640   3.787   3.277   0.343  1.7611 -1.4377 -1.0828
13075TIP3    H260641   3.701   3.160   0.299  0.2146 -0.2288 -1.3648
13076TIP3   OH260642   0.689   5.742  14.350  0.1390 -0.3883  0.3803
13076TIP3    H160643   0.671   5.825  14.306  0.4517 -0.7524 -0.4700
13076TIP3    H260644   0.664   5.756  14.441 -1.7853 -0.0002 -0.1611
13077TIP3   OH260645   0.700   5.129  11.426 -0.0828  0.8771  0.0187
13077TIP3    H160646   0.756   5.130  11.348  0.9298  0.2440  0.7214
13077TIP3    H260647   0.755   5.163  11.496 -0.6776  0.5606  0.6539
13078TIP3   OH260648   0.456   0.995  13.443  0.1793 -0.0161 -0.5701
13078TIP3    H160649   0.452   1.022  13.535  0.9577  2.0968 -1.0957
13078TIP3    H260650   0.491   0.906  13.446  2.0837  0.6934  1.1196
13079TIP3   OH260651   0.767   1.217   2.849  0.4584  0.3957 -0.1789
13079TIP3    H160652   0.700   1.278   2.818  1.0930  0.7861 -0.8256
13079TIP3    H260653   0.818   1.267   2.913 -0.5611 -0.2645  1.2149
13080TIP3   OH260654   2.430   3.002  13.761  0.2012  0.0286  0.6944
13080TIP3    H160655   2.479   2.986  13.681 -1.4071  1.3995 -0.6464
13080TIP3    H260656   2.473   3.076  13.803 -0.9995  1.6254 -0.7898
13081TIP3   OH260657   1.114   4.862  10.366  0.2069  0.5828  0.3609
13081TIP3    H160658   1.192   4.865  10.422  0.3065  1.3217  0.2018
13081TIP3    H260659   1.145   4.897  10.282 -0.3443  1.0697  0.3555
13082TIP3   OH260660   2.903   1.753  12.811  0.5109  0.4503 -0.3028
13082TIP3    H160661   2.994   1.766  12.836  1.2759 -3.2404 -0.5938
13082TIP3    H260662   2.857   1.737  12.894  0.4073  0.9932 -0.2569
13083TIP3   OH260663   1.332   0.328   2.597 -1.1643  0.3249 -0.4325
13083TIP3    H160664   1.332   0.269   2.522 -0.0125  1.3735 -1.3118
13083TIP3    H260665   1.240   0.353   2.608 -1.8535 -2.2902  0.5887
13084TIP3   OH260666   1.978   2.426  11.642 -0.1460 -0.0140  0.5740
13084TIP3    H160667   1.898   2.452  11.689  0.1492  2.8831 -0.3628
13084TIP3    H260668   2.034   2.391  11.711 -1.8895 -1.4144  1.3772
13085TIP3   OH260669   0.487   2.100  13.223  0.2007  0.3752 -0.4804
13085TIP3    H160670   0.498   2.008  13.245  0.2118  1.0897  3.1559
13085TIP3    H260671   0.573   2.127  13.189  1.2843 -0.2529  1.6023
13086TIP3   OH260672   3.387   4.446   3.928 -0.3407 -0.3896 -0.8304
13086TIP3    H160673   3.407   4.387   4.001  0.0972  0.7549 -0.0079
13086TIP3    H260674   3.307   4.410   3.890 -0.9412 -0.6455  0.6131
13087TIP3   OH260675   3.610   2.048  15.425 -0.1918  0.2451  0.3421
13087TIP3    H160676   3.613   1.968  15.477 -1.8403 -0.8405 -1.1192
13087TIP3    H260677   3.688   2.044  15.369 -0.4902 -0.5877 -0.0284
13088TIP3   OH260678   6.087   1.627   5.063  0.9581  0.0367 -0.2104
13088TIP3    H160679   6.083   1.680   4.983  0.1854 -0.5041 -0.5413
13088TIP3    H260680   6.133   1.547   5.036  2.4214  0.6449  0.3683
13089TIP3   OH260681   2.819   6.125   0.027  0.4170 -0.2347 -0.3751
13089TIP3    H160682   2.897   6.175   0.001  0.3947  1.1217  1.8793
13089TIP3    H260683   2.752   6.150  -0.037  0.3167  2.9836  0.7749
13090TIP3   OH260684   0.042   4.051  11.330  0.8667  0.0094 -0.0317
13090TIP3    H160685  -0.007   4.131  11.313  0.8064  0.2165  1.1000
13090TIP3    H260686  -0.024   3.987  11.357  0.8913 -0.4856 -1.0948
13091TIP3   OH260687   6.284   5.729  12.009  0.4280 -0.2389  0.8524
13091TIP3    H160688   6.214   5.730  11.943  0.3345  1.1833  0.9530
13091TIP3    H260689   6.271   5.647  12.056  2.0383 -2.6625 -2.4954
13092TIP3   OH260690   1.582   6.306   4.074 -0.5328  0.2346 -0.3108
13092TIP3    H160691   1.636   6.371   4.028  1.9121  0.4472  2.5921
13092TIP3    H260692   1.531   6.358   4.136 -2.4945 -0.2096 -1.4826
13093TIP3   OH260693   5.585   5.963   4.298  0.1535  0.2392  0.2309
13093TIP3    H160694   5.547   5.997   4.217  1.3820  0.9047 -0.0973
13093TIP3    H260695   5.565   6.029   4.363 -1.3482 -0.5727  0.6389
13094TIP3   OH260696   6.002   3.432  13.610  0.1963 -0.5587  0.3555
13094TIP3    H160697   5.912   3.452  13.585 -0.6346 -2.1455  1.8941
13094TIP3    H260698   6.048   3.418  13.527 -0.2926  2.6536 -0.5961
13095TIP3   OH260699   2.147   1.011  12.510 -0.2879  0.5035 -0.4039
13095TIP3    H160700   2.165   1.098  12.546  0.7657 -0.1591  0.7754
13095TIP3    H260701   2.233   0.968  12.509 -0.8881 -0.7392 -0.3552
13096TIP3   OH260702   5.087   1.069  13.038  0.0713 -0.3142  0.0707
13096TIP3    H160703   5.157   1.135  13.046  1.0729 -1.4506  1.2360
13096TIP3    H260704   5.107   1.005  13.106 -1.7783 -1.0161  0.0084
13097TIP3   OH260705   6.405   2.960  15.332 -0.3449 -0.6849  0.3275
13097TIP3    H160706   6.370   3.012  15.404  0.1511  0.3085 -0.1245
13097TIP3    H260707   6.383   2.870  15.354  1.1121 -0.5932  2.5005
13098TIP3   OH260708   1.655   5.998   1.659 -0.2248  0.2294 -0.3601
13098TIP3    H160709   1.730   5.939   1.652  0.1017  0.5130  0.5282
13098TIP3    H260710   1.693   6.085   1.674 -0.7098  0.6038 -1.2388
13099TIP3   OH260711   6.198   1.415   2.846 -0.2756 -0.3907 -0.3981
13099TIP3    H160712   6.124   1.453   2.797 -0.9312 -0.4673  0.5178
13099TIP3    H260713   6.178   1.434   2.937  0.7162 -0.6531 -0.1237
13100TIP3   OH260714   0.679   5.406   3.523 -0.7347  0.0261  0.2813
13100TIP3    H160715   0.717   5.482   3.479  0.1809  0.7961  2.3213
13100TIP3    H260716   0.724   5.331   3.484  1.1572  0.7738  0.9131
13101TIP3   OH260717   5.817   4.672  15.687 -0.3107 -0.1959 -0.5736
13101TIP3    H160718   5.801   4.765  15.699  0.2453  0.0665 -1.7770
13101TIP3    H260719   5.785   4.632  15.768  1.4530  1.2371  0.9221
13102TIP3   OH260720   4.280   6.164  14.319  0.2651  0.0049 -0.2975
13102TIP3    H160721   4.342   6.147  14.248 -0.0036  0.2089 -0.5802
13102TIP3    H260722   4.260   6.257  14.312  1.0445  0.2699  0.6961
13103TIP3   OH260723   3.016   3.386   3.080 -0.5448  0.9638 -0.1909
13103TIP3    H160724   2.955   3.335   3.027  0.2139  0.6101 -0.7390
13103TIP3    H260725   3.003   3.353   3.169  0.4380 -0.7342 -0.6295
13104TIP3   OH260726   2.849   3.223  13.048 -0.2900 -0.0821 -0.4402
13104TIP3    H160727   2.942   3.243  13.057 -0.2224 -0.7627  0.5680
13104TIP3    H260728   2.810   3.304  13.015  0.7121  0.0874 -1.2415
13105TIP3   OH260729   2.918   2.946  15.242 -0.3007  0.3989  0.0439
13105TIP3    H160730   2.927   2.898  15.324 -0.0371  1.9982  0.9966
13105TIP3    H260731   2.825   2.936  15.219 -0.3885 -0.0350  0.5630
13106TIP3   OH260732   6.662   5.206  13.014  0.1581 -0.1947  0.2218
13106TIP3    H160733   6.721   5.175  13.083  1.3923 -3.5215 -2.0864
13106TIP3    H260734   6.589   5.144  13.015  0.1929 -0.3071 -1.3958
13107TIP3   OH260735   6.584   2.421   6.160  0.4029  0.3577  0.4452
13107TIP3    H160736   6.572   2.501   6.110  0.9219  1.2714  1.7241
13107TIP3    H260737   6.629   2.449   6.240  0.4150 -1.1776  1.0145
13108TIP3   OH260738   2.885   3.901   4.068 -0.1736  0.0831  0.4728
13108TIP3    H160739   2.880   3.869   3.978 -0.5773 -0.2902  0.6263
13108TIP3    H260740   2.900   3.995   4.059  2.1746 -0.2839  0.0150
13109TIP3   OH260741   1.533   1.356  12.463  0.6823  0.2475 -0.4104
13109TIP3    H160742   1.552   1.396  12.377  0.9087  0.5577 -0.2184
13109TIP3    H260743   1.605   1.294  12.477  0.4911 -0.0108 -0.5750
13110TIP3   OH260744   1.773   0.051  11.120 -0.5972  0.2683  0.1463
13110TIP3    H160745   1.862   0.040  11.087 -0.5258 -1.2074  0.7643
13110TIP3    H260746   1.718   0.052  11.042 -0.5159 -3.9240 -0.1897
13111TIP3   OH260747   2.175   5.053  13.746 -0.0336  0.0379 -0.6124
13111TIP3    H160748   2.188   4.971  13.794 -0.6058 -0.4104 -1.2106
13111TIP3    H260749   2.153   5.026  13.657 -2.0825  0.7902 -0.3872
13112TIP3   OH260750   5.714   2.796  16.658  0.8087 -0.0292 -0.0475
13112TIP3    H160751   5.703   2.804  16.753  2.9470 -1.8853  0.4264
13112TIP3    H260752   5.626   2.776  16.625 -0.1444  1.5698  1.3702
13113TIP3   OH260753   6.126   6.604   4.853 -0.0292 -0.2437  0.2030
13113TIP3    H160754   6.129   6.583   4.760  0.6197 -0.6792  0.3149
13113TIP3    H260755   6.067   6.679   4.859 -1.1359 -1.0474 -0.3904
13114TIP3   OH260756   1.181   0.486   4.540  0.1326 -0.1355 -0.6071
13114TIP3    H160757   1.235   0.564   4.547 -0.9835  0.5920  0.4965
13114TIP3    H260758   1.151   0.470   4.630 -0.9355 -0.8840 -1.0769
13115TIP3   OH260759   0.299   6.360  13.066  0.8913  0.3826 -0.1177
13115TIP3    H160760   0.217   6.316  13.044  1.6045 -2.2202  2.0439
13115TIP3    H260761   0.367   6.302  13.032  1.8994  1.6874 -0.4124
13116TIP3   OH260762   1.782   4.440   5.994  0.3702  0.0829 -0.0319
13116TIP3    H160763   1.688   4.441   5.977  0.6893 -0.1646 -2.0862
13116TIP3    H260764   1.793   4.374   6.062 -0.8869 -0.2664 -0.1394
13117TIP3   OH260765   2.724   2.831   4.963  0.1634 -0.1637  0.0888
13117TIP3    H160766   2.805   2.861   5.003  0.0282  0.0280  0.2214
13117TIP3    H260767   2.726   2.868   4.875  0.8080 -1.1950 -0.3410
13118TIP3   OH260768   2.633   1.830   1.926 -0.1522 -0.0392 -0.3539
13118TIP3    H160769   2.627   1.774   2.003 -0.2453 -1.3913 -1.3163
13118TIP3    H260770   2.661   1.772   1.855 -0.9259  0.9778 -1.5440
13119TIP3   OH260771   0.215   5.820  10.804 -0.1256 -0.0422  0.3458
13119TIP3    H160772   0.150   5.871  10.756  0.2903  0.5510  0.4114
13119TIP3    H260773   0.277   5.790  10.737  0.5362  0.9080  0.5244
13120TIP3   OH260774   4.052   3.510  12.716  0.2505  0.3116  0.1106
13120TIP3    H160775   4.096   3.534  12.635 -0.3006 -0.1915 -0.3460
13120TIP3    H260776   4.115   3.453  12.761 -0.2070 -1.0275 -0.8928
13121TIP3   OH260777   0.735   3.600   1.543  0.0059 -0.4095 -0.6829
13121TIP3    H160778   0.773   3.591   1.630 -3.7573 -1.4417  1.0648
13121TIP3    H260779   0.738   3.694   1.525  2.9341 -0.4015 -0.6065
13122TIP3   OH260780   5.453   0.610  12.980  0.6082 -0.3426  0.2023
13122TIP3    H160781   5.531   0.555  12.993 -0.4081 -1.5395  1.5300
13122TIP3    H260782   5.405   0.566  12.910  0.1243 -0.8146  0.8121
13123TIP3   OH260783   3.937   2.900  12.775 -0.1995 -0.7441  0.2957
13123TIP3    H160784   3.865   2.870  12.831  1.9723 -3.0822  2.0860
13123TIP3    H260785   3.924   2.852  12.693 -2.2490  1.1541 -0.6064
13124TIP3   OH260786   0.428   6.113  13.571 -0.4839  0.7917  0.9049
13124TIP3    H160787   0.356   6.053  13.591  0.3239 -0.1322  1.0670
13124TIP3    H260788   0.448   6.155  13.654  0.5155 -0.4583  1.3189
13125TIP3   OH260789   1.816   1.488  13.461 -0.5030  0.3283  0.3141
13125TIP3    H160790   1.832   1.523  13.548  0.2383  0.4134  0.1470
13125TIP3    H260791   1.818   1.565  13.403 -1.5091  0.3441  0.2759
13126TIP3   OH260792   5.894   0.021  14.543 -0.5424  0.1600  0.2111
13126TIP3    H160793   5.830  -0.026  14.490 -0.2980 -0.3090  0.3254
13126TIP3    H260794   5.849   0.102  14.569 -0.4503  0.7027 -1.2138
13127TIP3   OH260795   5.307   4.129   3.185  0.0239 -0.5951  0.1781
13127TIP3    H160796   5.243   4.199   3.195 -0.9568 -1.5073  0.5292
13127TIP3    H260797   5.265   4.065   3.128  0.3095 -1.5425  0.9843
13128TIP3   OH260798   3.414   3.230  15.687 -0.0277 -0.1382  0.4966
13128TIP3    H160799   3.464   3.152  15.712 -1.8599 -0.3595  4.0716
13128TIP3    H260800   3.479   3.301  15.686  0.9944 -1.0188  1.3348
13129TIP3   OH260801   6.041   3.100   5.377  0.2426 -0.1314  0.1020
13129TIP3    H160802   6.085   3.017   5.359  0.0275 -0.1883 -0.1651
13129TIP3    H260803   6.078   3.161   5.314 -0.5171 -0.3329 -0.5613
13130TIP3   OH260804   0.803   5.056  16.476  0.5399  0.2742  0.3788
13130TIP3    H160805   0.816   4.972  16.519  2.5247 -0.3496 -1.2741
13130TIP3    H260806   0.710   5.057  16.452  0.3828 -1.2259  0.8490
13131TIP3   OH260807   6.669   3.287   3.514  0.4488 -0.0406  0.3613
13131TIP3    H160808   6.721   3.207   3.524  1.1239  0.4754  1.1142
13131TIP3    H260809   6.613   3.270   3.438  0.2400 -1.4050  0.7953
13132TIP3   OH260810   4.332   6.359   5.429  0.6601 -0.3874  0.5107
13132TIP3    H160811   4.298   6.337   5.515  0.1133 -1.2168  0.1003
13132TIP3    H260812   4.426   6.369   5.442  0.5406 -0.1589  1.2587
13133TIP3   OH260813   1.909   0.258   2.481  0.2821  0.3425 -0.5799
13133TIP3    H160814   1.896   0.271   2.387 -0.4857  2.0695 -0.2713
13133TIP3    H260815   1.851   0.322   2.522 -0.5584 -1.4141  1.1172
13134TIP3   OH260816   4.013   2.208  16.054  0.2245 -0.0835 -0.5488
13134TIP3    H160817   4.084   2.267  16.077  0.5583 -0.0649 -1.5541
13134TIP3    H260818   4.046   2.159  15.978 -0.0060 -1.6263  0.3061
13135TIP3   OH260819   2.440   2.980   0.522  0.1093  0.9352  0.0268
13135TIP3    H160820   2.526   3.020   0.538  0.8332 -0.4043 -0.2871
13135TIP3    H260821   2.459   2.909   0.460 -0.9635 -0.3244  1.0706
13136TIP3   OH260822   5.673   3.771  12.377 -0.6181 -0.1902  0.2379
13136TIP3    H160823   5.668   3.862  12.350  0.0475 -0.0969  0.3964
13136TIP3    H260824   5.604   3.727  12.328 -0.5389  0.2843 -0.3100
13137TIP3   OH260825   5.890   2.837   1.022  0.0971  0.3752 -0.0145
13137TIP3    H160826   5.881   2.882   1.106 -1.3148  0.4926 -0.2185
13137TIP3    H260827   5.984   2.840   1.004  0.3410  0.9154  1.2471
13138TIP3   OH260828   1.512   5.876  15.707  0.2143 -0.2456  0.5929
13138TIP3    H160829   1.572   5.821  15.657 -1.6650 -0.0770 -2.0211
13138TIP3    H260830   1.469   5.816  15.768  1.1508 -0.8413  0.6741
13139TIP3   OH260831   5.477   3.775   1.424  0.3662 -0.1174  0.1174
13139TIP3    H160832   5.449   3.701   1.370 -0.3275  0.2155  0.0181
13139TIP3    H260833   5.396   3.817   1.452  0.7548  0.9013 -0.2347
13140TIP3   OH260834   4.540   5.524  14.592 -0.2902  0.0264 -0.1577
13140TIP3    H160835   4.526   5.524  14.687  1.5974  1.4842  0.1771
13140TIP3    H260836   4.560   5.615  14.571 -0.5428 -0.3031 -1.9437
13141TIP3   OH260837   2.523   4.936   1.935  0.8571  0.1234 -0.1719
13141TIP3    H160838   2.532   4.861   1.876 -0.6684 -0.6558  0.5199
13141TIP3    H260839   2.440   4.976   1.909 -0.7647 -1.2435  2.4248
13142TIP3   OH260840   3.519   5.308  11.540 -0.0977  0.3863  0.3806
13142TIP3    H160841   3.509   5.345  11.452 -0.9948 -1.0404 -0.1462
13142TIP3    H260842   3.441   5.255  11.553  0.0280  0.5521  2.0588
13143TIP3   OH260843   2.149   0.540   3.773  0.0659  0.2236 -0.0473
13143TIP3    H160844   2.114   0.474   3.833  0.6167 -0.3721 -0.3715
13143TIP3    H260845   2.193   0.603   3.830  0.7196 -0.4202  0.1760
13144TIP3   OH260846   4.218   1.966  14.847  0.2194  0.1283  0.0441
13144TIP3    H160847   4.125   1.964  14.823  0.0605  0.4332  0.6142
13144TIP3    H260848   4.220   1.936  14.938  0.7851 -0.7704 -0.2612
13145TIP3   OH260849   0.278   5.050  16.578 -0.1580 -0.2470  0.3610
13145TIP3    H160850   0.227   5.001  16.642 -1.1253 -1.1549 -1.0566
13145TIP3    H260851   0.222   5.122  16.552 -0.2998 -0.6215 -0.3995
13146TIP3   OH260852   0.240   0.904  11.639 -0.3731  0.0655 -0.3945
13146TIP3    H160853   0.307   0.960  11.599 -0.8781 -0.8687 -2.6788
13146TIP3    H260854   0.158   0.951  11.624 -0.6020 -0.4426 -0.7627
13147TIP3   OH260855   3.437   2.548  17.184 -0.4988 -0.1135 -0.3989
13147TIP3    H160856   3.470   2.466  17.149 -1.2301 -0.0409 -1.3028
13147TIP3    H260857   3.347   2.529  17.211 -0.4294  0.2054  0.0755
13148TIP3   OH260858   0.762   1.698   4.834  0.5561  0.3416 -0.0954
13148TIP3    H160859   0.855   1.676   4.827  0.1959 -0.8511 -3.2255
13148TIP3    H260860   0.730   1.643   4.905  1.9858 -0.4374 -0.0076
13149TIP3   OH260861   1.683   6.201  13.079 -0.1262  0.3313 -0.1540
13149TIP3    H160862   1.665   6.257  13.155 -1.2811  0.1629 -0.2831
13149TIP3    H260863   1.606   6.144  13.073  0.8030 -0.9627 -0.3045
13150TIP3   OH260864   5.010   4.605  12.171  0.1670 -0.2610  0.0200
13150TIP3    H160865   5.046   4.683  12.214  0.0231 -0.6561  0.8920
13150TIP3    H260866   4.936   4.637  12.120  0.7670  0.3245 -0.5044
13151TIP3   OH260867   0.415   5.328  16.458  0.0473 -0.3009  0.7541
13151TIP3    H160868   0.332   5.341  16.505 -0.7183  0.6058 -0.7455
13151TIP3    H260869   0.478   5.304  16.526 -1.2925 -0.3477  2.0317
13152TIP3   OH260870   4.669   1.116  12.242 -0.6604 -0.1416  0.6229
13152TIP3    H160871   4.681   1.211  12.245 -3.1741  0.2121  1.2402
13152TIP3    H260872   4.754   1.081  12.267  1.2516  1.8414 -2.3906
13153TIP3   OH260873   3.437   6.555  17.405 -0.1181 -0.3640  0.2158
13153TIP3    H160874   3.482   6.477  17.372 -2.0984 -0.5604 -2.3677
13153TIP3    H260875   3.461   6.624  17.343 -0.1073  0.5736  1.2262
13154TIP3   OH260876   4.473   1.799   2.622 -0.3812 -0.1843  0.0756
13154TIP3    H160877   4.545   1.745   2.590  0.7046  0.8457  0.6905
13154TIP3    H260878   4.398   1.740   2.625 -0.2198 -0.7017 -2.9397
13155TIP3   OH260879   5.473   2.601  16.937  0.4577  0.4765  0.8684
13155TIP3    H160880   5.457   2.518  16.982 -1.9871  0.4575  0.1008
13155TIP3    H260881   5.530   2.578  16.864  0.1866 -0.4556  0.9401
13156TIP3   OH260882   1.631   5.808   5.075  0.0772 -0.2147  0.1283
13156TIP3    H160883   1.667   5.893   5.049 -0.4991  0.1656  0.5223
13156TIP3    H260884   1.568   5.787   5.006 -1.0836  0.5535  0.8973
13157TIP3   OH260885   1.040   4.874  11.415 -0.3189 -0.1568  0.2252
13157TIP3    H160886   0.951   4.864  11.381 -0.3195  0.2334  0.0977
13157TIP3    H260887   1.028   4.881  11.510 -0.4476  0.1199  0.1908
13158TIP3   OH260888   3.725   0.215   0.956 -0.0128  0.3695  0.1371
13158TIP3    H160889   3.646   0.182   0.914  0.3002 -0.7514  0.3898
13158TIP3    H260890   3.783   0.237   0.883  1.0350 -2.7971 -0.1484
13159TIP3   OH260891   6.584   4.544  15.085 -0.2744  0.2418 -0.4913
13159TIP3    H160892   6.512   4.605  15.070  0.8192  1.5280 -0.8008
13159TIP3    H260893   6.566   4.505  15.170 -2.0028 -0.4752 -1.1403
13160TIP3   OH260894   5.279   5.079  12.148 -0.5133 -0.0769 -0.4156
13160TIP3    H160895   5.267   5.080  12.243 -0.4731 -0.0631 -0.4110
13160TIP3    H260896   5.358   5.130  12.133  0.0379 -0.9037 -0.3774
13161TIP3   OH260897   3.616   4.331   5.908  0.1175  0.3039  0.3948
13161TIP3    H160898   3.568   4.252   5.929  2.1261 -1.5783 -1.5662
13161TIP3    H260899   3.623   4.331   5.812  0.9440  2.3825  0.3889
13162TIP3   OH260900   4.455   6.748   6.693  0.1816  0.2027  0.0262
13162TIP3    H160901   4.459   6.757   6.598 -1.0667  2.5111  0.0995
13162TIP3    H260902   4.417   6.662   6.707  0.4645 -0.2166 -1.5591
13163TIP3   OH260903   1.830   2.814   3.505 -0.0768 -0.2404  0.2103
13163TIP3    H160904   1.777   2.805   3.584  1.0031  0.7782  1.0945
13163TIP3    H260905   1.894   2.882   3.527  1.0902 -0.8749 -1.0802
13164TIP3   OH260906   5.823   5.568   2.723 -0.0948  0.0982 -0.0273
13164TIP3    H160907   5.882   5.587   2.796 -0.1957 -0.3149  0.1652
13164TIP3    H260908   5.821   5.472   2.718  0.1744  0.1207 -0.7873
13165TIP3   OH260909   2.555   1.536   4.275  0.0413  0.2673  0.2411
13165TIP3    H160910   2.593   1.555   4.361  0.7667 -1.6328  0.3856
13165TIP3    H260911   2.536   1.442   4.277 -0.0249  0.1954 -1.6285
13166TIP3   OH260912   5.566   4.443  14.359  0.1404  0.3104 -0.1462
13166TIP3    H160913   5.638   4.447  14.296  0.4637 -0.3451  0.1699
13166TIP3    H260914   5.497   4.497  14.321  0.3849  0.0346 -0.9892
13167TIP3   OH260915   1.193   5.972  12.558 -0.1617  0.0872 -0.9766
13167TIP3    H160916   1.233   5.904  12.504  2.5373  0.0781  0.8433
13167TIP3    H260917   1.159   6.035  12.495  3.4767  0.4624 -2.8659
13168TIP3   OH260918   3.808   4.501   6.027 -0.3884  0.5361  0.3442
13168TIP3    H160919   3.750   4.440   5.982  0.3110  0.2876 -0.2523
13168TIP3    H260920   3.896   4.464   6.013  0.0442  1.6821 -0.0476
13169TIP3   OH260921   5.266   3.644  12.519 -0.0436  0.0999  0.3066
13169TIP3    H160922   5.326   3.675  12.452  1.2975 -0.8390  1.0421
13169TIP3    H260923   5.205   3.587  12.472  0.7764 -0.4058 -0.1552
13170TIP3   OH260924   1.716   1.306  14.381 -0.1761  0.7365  0.1553
13170TIP3    H160925   1.742   1.353  14.301 -1.4944  0.8102 -0.2502
13170TIP3    H260926   1.716   1.373  14.449  0.3170  0.8130  0.0851
13171TIP3   OH260927   3.349   6.507  12.136  0.0824 -0.1399  0.1747
13171TIP3    H160928   3.345   6.496  12.041 -0.5403  1.9401 -0.0948
13171TIP3    H260929   3.434   6.471  12.161 -0.1793 -1.6999 -0.9828
13172TIP3   OH260930   1.602   6.675   3.008 -0.1491  0.4841 -0.0105
13172TIP3    H160931   1.594   6.614   2.935 -0.4845 -0.4164  0.7603
13172TIP3    H260932   1.657   6.746   2.974  0.9322 -0.6258 -0.6833
13173TIP3   OH260933   3.421   6.528   2.783  0.0311  0.3716  0.3107
13173TIP3    H160934   3.426   6.518   2.878  0.1644  0.6680  0.3354
13173TIP3    H260935   3.435   6.439   2.749  1.0232  0.4304  0.5378
13174TIP3   OH260936   5.778   3.741   1.718  0.0484 -0.5012 -0.5867
13174TIP3    H160937   5.837   3.782   1.781 -0.7906  2.0099 -1.3252
13174TIP3    H260938   5.711   3.700   1.772 -0.1055  0.7239  0.1849
13175TIP3   OH260939   1.311   1.098   2.407 -0.0746 -0.0835 -0.0699
13175TIP3    H160940   1.318   1.011   2.367  0.8492  0.0609 -0.2482
13175TIP3    H260941   1.231   1.094   2.458 -1.1735 -0.3737 -1.7131
13176TIP3   OH260942   1.548   0.043   2.115  0.0297 -0.0363 -0.7280
13176TIP3    H160943   1.500   0.035   2.033  1.7414  1.7993 -2.0275
13176TIP3    H260944   1.606   0.119   2.101  0.1824  0.5247  2.2951
13177TIP3   OH260945   3.528   4.438   1.381 -0.0745 -0.1187  0.8648
13177TIP3    H160946   3.531   4.404   1.471  0.4083  2.1368  1.7915
13177TIP3    H260947   3.505   4.363   1.327  1.0617 -1.8881  2.6979
13178TIP3   OH260948   1.519   2.230   5.486 -0.2401  1.2167 -0.0202
13178TIP3    H160949   1.429   2.201   5.472 -0.1354  0.8172  0.1525
13178TIP3    H260950   1.567   2.151   5.511  0.6625  0.9287 -2.3992
13179TIP3   OH260951   0.519   5.183  14.106  0.1150  0.3946  0.2142
13179TIP3    H160952   0.511   5.107  14.049 -1.7519  1.1953 -0.6779
13179TIP3    H260953   0.511   5.258  14.047 -0.8203  1.2538  1.3867
13180TIP3   OH260954   4.259   5.536  14.841  0.3148 -0.2084  0.1677
13180TIP3    H160955   4.343   5.582  14.850  0.4107 -0.6561  2.1510
13180TIP3    H260956   4.196   5.604  14.820  0.7376  0.5977  1.4242
13181TIP3   OH260957   4.050   0.861  15.948  0.1686  0.4469 -0.6959
13181TIP3    H160958   4.145   0.871  15.934  0.0240  1.7574 -0.8635
13181TIP3    H260959   4.024   0.794  15.886  0.9430  0.2889 -0.8650
13182TIP3   OH260960   4.753   5.967   5.701  0.3963  0.2739  0.1553
13182TIP3    H160961   4.722   5.919   5.624  0.8177 -2.9340  1.8098
13182TIP3    H260962   4.797   6.044   5.665 -0.2489 -0.5876 -2.7466
13183TIP3   OH260963   0.140   5.007   2.229  0.3997 -0.9607  0.3058
13183TIP3    H160964   0.090   4.928   2.209 -0.0134 -0.6269  0.0406
13183TIP3    H260965   0.193   5.023   2.151 -0.0835 -0.5336  0.0694
13184TIP3   OH260966   2.360   3.667  17.248 -0.4671  0.3547  0.0830
13184TIP3    H160967   2.274   3.624  17.248 -0.9877  1.3406  1.1988
13184TIP3    H260968   2.341   3.758  17.269  0.7120  0.9585 -1.3350
13185TIP3   OH260969   4.932   3.730  10.703 -0.1594  0.3407 -0.4939
13185TIP3    H160970   5.026   3.717  10.689 -0.3791 -0.0934 -1.7341
13185TIP3    H260971   4.924   3.821  10.732  0.6650  0.3006 -0.1298
13186TIP3   OH260972   0.094   2.822   2.735  0.6887 -0.0765 -0.3192
13186TIP3    H160973   0.130   2.847   2.650  0.5004  1.3072 -0.0091
13186TIP3    H260974   0.001   2.846   2.729  0.7829  0.5165  0.4484
13187TIP3   OH260975   5.508   3.663   3.699  0.5401  0.4025 -0.3397
13187TIP3    H160976   5.546   3.585   3.740 -2.7295 -1.5540 -0.6410
13187TIP3    H260977   5.477   3.716   3.773  0.0597 -0.1009 -0.1765
13188TIP3   OH260978   5.142   6.001  15.121 -0.2249 -0.1039  0.1703
13188TIP3    H160979   5.072   5.954  15.076 -0.4852  1.2359 -0.8762
13188TIP3    H260980   5.118   6.093  15.112  1.5784  0.3731 -0.0476
13189TIP3   OH260981   0.222   3.503  11.496  0.0171  0.4281  0.7248
13189TIP3    H160982   0.209   3.594  11.471 -1.1425  0.2990  0.7901
13189TIP3    H260983   0.142   3.459  11.468  0.6937 -0.6360  0.4118
13190TIP3   OH260984   2.733   6.200  13.157  0.9536  0.1627  0.2587
13190TIP3    H160985   2.790   6.238  13.090 -0.5454  0.8344 -0.6939
13190TIP3    H260986   2.701   6.276  13.206 -1.6862  0.2013 -1.3397
13191TIP3   OH260987   1.839   3.848  14.965 -0.0439 -0.3730  0.3414
13191TIP3    H160988   1.924   3.878  14.932  0.4536 -2.4200 -0.3931
13191TIP3    H260989   1.859   3.766  15.011 -1.5586 -0.6439  0.5577
13192TIP3   OH260990   6.343   3.317   1.103  0.6445  0.4279 -0.1990
13192TIP3    H160991   6.284   3.243   1.118  0.9085  0.4656  1.1243
13192TIP3    H260992   6.310   3.385   1.162  1.7757  0.5749  0.2727
13193TIP3   OH260993   0.799   2.552  13.220 -0.8458 -0.0363  0.6007
13193TIP3    H160994   0.746   2.605  13.162  0.9632  0.6462 -0.4993
13193TIP3    H260995   0.798   2.464  13.181 -0.1965  0.2593 -0.0937
13194TIP3   OH260996   2.524   2.432  12.726 -0.1888 -0.2252 -0.0254
13194TIP3    H160997   2.545   2.384  12.646 -1.5306 -1.5351  0.3655
13194TIP3    H260998   2.436   2.468  12.711 -0.4424 -0.4491  0.8331
13195TIP3   OH260999   3.574   5.012  15.323  0.0054  0.0710 -0.0787
13195TIP3    H161000   3.652   5.065  15.337  0.1293 -0.0738 -0.2121
13195TIP3    H261001   3.510   5.073  15.286 -0.9732  0.9279  2.7859
13196TIP3   OH261002   1.587   0.679   3.933 -0.4228 -0.6902 -0.0908
13196TIP3    H161003   1.538   0.742   3.986 -0.1085  0.1586 -0.7767
13196TIP3    H261004   1.564   0.593   3.969 -0.0061 -0.1388  1.5810
13197TIP3   OH261005   5.173   1.494   1.038 -0.2295  0.2913 -0.0519
13197TIP3    H161006   5.190   1.424   1.101  0.8273 -1.0350 -1.7392
13197TIP3    H261007   5.079   1.491   1.022 -0.3512 -0.0194  0.6928
13198TIP3   OH261008   1.209   0.649  11.104 -0.1100 -0.3948 -0.1679
13198TIP3    H161009   1.166   0.694  11.032 -0.7458  1.4599  1.2812
13198TIP3    H261010   1.301   0.645  11.080 -0.0760  1.5357 -0.4441
13199TIP3   OH261011   1.881   0.243  10.525  0.3263 -0.0433 -1.0693
13199TIP3    H161012   1.787   0.230  10.514  0.0625  1.4338 -0.7562
13199TIP3    H261013   1.908   0.288  10.445  0.6195  0.2159 -0.8254
13200TIP3   OH261014   3.021   1.087  15.821  0.0260  0.1767  0.0370
13200TIP3    H161015   2.993   1.077  15.912  0.8405 -1.8264  0.1062
13200TIP3    H261016   3.113   1.063  15.821 -0.0722 -0.3130 -1.3941
13201TIP3   OH261017   5.928   2.604  15.029 -0.2705 -0.2148 -0.0797
13201TIP3    H161018   5.921   2.554  15.110 -1.8801 -1.2024 -0.7730
13201TIP3    H261019   5.912   2.695  15.054  1.6447 -0.1393  1.0435
13202TIP3   OH261020   1.238   3.399  15.081  0.3831 -0.4115 -0.5631
13202TIP3    H161021   1.169   3.363  15.138  0.0349  1.4468  0.2454
13202TIP3    H261022   1.241   3.492  15.102  1.8936 -0.1065 -1.9242
13203TIP3   OH261023   0.267   5.490  13.567 -0.3907  0.3604  0.0324
13203TIP3    H161024   0.278   5.410  13.618 -0.8257  0.4729  0.3103
13203TIP3    H261025   0.189   5.475  13.514  0.1072  0.2133 -0.6675
13204TIP3   OH261026   3.691   4.234   3.452  0.4137 -0.0805 -0.2207
13204TIP3    H161027   3.654   4.322   3.459 -1.4464 -0.8352  0.1706
13204TIP3    H261028   3.629   4.187   3.396  2.9748 -0.3772 -3.1022
13205TIP3   OH261029   5.922   2.117  13.917 -0.1683  0.0573 -0.4824
13205TIP3    H161030   5.986   2.053  13.948 -1.3394 -1.0797 -0.3330
13205TIP3    H261031   5.882   2.152  13.997  0.3781  0.9013 -0.5683
13206TIP3   OH261032   4.335   1.445  15.004  0.3744 -0.1836 -0.3699
13206TIP3    H161033   4.344   1.503  14.929  3.0297  1.6495  1.2227
13206TIP3    H261034   4.370   1.361  14.974  0.1710  0.1298 -1.5281
13207TIP3   OH261035   0.354   6.612   5.696  0.1256 -0.6829 -0.8469
13207TIP3    H161036   0.275   6.595   5.644 -0.9127 -0.5226  0.6092
13207TIP3    H261037   0.328   6.594   5.786  1.7768 -0.6461 -0.3271
13208TIP3   OH261038   5.738   4.792  13.029  0.5603  0.4389  0.0790
13208TIP3    H161039   5.681   4.718  13.010  4.3431 -2.5560 -0.9904
13208TIP3    H261040   5.752   4.788  13.124  1.3994 -0.8929 -0.0713
13209TIP3   OH261041   0.741   1.111  17.317  0.2950  0.2387 -0.2775
13209TIP3    H161042   0.831   1.092  17.345 -0.1353  0.6898  1.5591
13209TIP3    H261043   0.724   1.199  17.351 -0.9176  0.0653 -0.4090
13210TIP3   OH261044   6.526   2.387   1.709 -0.2063 -0.0283  0.5559
13210TIP3    H161045   6.447   2.386   1.763 -0.6120  1.2345  0.0346
13210TIP3    H261046   6.492   2.390   1.619  0.4428  0.3715  0.3245
13211TIP3   OH261047   5.408   0.141  13.031  0.2454 -0.0541 -0.7934
13211TIP3    H161048   5.351   0.066  13.046  1.3416 -1.4265 -2.9346
13211TIP3    H261049   5.488   0.122  13.081  0.7077 -0.5980 -1.7063
13212TIP3   OH261050   3.889   3.778  12.663 -0.1631  0.0822  0.1934
13212TIP3    H161051   3.963   3.755  12.607 -1.0111 -0.2114 -0.8528
13212TIP3    H261052   3.886   3.709  12.729  0.0737 -0.2994 -0.1904
13213TIP3   OH261053   6.258   4.704   3.514  0.0184  0.1603 -0.8785
13213TIP3    H161054   6.184   4.654   3.549  1.0619 -0.3073  0.7682
13213TIP3    H261055   6.308   4.639   3.464 -0.4421  0.3838 -1.6476
13214TIP3   OH261056   4.245   1.894   3.467 -0.2900  0.4342  0.4989
13214TIP3    H161057   4.156   1.869   3.447 -0.0431  0.7928 -1.1967
13214TIP3    H261058   4.298   1.818   3.445 -0.0711  0.6061  0.4205
13215TIP3   OH261059   3.796   4.572  15.460 -0.2155  0.3512 -0.2468
13215TIP3    H161060   3.758   4.643  15.409 -2.3046 -0.5317  0.0086
13215TIP3    H261061   3.755   4.578  15.546 -1.8693 -2.1786 -0.7468
13216TIP3   OH261062   0.842   0.965   5.111 -0.5952 -0.3418  0.4141
13216TIP3    H161063   0.854   0.890   5.169  1.3016 -1.7500 -1.6211
13216TIP3    H261064   0.749   0.962   5.088 -0.7390 -1.5564  1.0544
13217TIP3   OH261065   2.010   2.871   3.963 -0.2253 -0.2895  0.0241
13217TIP3    H161066   1.966   2.787   3.975  0.3032 -0.4032  1.4607
13217TIP3    H261067   1.940   2.931   3.937 -1.1933 -0.5793  1.7400
13218TIP3   OH261068   2.809   0.972   3.116 -0.1220  0.4014  0.2152
13218TIP3    H161069   2.783   0.935   3.201  2.6231 -0.1180  0.9447
13218TIP3    H261070   2.771   0.912   3.052  0.7112 -1.3382  1.2482
13219TIP3   OH261071   4.861   2.709  11.416  0.4645 -0.2855 -0.5399
13219TIP3    H161072   4.840   2.787  11.467  1.7758  0.0053 -0.4231
13219TIP3    H261073   4.807   2.716  11.337  0.4156  0.6261 -0.4301
13220TIP3   OH261074   2.246   0.689  17.318 -0.6790  0.2406  0.1759
13220TIP3    H161075   2.285   0.775  17.334  0.5177 -0.3912  0.8296
13220TIP3    H261076   2.272   0.667  17.228  1.8491 -0.7953  1.0566
13221TIP3   OH261077   1.024   5.373   5.257 -0.1701  0.1311 -0.3507
13221TIP3    H161078   0.966   5.317   5.309  0.6016 -0.7882 -0.4815
13221TIP3    H261079   1.062   5.433   5.322 -0.2831 -0.0887 -0.0775
13222TIP3   OH261080   3.704   5.483   4.111 -0.6638 -0.0265 -0.4185
13222TIP3    H161081   3.652   5.537   4.051 -0.6709  0.8998  0.3920
13222TIP3    H261082   3.696   5.527   4.196 -0.8645 -1.4622  0.3225
13223TIP3   OH261083   3.438   0.749   0.501  0.2353  0.0148 -0.0925
13223TIP3    H161084   3.489   0.670   0.484  0.2946  0.3377 -1.4682
13223TIP3    H261085   3.471   0.780   0.586 -0.1683 -1.7011  0.7507
13224TIP3   OH261086   3.395   5.001   3.192 -0.0184  0.9838 -0.8320
13224TIP3    H161087   3.318   4.957   3.156  0.0261 -0.2125  0.4191
13224TIP3    H261088   3.436   4.934   3.248  2.0120  1.5314 -1.5719
13225TIP3   OH261089   1.506   6.502   4.336 -0.7641  0.2337 -0.2446
13225TIP3    H161090   1.482   6.538   4.421 -0.7471 -0.3923  0.0342
13225TIP3    H261091   1.484   6.571   4.273 -0.9951  0.6088  0.2435
13226TIP3   OH261092   1.417   4.659  13.581 -0.0730  0.4245  0.1031
13226TIP3    H161093   1.492   4.607  13.551 -0.3826 -0.8615  1.4645
13226TIP3    H261094   1.355   4.595  13.616 -1.7714  1.4647 -0.8366
13227TIP3   OH261095   2.019   5.687   2.696  0.6652  0.0110 -0.4051
13227TIP3    H161096   1.928   5.714   2.703  0.3494 -1.4124  1.6027
13227TIP3    H261097   2.023   5.636   2.615 -0.1485  0.6378 -0.8489
13228TIP3   OH261098   0.154   1.897   4.741  0.2504  0.1896 -0.2107
13228TIP3    H161099   0.242   1.895   4.778 -0.1139 -0.3747  0.6712
13228TIP3    H261100   0.167   1.891   4.647  1.2865  2.8920 -0.3443
13229TIP3   OH261101   3.714   2.140  16.622  0.0291 -0.5318  0.2284
13229TIP3    H161102   3.733   2.146  16.716 -0.6757 -0.7284  0.3859
13229TIP3    H261103   3.669   2.222  16.601  0.2139 -0.4737  0.0512
13230TIP3   OH261104   0.202   1.233   4.359  0.0159 -0.1920 -0.1653
13230TIP3    H161105   0.272   1.175   4.388  0.7844  0.9439  0.3203
13230TIP3    H261106   0.242   1.285   4.289  0.3789  1.9752  1.5603
13231TIP3   OH261107   2.475   3.596  11.812  0.1313 -0.5051  0.4234
13231TIP3    H161108   2.389   3.631  11.792  0.5139  0.4254  0.3802
13231TIP3    H261109   2.518   3.587  11.728  0.7737  0.8878  0.5795
13232TIP3   OH261110   6.643   0.759   3.495 -0.2413  0.3408 -0.2445
13232TIP3    H161111   6.689   0.777   3.413 -0.3272 -0.8940 -0.5884
13232TIP3    H261112   6.654   0.665   3.508 -2.6960 -0.0296 -0.3750
13233TIP3   OH261113   5.631   2.741  12.982  0.2673 -0.0759 -0.1776
13233TIP3    H161114   5.688   2.671  13.013  0.0654  0.0145  0.4127
13233TIP3    H261115   5.553   2.736  13.038  0.1133  0.4168 -0.3366
13234TIP3   OH261116   2.663   0.175  16.292 -0.3578 -0.1069 -0.0243
13234TIP3    H161117   2.633   0.145  16.378  1.0159  1.0463  0.9031
13234TIP3    H261118   2.612   0.255  16.277 -0.9761 -0.5902 -0.5450
13235TIP3   OH261119   3.810   3.861  10.457 -0.1483  0.5081 -0.1312
13235TIP3    H161120   3.812   3.952  10.425 -2.0469  1.0769  1.1793
13235TIP3    H261121   3.823   3.870  10.551  0.1548 -0.6503 -0.0583
13236TIP3   OH261122   4.094   1.510  14.288  0.5017 -0.5744  0.3487
13236TIP3    H161123   4.145   1.464  14.221 -0.6127 -2.6835  0.8592
13236TIP3    H261124   4.160   1.547  14.347  1.5284  1.4493 -1.8443
13237TIP3   OH261125   5.056   0.491   6.110  0.2657 -0.1247  0.0134
13237TIP3    H161126   5.019   0.539   6.184 -0.0502  0.8745 -0.7743
13237TIP3    H261127   5.033   0.400   6.127 -0.9583  0.2468  0.4769
13238TIP3   OH261128   5.283   5.215   3.617 -0.0627 -0.0511  0.1609
13238TIP3    H161129   5.318   5.272   3.685  0.3503  1.2163 -1.0636
13238TIP3    H261130   5.189   5.233   3.616 -0.0236  0.1530  0.2009
13239TIP3   OH261131   0.125   1.942   5.671 -0.1025  0.2634  0.4674
13239TIP3    H161132   0.034   1.964   5.694 -0.8410 -0.5924 -1.3657
13239TIP3    H261133   0.116   1.883   5.596  1.9878  0.0934  0.3044
13240TIP3   OH261134   2.198   4.328  16.366 -0.5522  0.0943  0.0033
13240TIP3    H161135   2.287   4.302  16.342 -0.3312 -0.2517  1.1400
13240TIP3    H261136   2.144   4.255  16.336 -0.7156  1.0829 -2.3015
13241TIP3   OH261137   0.727   2.272  13.113 -0.1077  0.0772  0.1004
13241TIP3    H161138   0.770   2.192  13.143 -2.2275 -1.2704 -0.2372
13241TIP3    H261139   0.752   2.280  13.021 -1.6656 -1.5402 -0.5206
13242TIP3   OH261140   0.992   2.828   5.054 -0.0250  0.7202  0.1792
13242TIP3    H161141   0.938   2.902   5.029 -1.5089 -0.6022 -0.7549
13242TIP3    H261142   0.934   2.752   5.048  1.3146 -0.5019  1.4526
13243TIP3   OH261143   4.759   1.409  17.389  0.1262 -0.2585  0.2524
13243TIP3    H161144   4.778   1.372  17.476 -1.0643 -1.5496  0.0078
13243TIP3    H261145   4.745   1.332  17.333 -0.9259  0.5529 -0.6512
13244TIP3   OH261146   1.777   4.135   0.285 -0.2997  0.0355  0.2481
13244TIP3    H161147   1.756   4.141   0.378  0.4884 -0.2131  0.4478
13244TIP3    H261148   1.793   4.042   0.269  3.0621  0.4117  0.6925
13245TIP3   OH261149   4.451   5.629  11.700  0.3058 -0.5583  0.4538
13245TIP3    H161150   4.403   5.696  11.651  0.5630  0.3366  1.3749
13245TIP3    H261151   4.412   5.546  11.672 -1.7217  0.1167  1.0791
13246TIP3   OH261152   4.612   2.263  13.793  0.0459 -0.3196  0.3390
13246TIP3    H161153   4.564   2.346  13.783 -1.4356 -1.1262  0.5179
13246TIP3    H261154   4.594   2.216  13.711 -2.0680 -1.9044  1.6281
13247TIP3   OH261155   2.316   0.993  13.376  0.3569 -0.6059  0.0892
13247TIP3    H161156   2.296   0.949  13.459 -0.3645  0.7233  0.6528
13247TIP3    H261157   2.332   1.084  13.400 -0.5913 -0.0286 -1.2980
13248TIP3   OH261158   0.561   5.327   1.397  0.2007 -0.0595  0.3973
13248TIP3    H161159   0.509   5.249   1.379 -0.4897  0.4382  0.1663
13248TIP3    H261160   0.633   5.324   1.335  0.7005 -0.9783  0.9966
13249TIP3   OH261161   0.384   0.279   4.993  0.3073  0.0444 -0.6679
13249TIP3    H161162   0.377   0.190   5.026  1.2119  0.5837  1.1145
13249TIP3    H261163   0.429   0.270   4.909 -0.1846 -1.2194 -0.8087
13250TIP3   OH261164   4.141   1.058   0.007  0.2781  0.3681 -0.6870
13250TIP3    H161165   4.056   1.082   0.043 -0.4616 -1.6732 -0.9230
13250TIP3    H261166   4.125   0.975  -0.039  2.4460 -0.2185 -0.4937
13251TIP3   OH261167   4.818   0.610   1.658  0.0595 -0.5863 -0.1813
13251TIP3    H161168   4.774   0.693   1.678 -0.0881 -0.4574 -0.9924
13251TIP3    H261169   4.825   0.566   1.743 -1.7815 -0.6850 -0.0317
13252TIP3   OH261170   2.246   4.355   1.713 -0.4582 -0.3726  0.0155
13252TIP3    H161171   2.240   4.450   1.728 -1.6330 -0.0153 -2.2203
13252TIP3    H261172   2.165   4.320   1.748 -0.1704 -0.5131  0.5465
13253TIP3   OH261173   1.427   1.629   0.143  0.0571  0.4823  0.1555
13253TIP3    H161174   1.472   1.575   0.078 -1.0388 -0.5150  0.1863
13253TIP3    H261175   1.446   1.719   0.117  1.5359  0.0967 -0.1834
13254TIP3   OH261176   5.117   0.857  13.234 -0.1567 -0.5074  0.3882
13254TIP3    H161177   5.120   0.797  13.159  0.5522  0.0294 -0.0246
13254TIP3    H261178   5.200   0.841  13.280  0.2131  0.4250  0.0580
13255TIP3   OH261179   1.003   2.147   1.531 -0.1828 -0.9639  0.3406
13255TIP3    H161180   1.065   2.075   1.531 -0.8633 -1.5859 -0.5190
13255TIP3    H261181   0.943   2.126   1.459 -0.3705  0.4826  0.0511
13256TIP3   OH261182   3.955   1.149  13.547 -0.8489  0.0131  0.2096
13256TIP3    H161183   4.016   1.076  13.538 -2.0090 -1.0193  0.3240
13256TIP3    H261184   3.939   1.178  13.457 -1.3860 -0.7641  0.0445
13257TIP3   OH261185   4.148   3.799  11.579  0.4880  0.6661  0.3099
13257TIP3    H161186   4.145   3.836  11.490  0.0246  3.6921  1.4428
13257TIP3    H261187   4.234   3.823  11.612  0.3651  0.2596  0.9385
13258TIP3   OH261188   1.130   0.409  13.610 -0.1733  0.2993  0.3306
13258TIP3    H161189   1.161   0.498  13.596  0.0921 -0.0487 -1.6533
13258TIP3    H261190   1.034   0.417  13.609 -0.1529  0.6209  0.6871
13259TIP3   OH261191   4.709   1.492  11.127 -0.1792 -0.2587 -0.2779
13259TIP3    H161192   4.739   1.466  11.214  0.8325  0.8507 -0.2704
13259TIP3    H261193   4.629   1.442  11.113  1.3319 -2.8994 -0.0553
13260TIP3   OH261194   4.988   0.298   2.529  0.3994  0.0912 -0.5176
13260TIP3    H161195   5.012   0.315   2.620 -2.5033 -1.6417  0.7217
13260TIP3    H261196   4.985   0.384   2.489  2.1287  0.8703  0.8800
13261TIP3   OH261197   6.714   1.236   0.945  0.1523  0.6504 -0.7897
13261TIP3    H161198   6.625   1.261   0.920 -0.0298  0.5316 -0.2596
13261TIP3    H261199   6.708   1.144   0.968  0.2326  0.8536  0.0824
13262TIP3   OH261200   3.346   6.693  14.003 -0.0563 -0.5086 -0.3640
13262TIP3    H161201   3.295   6.664  14.078  0.6112 -2.7924 -0.7202
13262TIP3    H261202   3.331   6.627  13.936  2.2036 -0.5037 -0.9720
13263TIP3   OH261203   1.682   1.591   3.032 -0.5819  0.2770  0.0285
13263TIP3    H161204   1.666   1.602   2.938 -0.7773 -1.2782 -0.1508
13263TIP3    H261205   1.714   1.677   3.061 -1.3977  1.0547 -1.2610
13264TIP3   OH261206   6.451   4.530   0.222 -0.0934  0.3775  0.1506
13264TIP3    H161207   6.446   4.551   0.129 -1.4441  1.7461  0.4860
13264TIP3    H261208   6.432   4.437   0.228  0.0439  0.2709 -0.9309
13265TIP3   OH261209   2.425   1.905   3.039 -0.3695  0.2232 -0.5972
13265TIP3    H161210   2.511   1.864   3.050  0.6276  2.3712  0.2621
13265TIP3    H261211   2.430   1.946   2.952  0.6127  2.6353  0.4951
13266TIP3   OH261212   2.431   2.226   4.446  0.2997  0.4301  0.3590
13266TIP3    H161213   2.428   2.275   4.528  0.0184  0.3636  0.3887
13266TIP3    H261214   2.451   2.136   4.472  0.4971  0.4659  0.3307
13267TIP3   OH261215   3.135   5.437   2.733  0.3236 -0.3769 -0.2443
13267TIP3    H161216   3.228   5.443   2.755  0.4638  1.1321 -1.1151
13267TIP3    H261217   3.128   5.356   2.682  1.4674  0.2236 -1.4242
13268TIP3   OH261218   0.050   4.322  12.355  0.3593  0.7708  0.3122
13268TIP3    H161219  -0.011   4.271  12.409 -1.5366  2.9206  0.3484
13268TIP3    H261220   0.131   4.271  12.357 -0.7929 -1.1836  1.9830
13269TIP3   OH261221   4.404   2.383  14.748  0.5033 -0.0680  0.0154
13269TIP3    H161222   4.500   2.381  14.745  0.7367  2.6572  1.8023
13269TIP3    H261223   4.383   2.367  14.840 -0.4275  2.9766  0.4536
13270TIP3   OH261224   4.958   4.048   3.861 -0.3005  0.0531 -0.0622
13270TIP3    H161225   5.019   4.114   3.894 -0.7439 -0.3254  1.5620
13270TIP3    H261226   5.002   4.011   3.785 -0.1512  2.3862 -1.2206
13271TIP3   OH261227   5.237   6.269   4.019  0.2950 -0.1496 -0.0425
13271TIP3    H161228   5.230   6.350   3.969  1.0481 -0.6931 -1.0791
13271TIP3    H261229   5.177   6.280   4.093  0.4637  1.3749 -0.1114
13272TIP3   OH261230   0.863   5.574   4.822  0.1173 -0.3497  0.0733
13272TIP3    H161231   0.806   5.498   4.831 -1.5671  0.8086 -0.4300
13272TIP3    H261232   0.822   5.642   4.876  1.3392  0.3620  0.1518
13273TIP3   OH261233   4.867   0.823  12.213  0.2539  0.4428  0.6421
13273TIP3    H161234   4.782   0.784  12.233 -0.9623  2.3064 -0.5546
13273TIP3    H261235   4.930   0.753  12.230 -1.7220 -1.8920 -0.9516
13274TIP3   OH261236   0.367   0.870   4.661  0.5214 -0.3055 -0.3706
13274TIP3    H161237   0.321   0.852   4.579 -1.0864 -0.3779  0.5023
13274TIP3    H261238   0.375   0.785   4.703  0.9002 -0.1996 -0.2257
13275TIP3   OH261239   2.016   5.219  12.688  0.2325  0.7509  0.3944
13275TIP3    H161240   1.948   5.222  12.755 -1.1918  1.1976 -1.0227
13275TIP3    H261241   2.002   5.298  12.636  1.9253  0.9124  0.1317
13276TIP3   OH261242   2.024   0.629   0.908  0.4222  0.2546  0.2366
13276TIP3    H161243   1.955   0.671   0.856  0.1452 -1.2560 -0.7018
13276TIP3    H261244   2.105   0.651   0.862  0.1149 -1.7088 -1.4040
13277TIP3   OH261245   1.402   1.643   4.579 -0.3437  0.2822 -0.6519
13277TIP3    H161246   1.408   1.694   4.660  0.4421 -0.0723 -0.4756
13277TIP3    H261247   1.422   1.706   4.510  0.2158  0.3107 -0.4670
13278TIP3   OH261248   0.334   3.831   4.991 -0.0608 -0.1702 -0.4141
13278TIP3    H161249   0.278   3.754   4.996  1.4035 -1.2304  0.5918
13278TIP3    H261250   0.308   3.885   5.066 -0.6220 -0.0101 -0.7214
13279TIP3   OH261251   1.524   4.421  14.759 -0.0224 -0.2228  0.1929
13279TIP3    H161252   1.563   4.479  14.693  1.1550  0.2440  1.2648
13279TIP3    H261253   1.436   4.455  14.772 -0.5878 -0.8152 -1.7092
13280TIP3   OH261254   2.101   1.977  16.124 -0.1917  0.4102  0.7061
13280TIP3    H161255   2.067   1.966  16.213  0.0006  0.9777  0.8570
13280TIP3    H261256   2.182   1.927  16.123 -0.6223 -0.2966  0.5873
13281TIP3   OH261257   1.163   0.874  13.324  0.4483 -0.4150 -0.1271
13281TIP3    H161258   1.144   0.968  13.326  1.1727 -0.1737  3.8563
13281TIP3    H261259   1.241   0.866  13.268  0.0844  1.2688 -0.9188
13282TIP3   OH261260   4.811   2.409  12.246  0.5510  1.0009  0.3454
13282TIP3    H161261   4.818   2.424  12.340  1.1032  0.0492  0.4762
13282TIP3    H261262   4.801   2.314  12.238 -1.1083  1.1988 -0.4785
13283TIP3   OH261263   4.059   0.285  11.448 -0.1219 -0.0123 -0.4975
13283TIP3    H161264   4.024   0.200  11.419  1.5996 -0.7833 -0.4055
13283TIP3    H261265   4.114   0.314  11.376  1.2209 -0.1527  0.4384
13284TIP3   OH261266   4.090   2.873  14.091 -0.3348 -0.7205  0.1410
13284TIP3    H161267   4.118   2.782  14.074  1.5404  0.0755 -1.4631
13284TIP3    H261268   4.025   2.890  14.023 -0.1206 -0.6238 -0.0398
13285TIP3   OH261269   0.649   5.380  13.332 -0.8073 -0.8872  0.1011
13285TIP3    H161270   0.736   5.398  13.296 -2.4119  1.0731 -3.2174
13285TIP3    H261271   0.633   5.288  13.313  0.4514 -1.2552  0.7044
13286TIP3   OH261272   5.284   2.030  16.123 -0.0857  0.6434  0.2741
13286TIP3    H161273   5.207   2.086  16.128  0.9362  2.1261  0.0361
13286TIP3    H261274   5.280   1.977  16.203 -2.8267 -1.4100 -1.0517
13287TIP3   OH261275   5.637   1.587   1.379 -0.2699  0.2466 -0.6288
13287TIP3    H161276   5.692   1.522   1.422 -0.1730 -0.5423 -1.8947
13287TIP3    H261277   5.616   1.650   1.448  1.8972  0.3733 -0.0207
13288TIP3   OH261278   5.974   6.516  10.221  0.0135 -0.1314  0.4380
13288TIP3    H161279   6.056   6.470  10.238  0.3511  0.0402 -0.6327
13288TIP3    H261280   5.980   6.596  10.273  0.0382 -0.6407  1.2221
13289TIP3   OH261281   3.548   0.444  14.775 -0.2853 -0.0923 -0.5209
13289TIP3    H161282   3.615   0.444  14.843 -2.4694 -1.9462  1.8413
13289TIP3    H261283   3.578   0.378  14.712  0.0755 -1.0374  0.6033
13290TIP3   OH261284   6.471   6.767   5.195  0.2512  0.1667 -0.0840
13290TIP3    H161285   6.378   6.774   5.214 -0.3141  0.6746 -2.6945
13290TIP3    H261286   6.511   6.749   5.280 -2.0562  1.2645  1.3487
13291TIP3   OH261287   1.944   4.612   3.156  0.2114  0.4489  0.0786
13291TIP3    H161288   1.943   4.552   3.082  1.0319  0.9392 -0.3427
13291TIP3    H261289   2.008   4.679   3.132  0.2886  0.7625  1.1160
13292TIP3   OH261290   4.657   4.965   2.928 -0.0073 -0.2249 -0.1538
13292TIP3    H161291   4.562   4.975   2.923  0.1497  0.9332 -1.2404
13292TIP3    H261292   4.684   4.947   2.839  0.6064 -2.8207  0.4844
13293TIP3   OH261293   6.687   6.233   1.367  0.4051 -0.5222 -0.0087
13293TIP3    H161294   6.685   6.172   1.441  1.2142 -0.1824  0.2980
13293TIP3    H261295   6.645   6.312   1.399  2.4194  0.3062  0.7285
13294TIP3   OH261296   0.804   1.691  14.957 -0.2452  0.0575 -0.0375
13294TIP3    H161297   0.819   1.748  15.032  0.0213 -0.7038  0.5035
13294TIP3    H261298   0.885   1.694  14.907  0.6648 -1.6440  1.2395
13295TIP3   OH261299   3.447   5.238   3.071  0.0199 -0.3199  0.4075
13295TIP3    H161300   3.422   5.151   3.102  0.0782 -0.9331 -1.1816
13295TIP3    H261301   3.363   5.283   3.057 -0.0036  0.1580  1.8809
13296TIP3   OH261302   5.328   3.839  16.772  0.4176 -0.3922 -0.1556
13296TIP3    H161303   5.321   3.855  16.867  2.5472 -0.6279  0.0972
13296TIP3    H261304   5.297   3.920  16.732 -1.6567 -0.7234  0.6732
13297TIP3   OH261305   3.701   6.721   1.404 -0.4363  0.4131  0.7233
13297TIP3    H161306   3.755   6.799   1.416 -0.9214  0.6163  1.6486
13297TIP3    H261307   3.729   6.662   1.473  2.1201 -1.5587 -1.7618
13298TIP3   OH261308   4.792   5.350   2.274 -0.2903  0.1937 -0.0863
13298TIP3    H161309   4.788   5.305   2.359 -0.5608 -0.1236 -0.2646
13298TIP3    H261310   4.741   5.295   2.216  0.0967  0.2840 -0.5165
13299TIP3   OH261311   3.205   1.237   3.744  0.1065 -0.0090  0.1565
13299TIP3    H161312   3.134   1.223   3.806 -1.9353 -0.7470 -2.2107
13299TIP3    H261313   3.182   1.317   3.698  0.1779 -0.8698 -1.4268
13300TIP3   OH261314   2.240   1.827  12.971 -0.3139 -0.3330  0.3689
13300TIP3    H161315   2.224   1.871  12.887  0.1869 -1.6513 -0.4501
13300TIP3    H261316   2.189   1.746  12.965 -0.3433 -0.3954  1.3904
13301TIP3   OH261317   4.640   0.044  14.439  0.1367  0.1475 -0.1025
13301TIP3    H161318   4.729   0.071  14.416  0.6456 -0.4237  1.1193
13301TIP3    H261319   4.583   0.101  14.386  1.2148  1.0537 -0.3141
13302TIP3   OH261320   0.051   0.788  11.443 -0.2804 -0.0504 -0.0767
13302TIP3    H161321   0.067   0.695  11.462  0.5451  0.1686  0.3322
13302TIP3    H261322   0.044   0.829  11.529  1.8282  0.6712 -0.1804
13303TIP3   OH261323   6.662   3.576  12.264 -0.0464  0.2802 -0.4514
13303TIP3    H161324   6.613   3.539  12.190 -1.8904  1.4191  0.1449
13303TIP3    H261325   6.642   3.669  12.262 -0.5067  0.2634  1.7584
13304TIP3   OH261326   4.034   3.566   2.518 -0.0067  0.0226  0.3196
13304TIP3    H161327   4.006   3.475   2.516  0.3340 -0.0822 -1.9539
13304TIP3    H261328   4.035   3.589   2.611 -1.5822 -1.8088  0.8396
13305TIP3   OH261329   3.174   4.889  15.283  0.4544  0.7073 -0.3381
13305TIP3    H161330   3.231   4.856  15.214 -0.5076  0.7689 -1.1887
13305TIP3    H261331   3.233   4.935  15.343  1.3468  0.3920 -0.9539
13306TIP3   OH261332   2.121   1.409   1.891  0.2319  0.0922 -0.5333
13306TIP3    H161333   2.153   1.499   1.883  1.2937  0.0245  1.9737
13306TIP3    H261334   2.197   1.354   1.870  0.0815 -0.1722 -0.4014
13307TIP3   OH261335   3.862   5.565   6.233 -0.3191  0.1189 -0.2354
13307TIP3    H161336   3.865   5.520   6.317 -0.2074  0.5415 -0.0107
13307TIP3    H261337   3.935   5.529   6.184 -0.7035 -0.5187 -0.3568
13308TIP3   OH261338   1.671   1.472   1.929  0.1167 -0.9845 -0.5986
13308TIP3    H161339   1.713   1.446   1.847  0.3448 -0.0489 -0.7904
13308TIP3    H261340   1.735   1.451   1.997 -0.4480 -2.6667 -0.5302
13309TIP3   OH261341   3.564   5.845   5.117  0.4920 -0.3806 -0.2723
13309TIP3    H161342   3.656   5.871   5.109  0.6306 -1.2058 -1.7588
13309TIP3    H261343   3.561   5.790   5.195  1.6767 -1.9195 -1.2537
13310TIP3   OH261344   3.937   4.567   0.876  0.1405 -0.6807 -0.0879
13310TIP3    H161345   3.978   4.516   0.805 -0.7244 -0.7685 -0.5436
13310TIP3    H261346   3.983   4.651   0.875  2.0301 -1.6365  1.0971
13311TIP3   OH261347   4.121   4.293   5.985  0.2068 -0.3826  0.1697
13311TIP3    H161348   4.105   4.225   6.051  1.3218 -1.2017 -0.3641
13311TIP3    H261349   4.214   4.285   5.965  0.1540  0.7107 -0.5749
13312TIP3   OH261350   1.418   0.457   5.803  0.2069  0.4148  0.1503
13312TIP3    H161351   1.352   0.453   5.872 -0.5423  0.9875 -0.5168
13312TIP3    H261352   1.385   0.522   5.741  1.2857  0.5439 -0.3200
13313TIP3   OH261353   5.394   5.142  17.077 -0.0993 -0.6642 -0.1118
13313TIP3    H161354   5.307   5.113  17.051 -0.2939  0.5946 -0.9878
13313TIP3    H261355   5.453   5.107  17.010 -0.4090  1.3121 -1.5173
13314TIP3   OH261356   1.217   1.779   3.031 -0.4076 -0.0695 -0.3182
13314TIP3    H161357   1.229   1.741   3.118 -1.4932 -0.9130 -0.5127
13314TIP3    H261358   1.264   1.862   3.035 -2.2454  0.9846  1.7951
13315TIP3   OH261359   3.205   1.744  12.838 -0.5810  0.1641 -0.2320
13315TIP3    H161360   3.248   1.691  12.771  1.0902 -1.2183  1.8243
13315TIP3    H261361   3.234   1.834  12.819  0.9032 -0.3714 -0.6203
13316TIP3   OH261362   5.126   1.589   0.782  0.8996 -0.0927  0.1801
13316TIP3    H161363   5.183   1.584   0.859 -0.4562 -0.5620  1.1941
13316TIP3    H261364   5.043   1.551   0.811  0.0134  0.7083 -1.1977
13317TIP3   OH261365   5.624   6.507  10.847  0.3216 -0.2035  0.0964
13317TIP3    H161366   5.613   6.426  10.798 -0.6625 -0.7179  1.1482
13317TIP3    H261367   5.653   6.480  10.934  1.6665  0.6806 -0.0287
13318TIP3   OH261368   6.204   3.538   1.860  0.2267 -0.1099 -0.2324
13318TIP3    H161369   6.275   3.597   1.887 -1.0412  1.3751 -0.0284
13318TIP3    H261370   6.142   3.541   1.933 -1.9165  1.7545 -1.9910
13319TIP3   OH261371   4.221   1.510   0.351 -0.2015  0.5267 -0.2644
13319TIP3    H161372   4.209   1.563   0.273 -0.3953  1.1676  0.1941
13319TIP3    H261373   4.273   1.435   0.321 -0.2114  0.7992 -0.9861
13320TIP3   OH261374   3.781   5.770  14.072  0.5848  0.0440 -0.0952
13320TIP3    H161375   3.777   5.747  13.979 -2.5253 -0.7042  0.0950
13320TIP3    H261376   3.699   5.816  14.089  0.5224 -0.8270  2.5069
13321TIP3   OH261377   1.718   1.122  17.381  0.5923  0.6807  0.3761
13321TIP3    H161378   1.710   1.047  17.440  0.6723  1.5168  1.4722
13321TIP3    H261379   1.637   1.171  17.393 -0.9905 -0.8151 -2.7121
13322TIP3   OH261380   3.900   3.764   3.220 -0.3003  0.2089 -0.2482
13322TIP3    H161381   3.923   3.755   3.127 -1.3298 -1.5025 -0.3948
13322TIP3    H261382   3.810   3.798   3.218  0.0975  1.3038  0.1638
13323TIP3   OH261383   0.889   3.429  15.033 -0.4066 -0.4856 -0.5997
13323TIP3    H161384   0.817   3.466  15.085  1.7078  0.2873  1.9783
13323TIP3    H261385   0.961   3.491  15.045  1.0711 -1.8358 -2.1041
13324TIP3   OH261386   5.985   5.531   3.663  0.7829  0.3211  0.0626
13324TIP3    H161387   6.020   5.619   3.672  2.4936 -0.3888  0.8503
13324TIP3    H261388   5.940   5.531   3.579 -0.2275  2.2369  0.5561
13325TIP3   OH261389   0.202   2.276   2.084 -0.5002  0.5286  0.3412
13325TIP3    H161390   0.139   2.206   2.099  0.2615 -1.0203 -2.8686
13325TIP3    H261391   0.286   2.240   2.113 -0.4052  0.8811  0.5139
13326TIP3   OH261392   6.112   6.470  16.769 -0.4240 -0.2062  0.0501
13326TIP3    H161393   6.083   6.385  16.804 -0.0590  0.3567  1.8403
13326TIP3    H261394   6.070   6.534  16.826  2.1345  0.7098  1.0462
13327TIP3   OH261395   0.765   6.311  14.606 -0.4131  0.5365 -0.1057
13327TIP3    H161396   0.796   6.220  14.605  0.0991  0.7080 -0.7906
13327TIP3    H261397   0.819   6.355  14.540  0.4285  1.7007  1.3166
13328TIP3   OH261398   1.760   0.004  13.042 -0.2189 -0.1060  0.0138
13328TIP3    H161399   1.734   0.072  13.103  0.6233  0.7510 -0.5463
13328TIP3    H261400   1.733   0.037  12.956  0.6336 -0.2329 -0.3166
13329TIP3   OH261401   1.622   5.490   2.808  0.4734 -0.3883  0.6074
13329TIP3    H161402   1.559   5.558   2.783 -0.3244  0.2240  3.8089
13329TIP3    H261403   1.575   5.407   2.794 -0.5599  0.0066  1.5185
13330TIP3   OH261404   1.246   1.270  16.811  0.0734  0.4907 -0.2740
13330TIP3    H161405   1.284   1.204  16.869 -2.3669 -1.4867 -0.7313
13330TIP3    H261406   1.318   1.296  16.754  1.4342 -0.8396  0.7644
13331TIP3   OH261407   6.086   4.914   5.461 -0.2563 -0.1047  0.4117
13331TIP3    H161408   6.037   4.945   5.537  0.6910  0.9760  0.5969
13331TIP3    H261409   6.020   4.899   5.394 -0.8390  1.4133  0.6287
13332TIP3   OH261410   1.686   1.011   5.551  0.3635  0.1651 -0.5397
13332TIP3    H161411   1.713   1.091   5.506 -0.3450 -0.3420 -1.9218
13332TIP3    H261412   1.691   0.943   5.484 -2.5008 -0.3086 -0.4149
13333TIP3   OH261413   0.383   4.306  14.642  0.2186 -0.0447  0.0076
13333TIP3    H161414   0.320   4.260  14.698  0.5922 -0.4671  0.0895
13333TIP3    H261415   0.417   4.238  14.583 -0.0605  0.3655 -0.6319
13334TIP3   OH261416   3.774   0.445   2.717  0.1766 -0.1786  0.4054
13334TIP3    H161417   3.843   0.424   2.654  0.1993  1.4388 -0.1740
13334TIP3    H261418   3.778   0.375   2.782  2.1036 -0.3325  0.1851
13335TIP3   OH261419   1.970   2.802   0.404 -0.7151  0.4887  0.1312
13335TIP3    H161420   2.050   2.801   0.456  0.3245  1.0002 -1.3961
13335TIP3    H261421   1.936   2.713   0.410  0.0509  0.2262  0.6551
13336TIP3   OH261422   3.030   6.744  15.510  0.0331 -0.0392 -0.6303
13336TIP3    H161423   2.947   6.710  15.542  0.3328 -1.4414 -1.2645
13336TIP3    H261424   3.078   6.770  15.589  0.0414 -1.7369 -0.0361
13337TIP3   OH261425   4.465   5.562  12.871 -0.3851 -0.8580  0.0675
13337TIP3    H161426   4.457   5.503  12.946 -1.4278 -1.1612 -0.2657
13337TIP3    H261427   4.468   5.650  12.910  3.9242 -1.1020  0.7735
13338TIP3   OH261428   2.763   2.345  14.213 -0.3201 -0.3000 -0.5264
13338TIP3    H161429   2.769   2.430  14.170 -1.3791  0.2022  0.2856
13338TIP3    H261430   2.733   2.286  14.144  2.0605 -0.4377 -1.5613
13339TIP3   OH261431   4.661   1.735   1.142  0.4721 -0.0831 -0.7241
13339TIP3    H161432   4.659   1.776   1.229 -0.9528  0.0844 -0.8008
13339TIP3    H261433   4.686   1.805   1.082  0.4944  0.0510 -0.5584
13340TIP3   OH261434   2.468   1.132  17.275 -0.5973  0.2504  0.3193
13340TIP3    H161435   2.506   1.143  17.362  0.1222  0.5774 -0.0299
13340TIP3    H261436   2.474   1.218  17.234  2.5645 -0.6591 -1.4222
13341TIP3   OH261437   2.432   4.891   4.544  0.3119  0.4036 -0.2412
13341TIP3    H161438   2.504   4.838   4.509  0.9139  0.0836  1.3904
13341TIP3    H261439   2.434   4.875   4.638 -1.4669  0.9520 -0.0784
13342TIP3   OH261440   6.519   5.066   1.022 -0.1847 -0.2090  0.0985
13342TIP3    H161441   6.449   5.075   0.957  0.4412 -0.0130 -0.5767
13342TIP3    H261442   6.593   5.032   0.972 -0.5587 -3.0671  1.3206
13343TIP3   OH261443   3.123   2.057  12.537 -0.0110  0.3577  0.4235
13343TIP3    H161444   3.138   2.121  12.606  2.0543 -1.2958  1.6489
13343TIP3    H261445   3.030   2.036  12.542 -0.1742  1.3186  1.7323
13344TIP3   OH261446   3.807   6.700  15.197 -0.4384  0.3034 -0.0884
13344TIP3    H161447   3.843   6.672  15.113  1.6876 -2.0310  1.4566
13344TIP3    H261448   3.728   6.749  15.174 -0.6685 -1.3192 -3.3473
13345TIP3   OH261449   5.534   3.626   0.442  0.1452  0.0778 -0.0341
13345TIP3    H161450   5.507   3.543   0.482  0.0987  0.4152  0.6540
13345TIP3    H261451   5.498   3.693   0.500 -0.3224  0.5955 -0.9070
13346TIP3   OH261452   6.043   6.225   1.696  0.2166 -0.5773 -0.0843
13346TIP3    H161453   6.070   6.167   1.767 -0.0780 -1.2942 -0.5479
13346TIP3    H261454   5.951   6.203   1.680  0.3690 -0.6570 -0.9071
13347TIP3   OH261455   5.725   2.959   3.841  0.4895  0.1309 -0.3508
13347TIP3    H161456   5.658   3.027   3.840 -1.5309 -1.5768  2.9538
13347TIP3    H261457   5.687   2.887   3.790 -0.2627 -0.7982  1.4355
13348TIP3   OH261458   0.732   0.435   0.580 -0.3886  0.5019  0.3063
13348TIP3    H161459   0.690   0.352   0.556 -1.9089  1.1084  0.7648
13348TIP3    H261460   0.741   0.431   0.675  0.4404  0.4555  0.2284
13349TIP3   OH261461   3.216   4.165  15.279  0.1805  0.1062 -0.1063
13349TIP3    H161462   3.195   4.203  15.365 -0.6936  0.7328 -0.5808
13349TIP3    H261463   3.168   4.220  15.217 -0.6680 -1.4504 -0.8713
13350TIP3   OH261464   4.156   2.622  14.077 -0.3113  1.0761  0.4697
13350TIP3    H161465   4.244   2.590  14.058 -0.4193  1.4037 -0.6657
13350TIP3    H261466   4.136   2.589  14.164  0.4783  0.0156  0.2635
13351TIP3   OH261467   5.633   5.968   6.237 -0.0201  0.3548 -0.3351
13351TIP3    H161468   5.675   5.946   6.321 -0.9490 -3.8489 -0.7323
13351TIP3    H261469   5.555   6.017   6.262 -0.5273 -1.2006  1.4220
13352TIP3   OH261470   0.059   5.526   2.296  0.0704  0.1105 -0.0534
13352TIP3    H161471   0.041   5.597   2.235  0.2419  2.4155  2.3888
13352TIP3    H261472  -0.027   5.489   2.315 -0.4659  1.7348  0.9006
13353TIP3   OH261473   4.680   0.952  11.207  0.0730  0.3390  0.0738
13353TIP3    H161474   4.650   0.903  11.130  2.6760 -1.4722  0.0618
13353TIP3    H261475   4.733   0.889  11.256  0.8965  2.2742  1.8130
13354TIP3   OH261476   1.678   4.579  13.524 -0.3659 -0.0602 -0.2616
13354TIP3    H161477   1.683   4.646  13.455 -0.9985  0.4337  0.1598
13354TIP3    H261478   1.738   4.610  13.592 -1.1749  0.4467  0.2339
13355TIP3   OH261479   1.387   3.260   5.232  0.1229  0.5343  0.5296
13355TIP3    H161480   1.465   3.300   5.192 -0.1881  0.9191  0.3005
13355TIP3    H261481   1.366   3.318   5.305  1.4833 -0.8744  2.1428
13356TIP3   OH261482   5.788   0.287  14.262  0.2211  0.5309 -0.0991
13356TIP3    H161483   5.860   0.229  14.236  0.3490  1.0023 -0.7979
13356TIP3    H261484   5.725   0.281  14.190 -0.1647  0.5944  0.2300
13357TIP3   OH261485   2.718   4.824   2.418 -0.4261 -0.4977  0.1793
13357TIP3    H161486   2.745   4.744   2.373 -2.0407 -0.9069 -0.1070
13357TIP3    H261487   2.776   4.892   2.382 -0.2493 -1.2027 -0.9182
13358TIP3   OH261488   2.384   2.117  14.167  0.2213  0.4129  0.5693
13358TIP3    H161489   2.304   2.165  14.189 -0.1449 -0.1115  0.3954
13358TIP3    H261490   2.438   2.122  14.247 -0.4581 -0.1859  1.0728
13359TIP3   OH261491   0.948   6.624   1.105 -0.2396  0.4290  0.1459
13359TIP3    H161492   1.013   6.568   1.149 -0.2752  0.0449 -0.2788
13359TIP3    H261493   0.996   6.664   1.033 -0.5666 -0.1695 -0.4155
13360TIP3   OH261494   5.007   5.249  14.842 -0.1217 -0.3707 -0.2526
13360TIP3    H161495   5.071   5.281  14.905 -0.3950  0.9810 -0.6337
13360TIP3    H261496   4.924   5.288  14.871 -0.4805 -0.8018 -0.6929
13361TIP3   OH261497   0.360   4.845   2.063 -0.5307  0.0325 -0.1999
13361TIP3    H161498   0.303   4.888   1.999 -0.6367  2.1479  1.2190
13361TIP3    H261499   0.433   4.906   2.075  0.8457 -1.5370 -0.2072
13362TIP3   OH261500   2.870   1.496  12.704 -0.2850 -0.0405  0.4343
13362TIP3    H161501   2.883   1.579  12.750 -0.3478 -0.1706  0.6881
13362TIP3    H261502   2.951   1.483  12.654 -0.7490  0.7799 -0.5773
13363TIP3   OH261503   3.999   1.190  13.887  0.4940  0.4050  0.0878
13363TIP3    H161504   4.025   1.140  13.964 -0.1251 -1.0191 -0.5897
13363TIP3    H261505   3.921   1.238  13.914 -0.5266 -1.1326  0.0090
13364TIP3   OH261506   0.120   0.808   5.369 -0.1965 -0.2903  0.3152
13364TIP3    H161507   0.116   0.721   5.328 -0.8310 -0.2806  0.3386
13364TIP3    H261508   0.129   0.790   5.462  1.9355 -0.3126  0.1609
13365TIP3   OH261509   2.257   4.252  15.860 -0.3520 -0.1149 -0.4847
13365TIP3    H161510   2.179   4.247  15.915 -0.5651  0.5585 -0.7195
13365TIP3    H261511   2.256   4.170  15.810  0.4164 -1.2200  1.2517
13366TIP3   OH261512   2.459   1.742   0.559 -0.5096  0.1306  0.2698
13366TIP3    H161513   2.475   1.741   0.465 -0.7646 -1.4667  0.2126
13366TIP3    H261514   2.545   1.729   0.599 -0.4006  0.8153  0.2555
13367TIP3   OH261515   0.989   3.894  11.783 -0.1226 -0.2023  0.2989
13367TIP3    H161516   0.960   3.804  11.797  0.7778 -0.3638  1.2847
13367TIP3    H261517   1.021   3.895  11.692 -1.2775 -0.5353 -0.1250
13368TIP3   OH261518   4.210   1.826  16.863 -0.1656 -0.0083  0.6015
13368TIP3    H161519   4.162   1.909  16.865 -3.1195 -1.6150  0.9023
13368TIP3    H261520   4.292   1.847  16.817 -0.0939  3.3524  1.9750
13369TIP3   OH261521   5.134   1.356  13.853  0.0384  0.2155  0.0421
13369TIP3    H161522   5.039   1.351  13.839 -0.2202  1.5257  1.1592
13369TIP3    H261523   5.152   1.450  13.861  1.4186 -0.0254 -0.0086
13370TIP3   OH261524   2.678   1.583  13.402 -0.9886 -0.4974  0.5263
13370TIP3    H161525   2.591   1.578  13.363 -0.7691  0.7510 -0.1841
13370TIP3    H261526   2.732   1.526  13.347 -0.7144  1.1339 -0.9706
13371TIP3   OH261527   0.491   2.370  16.933  0.2481 -0.7777 -0.7258
13371TIP3    H161528   0.401   2.337  16.928  0.1073 -0.2033 -2.4229
13371TIP3    H261529   0.484   2.447  16.989  0.1481 -2.0670  1.1584
13372TIP3   OH261530   2.503   1.756   0.926  0.2234 -0.3412  0.3858
13372TIP3    H161531   2.514   1.806   0.845  1.4722 -0.9809  0.1339
13372TIP3    H261532   2.509   1.821   0.996 -2.2118  0.4280 -0.0314
13373TIP3   OH261533   4.624   0.995   5.904  0.4042 -0.2870 -0.4052
13373TIP3    H161534   4.619   1.085   5.938  2.0240 -0.6470  0.9306
13373TIP3    H261535   4.538   0.979   5.866 -0.0119  1.7391 -0.4425
13374TIP3   OH261536   1.234   1.360   0.415 -0.0027  0.2649  0.4808
13374TIP3    H161537   1.194   1.275   0.400 -0.7818  0.7771 -0.5292
13374TIP3    H261538   1.315   1.341   0.463 -0.3849 -0.9888  0.6587
13375TIP3   OH261539   5.185   2.541   1.407  0.3559  0.0186  0.3931
13375TIP3    H161540   5.168   2.576   1.495  1.5983 -1.0158  1.0877
13375TIP3    H261541   5.212   2.450   1.423  1.9174  0.2223 -0.9480
13376TIP3   OH261542   3.847   6.339  17.155 -0.1588  0.3079 -0.7724
13376TIP3    H161543   3.753   6.325  17.144 -0.2195 -0.8968  0.7461
13376TIP3    H261544   3.854   6.429  17.187 -0.6127  0.9890 -2.4763
13377TIP3   OH261545   6.044   6.622  11.999  0.1857 -0.1068 -0.1471
13377TIP3    H161546   6.059   6.597  12.090  0.1853  0.2313 -0.0563
13377TIP3    H261547   5.968   6.679  12.001  0.1699 -0.1193 -0.3622
13378TIP3   OH261548   3.620   4.945  11.005 -0.7171 -0.3725  0.0398
13378TIP3    H161549   3.696   4.937  10.948 -0.4764  0.2035  0.2816
13378TIP3    H261550   3.550   4.976  10.947 -0.7284 -0.7180 -0.1397
13379TIP3   OH261551   2.751   4.095  14.863 -0.1120  0.0814  0.4689
13379TIP3    H161552   2.810   4.171  14.855  0.9169 -0.7027  0.3555
13379TIP3    H261553   2.725   4.094  14.955 -1.0038  1.1815  0.2531
13380TIP3   OH261554   0.437   1.187   3.895  0.3233  0.5816  0.0301
13380TIP3    H161555   0.420   1.176   3.802  1.0435  1.1712 -0.1817
13380TIP3    H261556   0.471   1.276   3.903  1.1883  0.2085  0.7123
13381TIP3   OH261557   6.550   1.650  13.015  0.7013 -0.6976  0.0831
13381TIP3    H161558   6.537   1.607  13.100  0.6920 -0.0998  0.3841
13381TIP3    H261559   6.503   1.733  13.022 -1.2893 -1.6199 -1.3066
13382TIP3   OH261560   1.765   6.197  11.162 -0.5548 -0.3562  0.6198
13382TIP3    H161561   1.682   6.167  11.201 -0.9517  1.9773  1.7742
13382TIP3    H261562   1.738   6.245  11.084 -0.0823 -1.4135 -0.2129
13383TIP3   OH261563   3.937   2.214   5.250 -0.4207  0.1004 -0.1390
13383TIP3    H161564   4.001   2.153   5.289 -0.5617  0.0590  0.0272
13383TIP3    H261565   3.860   2.206   5.305 -0.6046  0.0796 -0.3985
13384TIP3   OH261566   0.172   0.182   2.028  0.3036  0.1878  0.0448
13384TIP3    H161567   0.143   0.241   2.097 -0.9898  2.3756 -2.1889
13384TIP3    H261568   0.100   0.181   1.965  1.7900 -0.8944 -1.7750
13385TIP3   OH261569   3.565   1.948   1.502  0.1808  0.3268 -0.3638
13385TIP3    H161570   3.546   1.924   1.411 -1.8790  0.3912 -0.0078
13385TIP3    H261571   3.596   2.038   1.497 -1.6486  0.9812 -0.9057
13386TIP3   OH261572   2.091   4.468  14.703 -0.3710 -0.4385  0.0751
13386TIP3    H161573   2.050   4.439  14.622 -1.3901 -1.2108  0.8402
13386TIP3    H261574   2.033   4.437  14.772  0.2960  0.4970  1.0942
13387TIP3   OH261575   0.361   2.005   5.132  0.1918 -0.0251 -0.1328
13387TIP3    H161576   0.405   1.921   5.145  1.5375  0.6541 -0.1286
13387TIP3    H261577   0.413   2.067   5.183 -1.8088  0.5391  1.3152
13388TIP3   OH261578   0.551   5.116  13.571  0.1822  0.1588 -0.3639
13388TIP3    H161579   0.618   5.184  13.561  1.3619 -0.8239  0.5305
13388TIP3    H261580   0.547   5.074  13.485 -0.0946  0.9285 -0.7386
13389TIP3   OH261581   3.410   0.922  12.611  0.1976  0.5662  0.0158
13389TIP3    H161582   3.376   0.967  12.688 -1.7684  0.6560 -0.8465
13389TIP3    H261583   3.400   0.829  12.631 -2.1490  0.5677 -0.7986
13390TIP3   OH261584   5.390   6.451   2.228  0.3990  0.1519 -0.5840
13390TIP3    H161585   5.339   6.458   2.309 -0.5695  0.7847 -1.2316
13390TIP3    H261586   5.414   6.542   2.207  1.8699 -0.1361 -0.2635
13391TIP3   OH261587   3.629   3.721  11.099 -0.3662  0.2031 -0.0197
13391TIP3    H161588   3.601   3.680  11.017 -0.1488 -0.4597  0.2292
13391TIP3    H261589   3.717   3.754  11.080 -1.0595  1.7913 -0.6327
13392TIP3   OH261590   1.413   2.747  11.033 -0.2769  0.0962 -0.8120
13392TIP3    H161591   1.418   2.738  11.128 -1.1352  1.1213 -0.6540
13392TIP3    H261592   1.354   2.677  11.005 -0.3814  0.0722 -0.5309
13393TIP3   OH261593   3.977   1.590   5.988  0.6636 -0.0671 -0.7377
13393TIP3    H161594   3.991   1.683   6.007 -3.2840  0.2761  1.5546
13393TIP3    H261595   3.925   1.590   5.907  0.1211 -0.2107 -0.3934
13394TIP3   OH261596   3.032   3.957   1.008  0.2719 -0.7444 -0.1618
13394TIP3    H161597   3.028   3.899   0.932 -0.2889 -0.4602 -0.3584
13394TIP3    H261598   2.970   4.027   0.988  2.3436  1.0112 -0.8198
13395TIP3   OH261599   2.662   2.340   5.751  0.0387  0.7274  0.0466
13395TIP3    H161600   2.660   2.372   5.841 -1.3702 -1.1389  0.7501
13395TIP3    H261601   2.754   2.349   5.724  1.3642 -2.1320  3.0212
13396TIP3   OH261602   4.110   0.567   0.657  0.0009 -0.6099  0.1213
13396TIP3    H161603   4.178   0.581   0.591  1.4642  0.5550  1.7882
13396TIP3    H261604   4.028   0.588   0.612  0.8025 -1.0145 -1.6367
13397TIP3   OH261605   6.134   2.863   5.295 -0.1788  0.3291 -0.2775
13397TIP3    H161606   6.094   2.799   5.355  2.9372  0.4364  2.1959
13397TIP3    H261607   6.126   2.823   5.208 -2.0145 -1.4241  0.6084
13398TIP3   OH261608   3.509   6.206  11.413  0.0445  0.0557 -0.3512
13398TIP3    H161609   3.437   6.166  11.363  0.4940  0.2174 -1.1425
13398TIP3    H261610   3.465   6.263  11.476 -0.5795 -1.0964  0.2967
13399TIP3   OH261611   3.884   6.059  12.771 -0.1039  0.4819  0.5653
13399TIP3    H161612   3.829   6.051  12.849 -1.1214 -0.2126 -0.1931
13399TIP3    H261613   3.836   6.012  12.703  1.8276 -0.8890  0.0689
13400TIP3   OH261614   1.523   1.616  13.670 -0.2050  0.0618  0.0434
13400TIP3    H161615   1.511   1.530  13.630  2.5544 -0.1038 -0.6415
13400TIP3    H261616   1.527   1.677  13.596 -0.4156  0.5340  0.4135
13401TIP3   OH261617   4.528   0.565  10.575 -0.6884  0.3212  0.0282
13401TIP3    H161618   4.614   0.607  10.570 -0.9038  0.7430 -0.1528
13401TIP3    H261619   4.477   0.622  10.631 -0.8739  0.1022  0.0840
13402TIP3   OH261620   5.351   2.783   5.823  0.1383  0.7621 -0.2242
13402TIP3    H161621   5.442   2.788   5.796  0.0387  2.9243 -0.3443
13402TIP3    H261622   5.350   2.717   5.892  1.4608 -0.5147 -1.3569
13403TIP3   OH261623   2.575   1.896  16.449 -0.1628 -0.2735 -0.3217
13403TIP3    H161624   2.613   1.979  16.475  0.0356 -0.3101 -0.4931
13403TIP3    H261625   2.604   1.883  16.358  0.1976 -0.7509 -0.1416
13404TIP3   OH261626   4.322   3.896  12.522  0.1407  0.4183 -0.0918
13404TIP3    H161627   4.319   3.913  12.616  0.7953 -0.1719  0.0471
13404TIP3    H261628   4.258   3.956  12.484 -0.0918  0.6942  0.7254
13405TIP3   OH261629   2.363   6.327  12.419  0.0544 -0.3908 -0.1996
13405TIP3    H161630   2.372   6.382  12.497 -0.4247  1.7301 -1.5678
13405TIP3    H261631   2.389   6.239  12.449  0.7098  0.5084  2.1052
13406TIP3   OH261632   0.816   4.491  16.831 -0.0916  0.5657  0.2135
13406TIP3    H161633   0.844   4.528  16.914 -1.5763 -0.4911  1.2353
13406TIP3    H261634   0.744   4.433  16.853 -1.3477  1.1598 -1.9505
13407TIP3   OH261635   5.170   6.571  16.707 -0.5578  0.1710 -0.2624
13407TIP3    H161636   5.233   6.531  16.767  0.0927  0.5294 -0.6864
13407TIP3    H261637   5.145   6.501  16.647 -1.0662 -0.1393  0.3047
13408TIP3   OH261638   5.997   6.390   4.019 -0.2975 -0.0007  0.1302
13408TIP3    H161639   5.985   6.311   4.072 -2.2600  1.2862  1.7680
13408TIP3    H261640   5.912   6.434   4.023  0.2732  1.4416 -2.0335
13409TIP3   OH261641   2.088   1.769  13.846  0.1156  0.4937  0.1846
13409TIP3    H161642   2.086   1.856  13.886 -0.6825  1.0377 -0.9508
13409TIP3    H261643   2.065   1.709  13.917  1.1858  1.1415  1.1072
13410TIP3   OH261644   5.201   5.879  16.658  0.2088 -0.3398 -0.4819
13410TIP3    H161645   5.146   5.822  16.711  0.8588 -0.2040  0.3676
13410TIP3    H261646   5.267   5.820  16.621  2.9212  0.1423  3.0031
13411TIP3   OH261647   1.833   2.472  15.319  0.1911  0.4328 -0.0167
13411TIP3    H161648   1.882   2.398  15.283 -0.3040  0.7201 -1.3536
13411TIP3    H261649   1.877   2.549  15.283 -0.9498  0.7065 -0.8934
13412TIP3   OH261650   4.001   2.613   4.503  0.0523  0.5623  0.5851
13412TIP3    H161651   3.945   2.536   4.515  0.3703  0.0136 -1.1223
13412TIP3    H261652   3.950   2.670   4.445  0.7770  0.5614 -0.0702
13413TIP3   OH261653   2.925   4.441   0.902 -0.2864  0.1932 -0.0457
13413TIP3    H161654   2.999   4.445   0.843  0.5704  1.7850  1.0398
13413TIP3    H261655   2.963   4.427   0.989 -0.9059  3.3347  0.8987
13414TIP3   OH261656   4.135   3.606   2.032  0.0781  0.0137  0.2183
13414TIP3    H161657   4.194   3.611   2.107  1.1023 -2.3707 -0.3161
13414TIP3    H261658   4.192   3.617   1.956  0.1013 -2.9013 -0.3327
13415TIP3   OH261659   2.593   0.189  15.205 -0.0035 -0.4006 -0.1294
13415TIP3    H161660   2.637   0.151  15.281 -1.1385 -2.3641 -0.3652
13415TIP3    H261661   2.621   0.135  15.132 -1.2648 -0.4829 -0.5863
13416TIP3   OH261662   4.181   6.766   4.723  0.2654 -0.7275 -0.0387
13416TIP3    H161663   4.184   6.852   4.765  2.0443 -0.8240  0.0810
13416TIP3    H261664   4.264   6.724   4.746  1.0335 -1.0635 -2.9724
13417TIP3   OH261665   2.789   4.307   5.122 -0.2721 -0.0866  0.3741
13417TIP3    H161666   2.781   4.389   5.073 -2.1514  0.6548  1.7777
13417TIP3    H261667   2.750   4.241   5.065  2.3397 -0.3293 -1.2845
13418TIP3   OH261668   5.873   1.886   4.507 -0.2957  0.1854 -0.5965
13418TIP3    H161669   5.795   1.934   4.479  0.0664  0.6357 -0.8493
13418TIP3    H261670   5.864   1.799   4.468 -0.5005  0.3487 -0.9128
13419TIP3   OH261671   4.630   3.427  11.679  0.2198 -0.6648 -0.7317
13419TIP3    H161672   4.715   3.396  11.709  0.0576 -1.6580 -1.2448
13419TIP3    H261673   4.615   3.508  11.728  1.8343 -0.0074 -1.2724
13420TIP3   OH261674   0.429   3.252  15.631  0.2825 -0.0575  0.1084
13420TIP3    H161675   0.508   3.229  15.583  0.4311  0.0843  0.2793
13420TIP3    H261676   0.398   3.169  15.668 -0.1665 -0.2611 -0.7218
13421TIP3   OH261677   5.463   3.512  11.793  0.4692 -0.0016 -0.0061
13421TIP3    H161678   5.483   3.446  11.727 -0.4610 -0.1216 -0.1805
13421TIP3    H261679   5.373   3.538  11.774  1.0986  1.9676 -0.5071
13422TIP3   OH261680   0.816   3.993  13.016 -0.4777  0.4433 -0.4405
13422TIP3    H161681   0.810   3.901  13.041 -2.2472  0.7169  0.2684
13422TIP3    H261682   0.861   3.991  12.931  0.0463 -1.0029 -0.1654
13423TIP3   OH261683   1.827   3.701  12.352 -0.3793 -0.0254 -0.1063
13423TIP3    H161684   1.783   3.691  12.267  0.0948 -0.9967 -0.2462
13423TIP3    H261685   1.791   3.631  12.406  0.9117 -0.7863 -0.1983
13424TIP3   OH261686   2.575   1.154   0.098  0.5143 -0.2826  0.2176
13424TIP3    H161687   2.641   1.216   0.068  0.9411  0.2652  2.1537
13424TIP3    H261688   2.507   1.208   0.138  0.8770 -1.0007  1.9008
13425TIP3   OH261689   2.433   5.030  14.054 -0.3630  0.0571 -0.0797
13425TIP3    H161690   2.362   5.088  14.028 -1.7965 -1.3150  0.6105
13425TIP3    H261691   2.466   5.068  14.136 -0.6670  0.4016 -0.1162
13426TIP3   OH261692   0.863   5.583   0.894 -0.2210  0.4357 -0.2908
13426TIP3    H161693   0.829   5.531   0.821 -0.9188  0.2936  0.1204
13426TIP3    H261694   0.827   5.670   0.880 -0.8894  0.2557  0.2122
13427TIP3   OH261695   4.842   2.796  14.044  0.0910  0.0027 -0.2369
13427TIP3    H161696   4.921   2.771  13.997  0.4934 -0.5650  0.7069
13427TIP3    H261697   4.783   2.721  14.034  0.1539 -0.0938  0.0983
13428TIP3   OH261698   0.963   2.126   4.381 -0.1759  0.1314 -0.4309
13428TIP3    H161699   0.906   2.175   4.323  0.2361 -0.1743 -1.1088
13428TIP3    H261700   1.031   2.188   4.408 -0.3979  0.2870 -0.2262
13429TIP3   OH261701   0.311   0.767   0.374  0.4864  0.2602  0.0922
13429TIP3    H161702   0.278   0.677   0.382 -1.0963  0.7072 -0.9638
13429TIP3    H261703   0.311   0.784   0.280  0.7016  1.3878  0.2928
13430TIP3   OH261704   3.594   3.900   3.912 -0.4271 -0.4564 -0.1649
13430TIP3    H161705   3.609   3.955   3.836 -1.8712  0.2797  0.0421
13430TIP3    H261706   3.620   3.955   3.987 -1.1762 -0.3228  0.0004
13431TIP3   OH261707   5.334   0.302  11.468 -0.1688 -0.3838  0.1746
13431TIP3    H161708   5.335   0.388  11.510  0.8025 -0.2187 -0.1815
13431TIP3    H261709   5.345   0.240  11.540  2.1499 -0.0783  0.1300
13432TIP3   OH261710   5.757   6.547   1.592  0.3266 -0.4456  0.2816
13432TIP3    H161711   5.851   6.532   1.587  0.2248 -0.9482 -0.3101
13432TIP3    H261712   5.748   6.638   1.621  0.9976 -0.2378 -0.1473
13433TIP3   OH261713   2.191   2.962  14.700 -0.0055 -0.7614  0.4106
13433TIP3    H161714   2.097   2.949  14.709 -0.5332  1.3888 -1.1178
13433TIP3    H261715   2.210   2.947  14.607  1.0589 -0.7159  0.5987
13434TIP3   OH261716   5.987   6.508  11.719 -0.0014 -0.1742  0.3835
13434TIP3    H161717   5.922   6.560  11.672 -0.2246 -1.1520 -0.4406
13434TIP3    H261718   6.005   6.558  11.799  0.9651  1.9475 -1.0609
13435TIP3   OH261719   1.073   6.483  12.981 -0.0766  0.1377  0.6560
13435TIP3    H161720   1.162   6.515  12.969 -0.3222  1.2892  1.7454
13435TIP3    H261721   1.017   6.555  12.952 -0.6416  0.4496  2.4158
13436TIP3   OH261722   4.932   0.024  11.883 -0.4567  0.1626  0.2285
13436TIP3    H161723   4.904   0.024  11.975  0.7278  0.0591  0.6025
13436TIP3    H261724   4.958  -0.067  11.866 -0.9984  0.1023 -0.3290
13437TIP3   OH261725   1.480   5.394  13.696  0.2145  0.0903  0.0390
13437TIP3    H161726   1.454   5.303  13.715  1.5093 -0.4766 -0.7773
13437TIP3    H261727   1.415   5.447  13.742  0.7841 -1.2179  2.5345
13438TIP3   OH261728   0.131   4.593  15.280  0.1766  0.2785  0.0340
13438TIP3    H161729   0.208   4.567  15.231  0.6731 -3.0173  2.2322
13438TIP3    H261730   0.064   4.611  15.214  1.4921 -1.4622 -1.8574
13439TIP3   OH261731   3.514   1.251   2.351  0.3660 -0.2645  0.2681
13439TIP3    H161732   3.500   1.156   2.345  2.0481 -0.6665  1.7035
13439TIP3    H261733   3.563   1.262   2.433  2.0517  1.6149 -0.9112
13440TIP3   OH261734   6.183   1.679   4.405  0.1305 -0.1481 -0.2785
13440TIP3    H161735   6.169   1.596   4.359 -2.1831  0.5835 -1.0346
13440TIP3    H261736   6.201   1.742   4.335  1.8976  0.0436  0.2895
13441TIP3   OH261737   5.285   2.632  15.538 -0.3844  0.5909 -0.4506
13441TIP3    H161738   5.200   2.673  15.548 -0.0800  1.4336 -1.2138
13441TIP3    H261739   5.279   2.584  15.455 -0.9052 -1.3736  0.6648
13442TIP3   OH261740   0.453   0.664  10.936 -0.0574 -0.1570 -0.2442
13442TIP3    H161741   0.398   0.681  10.860 -0.0631  0.7494 -0.0528
13442TIP3    H261742   0.529   0.618  10.901  0.1119  0.5806 -0.8702
13443TIP3   OH261743   4.473   4.927   3.190 -0.1159  0.1444  0.1549
13443TIP3    H161744   4.421   4.932   3.271  0.6020  1.4200  0.5644
13443TIP3    H261745   4.487   5.018   3.165 -1.9212 -0.1875 -2.5172
13444TIP3   OH261746   4.100   3.483   4.491  0.8001  0.1479  0.6011
13444TIP3    H161747   4.115   3.559   4.548  0.5799 -0.5727  1.6441
13444TIP3    H261748   4.146   3.505   4.410  2.0398  0.7459  1.4309
13445TIP3   OH261749   1.212   4.490  14.889  0.2795 -0.5129 -0.8112
13445TIP3    H161750   1.204   4.502  14.794  2.4280 -2.6273 -1.3644
13445TIP3    H261751   1.164   4.409  14.906 -0.5567  0.1424  0.0391
13446TIP3   OH261752   1.878   1.861  17.140 -0.1437  0.3316  0.9907
13446TIP3    H161753   1.858   1.922  17.211 -0.1281  2.6596 -0.8843
13446TIP3    H261754   1.974   1.856  17.138 -0.1234 -1.9695  2.8041
13447TIP3   OH261755   0.792   1.662   6.462 -0.0778 -0.2312 -0.6190
13447TIP3    H161756   0.803   1.757   6.466 -1.1312 -0.1422  1.5723
13447TIP3    H261757   0.869   1.631   6.413  1.9610  1.4947  1.2837
13448TIP3   OH261758   4.696   6.210   1.285  0.3079 -0.4247  0.5074
13448TIP3    H161759   4.785   6.240   1.305  0.8175 -1.8496  0.4508
13448TIP3    H261760   4.699   6.180   1.195 -0.6781  1.0666 -0.0593
13449TIP3   OH261761   3.258   3.439   2.979  0.0573 -1.0390  0.5581
13449TIP3    H161762   3.186   3.441   3.042 -0.5111  0.4302 -0.0857
13449TIP3    H261763   3.235   3.368   2.919  0.5413 -2.3729  1.8862
13450TIP3   OH261764   4.916   6.743  10.555  0.1404  0.0839 -0.2131
13450TIP3    H161765   4.886   6.833  10.553 -0.2310 -0.0151  0.5395
13450TIP3    H261766   4.879   6.703  10.476  0.0791  0.5191 -0.4030
13451TIP3   OH261767   6.379   4.060  11.203 -0.3116  0.0601 -0.3991
13451TIP3    H161768   6.392   4.004  11.279 -0.6865 -0.6707 -0.8578
13451TIP3    H261769   6.450   4.037  11.143 -1.8647 -1.8036 -1.6545
13452TIP3   OH261770   1.705   3.706  11.818  0.1232  0.1293  0.2068
13452TIP3    H161771   1.784   3.691  11.870  0.1630  0.7633  0.3402
13452TIP3    H261772   1.734   3.696  11.727  0.1390 -0.5933  0.2844
13453TIP3   OH261773   4.129   2.692   6.162  0.0888 -0.0023  0.0276
13453TIP3    H161774   4.106   2.668   6.072  0.5485  1.9637 -0.6592
13453TIP3    H261775   4.063   2.757   6.187  0.9729  0.7300  0.4827
13454TIP3   OH261776   5.984   6.445  10.530 -0.4309 -0.0444 -0.5991
13454TIP3    H161777   5.954   6.497  10.455  0.6597 -0.0669 -1.0722
13454TIP3    H261778   6.076   6.428  10.512  0.4018  1.5924  1.6701
13455TIP3   OH261779   0.697   4.435  12.497  0.8045  0.2987 -0.5587
13455TIP3    H161780   0.643   4.486  12.556  0.4852 -0.0649 -0.5288
13455TIP3    H261781   0.665   4.458  12.409  0.7440  0.2462 -0.5507
13456TIP3   OH261782   2.960   1.380  10.879 -0.1886  0.1392  0.4784
13456TIP3    H161783   2.890   1.359  10.942 -0.8768 -0.8185 -0.5639
13456TIP3    H261784   3.006   1.297  10.866 -0.2921  0.2324 -0.5579
13457TIP3   OH261785   5.344   4.165  14.182  0.1579  0.0607  0.7197
13457TIP3    H161786   5.412   4.213  14.134 -0.2833 -0.2689 -0.2440
13457TIP3    H261787   5.268   4.224  14.182  0.5927  0.6943  2.3320
13458TIP3   OH261788   4.450   0.543   5.457 -0.1210  0.3476 -0.1727
13458TIP3    H161789   4.505   0.621   5.464  1.2645 -0.0831 -3.9967
13458TIP3    H261790   4.503   0.472   5.494 -0.0547  0.6785  0.3734
13459TIP3   OH261791   4.657   2.696   3.897  0.0005  0.0794 -0.4598
13459TIP3    H161792   4.697   2.695   3.984  0.0748  2.3266 -0.4039
13459TIP3    H261793   4.689   2.616   3.855 -0.2448 -1.1834  1.6374
13460TIP3   OH261794   1.187   0.129   6.388 -0.3171  0.6152 -0.5820
13460TIP3    H161795   1.273   0.088   6.399 -0.5258  0.3706  0.2342
13460TIP3    H261796   1.189   0.167   6.300  0.2041 -0.3810 -1.0126
13461TIP3   OH261797   4.841   5.151  16.214  0.0950  0.6625  0.0181
13461TIP3    H161798   4.752   5.117  16.202  0.1258  0.4587  0.3702
13461TIP3    H261799   4.829   5.230  16.266  0.0844  0.8413 -0.2541
13462TIP3   OH261800   4.045   5.142   2.450  0.8473 -0.3315  0.2374
13462TIP3    H161801   4.139   5.131   2.441  0.8375 -0.6830  0.5245
13462TIP3    H261802   4.035   5.216   2.511  0.9810 -1.6954  2.0179
13463TIP3   OH261803   3.544   1.850  12.003  0.3997  0.2428  0.9009
13463TIP3    H161804   3.548   1.770  11.950  0.7296 -0.4563  1.9397
13463TIP3    H261805   3.537   1.921  11.939  2.2930 -0.4478 -0.1797
13464TIP3   OH261806   2.486   6.070  11.820 -0.3695  0.5206  0.1001
13464TIP3    H161807   2.491   6.108  11.732 -0.4143 -0.1671 -0.2061
13464TIP3    H261808   2.572   6.087  11.858 -0.5312  1.3058  0.1283
13465TIP3   OH261809   2.468   0.802   1.270 -0.3837 -0.0799 -0.3680
13465TIP3    H161810   2.376   0.827   1.269 -0.4327 -0.1918  0.3849
13465TIP3    H261811   2.486   0.782   1.362  0.5901  0.6796 -0.3722
13466TIP3   OH261812   6.201   3.007  10.077 -0.1725 -0.0029 -0.1657
13466TIP3    H161813   6.273   2.953  10.108  0.7797  0.8041 -0.9282
13466TIP3    H261814   6.122   2.959  10.102  0.6317 -2.2389 -1.6531
13467TIP3   OH261815   0.066   6.353  15.136 -0.0996  0.0705  0.0223
13467TIP3    H161816   0.038   6.293  15.066  2.8982 -0.1278 -1.1383
13467TIP3    H261817   0.028   6.437  15.111  0.1786 -0.1856 -1.3831
13468TIP3   OH261818   1.440   2.297   3.820  0.0077  0.0678 -0.3568
13468TIP3    H161819   1.446   2.237   3.893 -1.2601  0.0711 -0.2236
13468TIP3    H261820   1.451   2.242   3.742  3.2834  0.3179 -0.2110
13469TIP3   OH261821   4.970   1.642   1.275  0.1459  0.1776 -0.0238
13469TIP3    H161822   4.984   1.635   1.369  1.7393 -0.1278 -0.2595
13469TIP3    H261823   4.972   1.737   1.258  2.2952  0.1932 -0.0350
13470TIP3   OH261824   6.426   3.485   4.951 -0.3709  0.5681 -0.1872
13470TIP3    H161825   6.442   3.571   4.991  0.5155  1.6176 -2.6089
13470TIP3    H261826   6.513   3.446   4.944 -0.4265  0.6514 -1.5299
13471TIP3   OH261827   0.289   0.610   4.506  0.3063 -0.0874 -0.6172
13471TIP3    H161828   0.261   0.557   4.432 -1.9280  1.3469 -0.9030
13471TIP3    H261829   0.282   0.552   4.582 -0.3273 -0.7141 -1.1431
13472TIP3   OH261830   5.796   3.483  10.412 -0.1014  0.0403  0.0594
13472TIP3    H161831   5.871   3.539  10.393  0.6778 -1.0640 -0.1902
13472TIP3    H261832   5.746   3.481  10.330  0.4368 -0.4627 -0.2666
13473TIP3   OH261833   4.208   4.969  13.969  0.2116 -0.1763  0.2001
13473TIP3    H161834   4.115   4.947  13.967 -0.6443  3.0149 -0.1404
13473TIP3    H261835   4.232   4.967  14.061 -0.9321  1.5455  0.5655
13474TIP3   OH261836   5.019   2.246  14.616 -0.2511 -0.8781  0.6745
13474TIP3    H161837   4.959   2.270  14.545  1.4802  0.0053 -0.5885
13474TIP3    H261838   5.040   2.329  14.659  0.8741 -1.0008  0.3878
13475TIP3   OH261839   1.020   0.970  13.625  0.3612 -0.1452  0.3551
13475TIP3    H161840   1.092   1.005  13.676  1.2842  1.1484 -1.6916
13475TIP3    H261841   1.043   0.990  13.534 -2.0285 -0.7136 -0.4593
13476TIP3   OH261842   0.162   1.251  12.223 -0.7669  1.2025 -0.5817
13476TIP3    H161843   0.166   1.306  12.144  0.8055  0.5791 -0.9640
13476TIP3    H261844   0.126   1.168  12.192 -2.7256  1.8103 -0.0852
13477TIP3   OH261845   3.741   5.282  13.742  0.5202  0.0216  0.3730
13477TIP3    H161846   3.819   5.265  13.689  0.1122  0.4978 -0.3942
13477TIP3    H261847   3.772   5.336  13.815  1.1867 -1.0881  0.9376
13478TIP3   OH261848   4.279   4.254  16.032 -0.2332  0.2892 -0.8257
13478TIP3    H161849   4.371   4.233  16.015 -0.3463 -0.0375 -1.0351
13478TIP3    H261850   4.278   4.284  16.123  0.3996  2.1164 -1.3599
13479TIP3   OH261851   3.490   5.021  13.366 -0.1707  0.2778 -0.7106
13479TIP3    H161852   3.484   5.059  13.454 -2.4024 -0.5799 -0.4048
13479TIP3    H261853   3.572   5.054  13.330  0.7219  0.7956  1.6255
13480TIP3   OH261854   1.948   5.862  10.725  0.0338 -0.2082 -0.7025
13480TIP3    H161855   2.038   5.849  10.754 -0.4829  1.3997  1.9485
13480TIP3    H261856   1.927   5.952  10.751 -3.1489 -1.3554  1.3035
13481TIP3   OH261857   3.410   2.345   0.258  0.4577  0.5619 -0.3506
13481TIP3    H161858   3.483   2.379   0.207 -0.0644  0.5159 -1.1413
13481TIP3    H261859   3.432   2.253   0.273 -0.3316  0.0066 -2.2931
13482TIP3   OH261860   5.024   2.707   2.412  0.3187  0.3653 -0.3750
13482TIP3    H161861   5.097   2.710   2.473  1.0862  0.6617 -1.2875
13482TIP3    H261862   5.065   2.700   2.326 -0.6690  1.8296 -1.0052
13483TIP3   OH261863   5.170   4.210  13.255  0.1280 -0.2402 -0.0333
13483TIP3    H161864   5.109   4.283  13.246 -1.3053 -0.9827  2.5368
13483TIP3    H261865   5.138   4.144  13.193  1.0426  0.9684 -1.8902
13484TIP3   OH261866   4.798   0.287   1.341  0.0683 -0.6627 -0.0054
13484TIP3    H161867   4.781   0.336   1.422  1.3782  0.7082 -0.5174
13484TIP3    H261868   4.752   0.336   1.273 -2.5651 -2.7906  0.0474
13485TIP3   OH261869   0.293   4.685   4.368 -0.1803  0.1818  0.1414
13485TIP3    H161870   0.364   4.737   4.406 -0.1791 -0.0588  0.4706
13485TIP3    H261871   0.335   4.606   4.335  0.0591  1.0545 -1.7520
13486TIP3   OH261872   1.486   4.232   2.538 -0.4534  0.3044 -0.1355
13486TIP3    H161873   1.545   4.256   2.609 -0.5276  2.9619 -0.8568
13486TIP3    H261874   1.534   4.252   2.458 -1.4581  0.2674 -0.7772
13487TIP3   OH261875   4.089   5.689  15.305 -0.3457  0.1514  0.2089
13487TIP3    H161876   4.138   5.743  15.243  0.0002 -0.0164  0.3354
13487TIP3    H261877   4.084   5.742  15.385 -1.0757  0.5055 -0.0617
13488TIP3   OH261878   1.324   4.241  12.999  0.0068  0.0321 -0.2005
13488TIP3    H161879   1.369   4.266  13.080 -0.7100 -0.0360  0.2295
13488TIP3    H261880   1.306   4.324  12.956 -0.8119  0.1609  0.3733
13489TIP3   OH261881   0.192   0.599  17.117 -0.4545 -0.0564  0.5330
13489TIP3    H161882   0.126   0.600  17.186  1.2178  1.2959  2.2122
13489TIP3    H261883   0.206   0.506  17.098 -1.1031 -0.4401  1.8629
13490TIP3   OH261884   6.101   6.337   2.547  0.4699  0.7479  0.5776
13490TIP3    H161885   6.161   6.364   2.478  1.1316 -0.1108  0.7973
13490TIP3    H261886   6.117   6.243   2.557 -1.6819  0.2589 -0.1119
13491TIP3   OH261887   3.876   1.420   3.994  0.7873  0.5006 -0.1843
13491TIP3    H161888   3.901   1.512   3.990  0.1705  0.7255  0.7768
13491TIP3    H261889   3.785   1.421   4.024  1.6137 -0.4764  2.7252
13492TIP3   OH261890   6.648   1.399   4.596  0.1830  0.2098 -0.0132
13492TIP3    H161891   6.617   1.333   4.658  0.8838 -0.6425 -0.5394
13492TIP3    H261892   6.744   1.391   4.598  0.2102  0.0203 -1.3377
13493TIP3   OH261893   2.348   0.118  16.405 -0.1026  0.4121 -0.2509
13493TIP3    H161894   2.382   0.182  16.343  0.6475  1.3142  1.0350
13493TIP3    H261895   2.313   0.171  16.477 -1.1881 -0.5936 -0.0149
13494TIP3   OH261896   4.448   2.727   0.168 -0.0325 -1.0157 -0.3473
13494TIP3    H161897   4.395   2.682   0.233 -0.4144 -1.8906 -1.2410
13494TIP3    H261898   4.532   2.681   0.168 -0.1352 -1.2098 -0.6679
13495TIP3   OH261899   4.764   2.946   1.556  0.4109 -0.0070 -0.1930
13495TIP3    H161900   4.788   2.872   1.501 -2.2651 -1.2105  0.0758
13495TIP3    H261901   4.735   3.013   1.494  0.3496 -0.1928 -0.3675
13496TIP3   OH261902   3.350   3.738   4.930  0.3491  0.1318  0.0555
13496TIP3    H161903   3.311   3.743   5.017  1.3718 -0.1935  0.5494
13496TIP3    H261904   3.275   3.738   4.870 -0.3315  2.5095  0.7996
13497TIP3   OH261905   6.029   3.309  14.303 -0.0793 -0.0297  0.1357
13497TIP3    H161906   6.094   3.372  14.271 -2.3188  2.7357  0.5935
13497TIP3    H261907   5.971   3.294  14.228 -1.0627  0.5596  0.7634
13498TIP3   OH261908   2.952   0.594   3.868 -0.1099 -0.0089  0.0213
13498TIP3    H161909   2.897   0.608   3.944 -0.6617  3.9099 -0.8842
13498TIP3    H261910   2.892   0.563   3.800 -0.3848  0.3141  0.1181
13499TIP3   OH261911   0.641   2.391   2.460 -0.2384  0.2379  0.1728
13499TIP3    H161912   0.624   2.469   2.511  0.0453  0.6000 -0.2792
13499TIP3    H261913   0.559   2.375   2.413  0.5735  2.0215 -2.0561
13500TIP3   OH261914   3.975   4.733   4.562  0.3262  1.1840  0.0451
13500TIP3    H161915   3.958   4.783   4.641  3.0711  2.8438 -0.2557
13500TIP3    H261916   4.065   4.757   4.538  1.0219 -2.2880 -1.3774
13501TIP3   OH261917   4.908   4.191  17.206  0.3436  0.2955  0.2823
13501TIP3    H161918   4.939   4.183  17.116 -0.4108  0.3580  0.0082
13501TIP3    H261919   4.960   4.262  17.244  0.5228  0.4032 -0.1670
13502TIP3   OH261920   4.125   2.660   1.231 -0.0495 -0.7304 -0.4616
13502TIP3    H161921   4.149   2.585   1.175  2.9501  0.1411 -0.5050
13502TIP3    H261922   4.097   2.728   1.170  2.1980 -0.1449 -0.9259
13503TIP3   OH261923   3.886   3.864  10.720 -0.2269  0.3085  0.5716
13503TIP3    H161924   3.934   3.782  10.703 -0.9428 -0.1006  0.4622
13503TIP3    H261925   3.933   3.906  10.791  0.6195  0.1871  0.0909
13504TIP3   OH261926   0.723   1.326   2.085  0.3897 -1.1218 -0.0685
13504TIP3    H161927   0.761   1.357   2.003  0.7909  1.3236  0.9489
13504TIP3    H261928   0.655   1.391   2.106  2.1467 -0.0345  2.8427
13505TIP3   OH261929   5.399   6.638  15.731  0.1070 -0.3335  0.1463
13505TIP3    H161930   5.465   6.577  15.699  0.8459  0.7299 -0.4588
13505TIP3    H261931   5.353   6.591  15.801  0.3466 -1.7134 -0.5872
13506TIP3   OH261932   2.751   6.044  14.207 -0.2577  0.0033  0.3158
13506TIP3    H161933   2.833   6.033  14.255  0.0497 -0.5157 -0.3073
13506TIP3    H261934   2.684   6.014  14.267  0.2325 -1.8323 -0.0038
13507TIP3   OH261935   1.850   5.398  16.358  0.8200  0.7190 -0.0029
13507TIP3    H161936   1.924   5.344  16.388 -0.5440 -0.1955  1.9132
13507TIP3    H261937   1.784   5.388  16.426  0.1425  4.1933  0.0214
13508TIP3   OH261938   2.580   0.122  13.784 -0.0139 -0.2800  0.0669
13508TIP3    H161939   2.614   0.130  13.695 -1.5780  1.4431 -0.4425
13508TIP3    H261940   2.541   0.035  13.787  1.8672 -1.1702 -0.2231
13509TIP3   OH261941   5.927   3.152  10.530 -0.0142  0.3797 -0.1004
13509TIP3    H161942   5.980   3.231  10.535  2.9846 -1.4105 -0.7523
13509TIP3    H261943   5.955   3.100  10.606  1.0593 -1.6481 -1.7923
13510TIP3   OH261944   1.385   6.560   4.810 -0.7621  0.1325  0.7010
13510TIP3    H161945   1.333   6.589   4.736 -2.5124 -0.7333  1.5381
13510TIP3    H261946   1.408   6.641   4.856  1.5904  0.8339 -1.4627
13511TIP3   OH261947   5.955   1.563  16.996  0.2463 -0.9725 -0.0148
13511TIP3    H161948   5.899   1.548  16.920 -0.2050  0.9061 -0.0917
13511TIP3    H261949   5.898   1.606  17.060  0.9050 -1.5251  0.9728
13512TIP3   OH261950   3.336   5.674   1.678  0.1877  0.0177 -0.0542
13512TIP3    H161951   3.392   5.664   1.755 -0.9514 -2.2531  0.5837
13512TIP3    H261952   3.391   5.718   1.613  1.8990  0.0090  1.3174
13513TIP3   OH261953   2.032   0.647  13.061  0.2454  0.0054  0.0197
13513TIP3    H161954   2.114   0.694  13.049  0.6281 -0.6760 -0.0866
13513TIP3    H261955   2.056   0.567  13.107 -0.6223  0.6027  1.5945
13514TIP3   OH261956   2.890   1.018  15.389 -0.5709  0.1696  0.0757
13514TIP3    H161957   2.914   0.982  15.304  0.2057  1.2479 -0.1790
13514TIP3    H261958   2.884   1.113  15.374  0.2165  0.4353  1.3655
13515TIP3   OH261959   6.708   4.876   2.967  0.4166  0.7464 -0.2515
13515TIP3    H161960   6.629   4.886   3.021 -0.1372 -1.9547 -0.4096
13515TIP3    H261961   6.700   4.944   2.900 -1.5489  0.8512  0.0271
13516TIP3   OH261962   2.167   3.672  15.798  0.3055  0.0704  0.4824
13516TIP3    H161963   2.139   3.617  15.724  0.7793 -0.1214  0.4418
13516TIP3    H261964   2.086   3.706  15.834  0.0727  0.2924 -0.2285
13517TIP3   OH261965   3.297   2.960   4.232 -0.1786  0.1615  0.2835
13517TIP3    H161966   3.253   3.045   4.232  1.0766  0.8517 -0.8399
13517TIP3    H261967   3.226   2.896   4.243 -1.1648  1.3210  0.9376
13518TIP3   OH261968   3.424   6.001   1.022 -0.3590  0.0994  0.3761
13518TIP3    H161969   3.407   6.045   1.105 -0.0505 -0.9160  0.9931
13518TIP3    H261970   3.520   5.999   1.016 -0.3790 -0.1475  0.1664
13519TIP3   OH261971   4.066   0.501  13.376  0.8299  0.1602  0.3185
13519TIP3    H161972   4.122   0.426  13.397  2.1188  1.0636  0.1894
13519TIP3    H261973   4.032   0.482  13.289 -0.1047 -0.9840  0.8954
13520TIP3   OH261974   2.150   2.602  13.633  0.6956 -0.0236 -0.1144
13520TIP3    H161975   2.157   2.684  13.682 -1.4044  0.2624 -0.2081
13520TIP3    H261976   2.058   2.577  13.641  1.2039 -2.1844 -0.4196
13521TIP3   OH261977   5.585   6.062  17.071  0.2246  0.4110  0.0483
13521TIP3    H161978   5.600   6.000  17.143  1.4053  0.4166 -0.1827
13521TIP3    H261979   5.550   6.008  17.000  2.5861 -0.3047 -0.6536
13522TIP3   OH261980   5.110   3.905   3.264 -0.5336 -0.2002 -0.5618
13522TIP3    H161981   5.163   3.853   3.326 -1.3701 -0.4409 -0.0354
13522TIP3    H261982   5.088   3.843   3.194 -0.3482 -0.1694 -0.6488
13523TIP3   OH261983   1.477   5.168   5.689  0.4253  0.7447 -0.2573
13523TIP3    H161984   1.413   5.119   5.639 -1.8238  2.5218  0.7088
13523TIP3    H261985   1.452   5.155   5.780  0.1405  3.0811  0.0523
13524TIP3   OH261986   1.751   5.887   4.600  0.4585 -0.3556 -0.0495
13524TIP3    H161987   1.836   5.881   4.644  0.4281 -0.4816 -0.0073
13524TIP3    H261988   1.711   5.801   4.614 -0.4021  0.2532  1.3911
13525TIP3   OH261989   2.140   4.364   6.627 -0.4469 -0.1796  0.2493
13525TIP3    H161990   2.230   4.332   6.635 -0.5798 -0.9367 -1.0185
13525TIP3    H261991   2.151   4.454   6.595 -0.1333 -0.2648  0.1049
13526TIP3   OH261992   6.353   5.075  11.219 -0.3880 -0.4297 -0.0783
13526TIP3    H161993   6.325   5.165  11.238  2.3450  0.3106  1.0345
13526TIP3    H261994   6.344   5.029  11.303  0.8099 -0.3985  0.0813
13527TIP3   OH261995   4.434   3.719  11.636 -0.6506 -0.4466 -0.4300
13527TIP3    H161996   4.476   3.791  11.683 -2.0201 -0.3433  0.7041
13527TIP3    H261997   4.464   3.728  11.546  0.7776  0.3225  0.0920
13528TIP3   OH261998   6.047   1.677  15.799  0.1898 -0.0970  0.3690
13528TIP3    H161999   6.087   1.704  15.882  2.1731  0.0319 -0.5610
13528TIP3    H262000   6.055   1.754  15.743 -0.9929 -0.2296 -0.0004
13529TIP3   OH262001   0.505   5.373  12.799 -0.0333  0.0130  0.0769
13529TIP3    H162002   0.497   5.452  12.852  0.8596 -0.6973  1.3224
13529TIP3    H262003   0.424   5.325  12.815  0.0196  0.0351  0.4112
13530TIP3   OH262004   0.945   1.490   2.380  0.0051  0.2583 -0.3249
13530TIP3    H162005   0.984   1.463   2.297 -0.0576 -2.0497  0.3512
13530TIP3    H262006   1.017   1.490   2.442 -0.4419 -0.8656  0.2247
13531TIP3   OH262007   3.841   2.684   2.545  0.7734 -0.7478  0.3762
13531TIP3    H162008   3.777   2.645   2.485  0.9990 -0.2033 -0.2264
13531TIP3    H262009   3.823   2.641   2.629  0.9876 -2.1207 -0.2395
13532TIP3   OH262010   4.715   3.615   0.401  0.0594  0.5755 -0.2913
13532TIP3    H162011   4.805   3.619   0.433  0.3180  1.5749 -1.0978
13532TIP3    H262012   4.704   3.526   0.370 -0.3070 -0.5913  2.7952
13533TIP3   OH262013   2.106   3.821  16.776  0.3201 -0.0676  0.0475
13533TIP3    H162014   2.106   3.763  16.852  0.0072  0.3736  0.3938
13533TIP3    H262015   2.013   3.838  16.759  0.3253 -1.3242 -1.3402
13534TIP3   OH262016   3.400   1.602   4.094 -0.0188  0.1571  0.0707
13534TIP3    H162017   3.414   1.567   4.183  0.8695  0.7148  0.1604
13534TIP3    H262018   3.326   1.551   4.060  1.4505 -2.1341  0.0530
13535TIP3   OH262019   2.541   3.805   3.832 -0.4688  0.0946  0.3122
13535TIP3    H162020   2.489   3.731   3.801  0.5334  0.4264 -2.3741
13535TIP3    H262021   2.625   3.767   3.858 -0.0908  0.2237 -0.6998
13536TIP3   OH262022   3.765   2.609   1.693  0.3857 -0.1344  0.0879
13536TIP3    H162023   3.843   2.593   1.641  0.0345 -0.0972 -0.4584
13536TIP3    H262024   3.789   2.580   1.781  1.2516  0.5668  0.0919
13537TIP3   OH262025   1.512   3.803  12.299  0.0107 -0.3301 -0.9327
13537TIP3    H162026   1.560   3.748  12.237  0.6244  0.2887 -1.0268
13537TIP3    H262027   1.450   3.744  12.341  1.3012 -1.3023 -0.3426
13538TIP3   OH262028   5.215   0.867   1.138 -0.3333 -0.6416 -0.2720
13538TIP3    H162029   5.121   0.883   1.144 -0.0491  1.6153 -0.8283
13538TIP3    H262030   5.239   0.896   1.050  1.1548  0.7716  0.5289
13539TIP3   OH262031   2.009   0.733  10.850 -0.9621  0.0186  0.1621
13539TIP3    H162032   2.100   0.763  10.850 -0.5311 -1.2340  0.5735
13539TIP3    H262033   1.966   0.788  10.784  0.1717  0.3859 -0.2983
13540TIP3   OH262034   6.129   5.813   4.127  0.1648 -0.2427 -0.2787
13540TIP3    H162035   6.196   5.836   4.062 -0.5188  1.2589 -0.4902
13540TIP3    H262036   6.157   5.859   4.206 -0.3229 -0.0685 -0.2097
13541TIP3   OH262037   4.250   2.648  15.463  0.1732 -0.1276  0.4698
13541TIP3    H162038   4.293   2.644  15.377  0.8860  0.5870  0.7784
13541TIP3    H262039   4.166   2.690  15.445  0.4566  0.3284  0.1640
13542TIP3   OH262040   6.609   5.120   1.490  0.4911 -0.1188  0.5061
13542TIP3    H162041   6.607   5.168   1.407  0.5595  2.1815  1.7519
13542TIP3    H262042   6.641   5.033   1.466 -1.8002 -0.3752 -2.2458
13543TIP3   OH262043   6.174   4.262   2.575 -0.7448 -0.3821 -0.0898
13543TIP3    H162044   6.261   4.297   2.594 -0.1627 -0.7822 -1.8277
13543TIP3    H262045   6.150   4.213   2.655 -0.4182  1.6235  1.3112
13544TIP3   OH262046   4.431   5.864   4.385  0.5674 -0.0427  0.4956
13544TIP3    H162047   4.455   5.855   4.477 -1.3785  0.7378  1.1094
13544TIP3    H262048   4.439   5.958   4.367  0.7489 -0.1656 -0.0891
13545TIP3   OH262049   4.152   3.182  14.705  0.3450  0.2643 -0.0074
13545TIP3    H162050   4.209   3.171  14.781 -1.6527 -1.8197  1.2865
13545TIP3    H262051   4.144   3.095  14.667 -1.2222  0.6775 -0.7142
13546TIP3   OH262052   3.267   0.432  12.919  0.3828 -0.1922  0.5607
13546TIP3    H162053   3.362   0.420  12.927  0.8229  1.2526 -1.6515
13546TIP3    H262054   3.243   0.379  12.843 -0.3757  0.4068  0.3730
13547TIP3   OH262055   2.037   4.729  16.208  0.1551  0.5919  0.6380
13547TIP3    H162056   2.046   4.660  16.274  3.2656 -0.2927 -0.5123
13547TIP3    H262057   2.035   4.682  16.125 -0.3620  1.8197 -0.0672
13548TIP3   OH262058   6.501   5.377   4.929  0.1363  0.7229  0.4653
13548TIP3    H162059   6.539   5.354   5.014 -0.2577 -1.0669  0.2148
13548TIP3    H262060   6.551   5.324   4.866 -1.0039  0.3540 -0.1574
13549TIP3   OH262061   4.975   0.931   1.801 -0.2913  0.2955  0.1982
13549TIP3    H162062   4.928   0.876   1.863  0.0510  0.2044  0.3780
13549TIP3    H262063   5.050   0.878   1.774 -1.0109 -0.0910 -1.1067
13550TIP3   OH262064   1.884   1.367   2.054  0.1859  0.0070  0.1325
13550TIP3    H162065   1.906   1.432   2.120  1.1469  1.0289 -1.1260
13550TIP3    H262066   1.965   1.354   2.004 -0.3374 -1.1844 -0.4666
13551TIP3   OH262067   4.684   5.349   1.081 -0.0040  0.1060  0.2866
13551TIP3    H162068   4.767   5.372   1.122 -0.9731  0.4074  2.2189
13551TIP3    H262069   4.640   5.294   1.146 -1.4297  0.1748 -0.5826
13552TIP3   OH262070   0.724   3.118   2.734 -0.6584 -0.4444  0.5023
13552TIP3    H162071   0.695   3.205   2.704  0.7668  0.5305  1.7744
13552TIP3    H262072   0.813   3.110   2.700 -0.8680 -1.5333  0.1925
13553TIP3   OH262073   5.970   3.265   6.234 -0.2100  0.1607 -0.7794
13553TIP3    H162074   5.957   3.327   6.306 -0.6307 -2.3341  1.4378
13553TIP3    H262075   5.888   3.269   6.184 -0.9756  0.0825  0.4300
13554TIP3   OH262076   3.323   5.528  17.230 -0.4656 -0.0375 -0.5140
13554TIP3    H162077   3.355   5.564  17.147 -0.6839  0.2004 -0.4960
13554TIP3    H262078   3.245   5.477  17.206  0.5235 -1.5380 -0.7174
13555TIP3   OH262079   5.202   4.752   0.541  0.0342  0.0988  0.1570
13555TIP3    H162080   5.277   4.812   0.545  0.3722 -0.3461  0.5618
13555TIP3    H262081   5.126   4.810   0.539  0.4142  0.5832 -1.4554
13556TIP3   OH262082   0.884   4.475   5.580  0.2573 -0.2455 -0.2943
13556TIP3    H162083   0.960   4.442   5.531  0.6783  0.7775 -0.3557
13556TIP3    H262084   0.915   4.482   5.670  0.5650  1.1340 -0.4950
13557TIP3   OH262085   0.185   0.170  15.895 -0.1864  0.1199 -0.1768
13557TIP3    H162086   0.276   0.161  15.866 -0.9366 -3.0697 -2.0006
13557TIP3    H262087   0.146   0.231  15.833  0.1881 -0.2816 -0.8174
13558TIP3   OH262088   3.476   0.674  12.401  0.3903 -0.7020 -0.1153
13558TIP3    H162089   3.497   0.681  12.494 -0.5726 -0.3482  0.0867
13558TIP3    H262090   3.559   0.692  12.356  0.3656  1.5926  0.6293
13559TIP3   OH262091   0.409   5.961  11.772  0.4085 -0.0157 -0.9247
13559TIP3    H162092   0.488   5.997  11.811 -0.3730  0.8987 -0.1420
13559TIP3    H262093   0.380   5.894  11.834  0.1466  0.1903 -0.8226
13560TIP3   OH262094   5.353   5.653   2.441 -0.1284 -0.1529 -0.1738
13560TIP3    H162095   5.412   5.728   2.452 -0.2994 -0.2230  1.3601
13560TIP3    H262096   5.409   5.584   2.403  0.5074  0.1294  0.2324
13561TIP3   OH262097   2.121   2.781   3.075  1.0841 -0.2290 -0.5030
13561TIP3    H162098   2.051   2.844   3.091  2.3459  1.4002 -1.0913
13561TIP3    H262099   2.129   2.732   3.157 -0.7674 -0.5375 -0.4578
13562TIP3   OH262100   1.130   6.185  14.266  0.8797  0.7932  0.8108
13562TIP3    H162101   1.050   6.133  14.257  1.2450  0.4826 -1.1041
13562TIP3    H262102   1.155   6.176  14.358 -0.6083 -0.0997  1.1584
13563TIP3   OH262103   0.983   0.878   3.705 -0.1121 -0.2351 -0.3760
13563TIP3    H162104   1.038   0.937   3.756  0.3161  0.2458 -1.3691
13563TIP3    H262105   0.973   0.800   3.760  3.1794 -1.1749 -0.8867
13564TIP3   OH262106   4.865   1.792  14.001  0.7147 -0.1713 -0.1223
13564TIP3    H162107   4.899   1.852  13.934 -2.2092 -0.5975 -2.2036
13564TIP3    H262108   4.817   1.726  13.950 -0.5472 -1.2856  2.3728
13565TIP3   OH262109   6.645   3.232   2.997  0.2919  0.1781 -0.1100
13565TIP3    H162110   6.640   3.254   3.090  1.0607  2.3492 -0.5359
13565TIP3    H262111   6.565   3.269   2.959 -0.9766 -2.3056 -0.0970
13566TIP3   OH262112   1.847   0.990  11.512 -0.4306 -0.1363 -0.4124
13566TIP3    H162113   1.851   1.056  11.580  0.7799 -0.7159  0.0981
13566TIP3    H262114   1.784   0.926  11.544  0.1489 -0.4153  0.1849
13567TIP3   OH262115   2.534   3.876  16.521 -0.1015 -0.3143 -0.0675
13567TIP3    H162116   2.466   3.813  16.540 -0.6108  0.5153  0.9745
13567TIP3    H262117   2.488   3.960  16.514  0.7545  0.1984  0.2681
13568TIP3   OH262118   5.252   5.302   2.299 -0.3700 -0.5422 -0.4269
13568TIP3    H162119   5.326   5.351   2.263 -0.9558  0.2702 -0.5598
13568TIP3    H262120   5.245   5.334   2.389  0.4688 -1.8398  0.1220
13569TIP3   OH262121   0.882   2.625  10.968 -0.0873  0.4527  0.4968
13569TIP3    H162122   0.932   2.692  10.922 -0.0691  0.5104  0.6015
13569TIP3    H262123   0.870   2.660  11.056 -1.2847  0.9595  0.1666
13570TIP3   OH262124   4.485   0.080   4.580 -0.0074  0.3353 -0.0750
13570TIP3    H162125   4.572   0.106   4.608  0.0497  2.2792 -1.7788
13570TIP3    H262126   4.426   0.129   4.637  0.0473  0.4446 -0.1120
13571TIP3   OH262127   4.656   4.818  14.813  0.3545 -0.2459 -0.2373
13571TIP3    H162128   4.733   4.869  14.790  0.5483 -0.2489  0.3774
13571TIP3    H262129   4.671   4.793  14.904 -0.0526 -0.8238 -0.3248
13572TIP3   OH262130   0.367   2.953  15.249  0.4969  0.8977  0.1069
13572TIP3    H162131   0.295   2.907  15.206  2.5643 -2.1640 -0.4409
13572TIP3    H262132   0.354   2.936  15.342  1.3002 -1.0599 -0.0987
13573TIP3   OH262133   6.549   5.983  16.350  0.0453 -0.1988 -0.4733
13573TIP3    H162134   6.599   6.065  16.356  2.0889 -1.4692  1.7313
13573TIP3    H262135   6.458   6.010  16.361  0.8059  1.6747  2.7863
13574TIP3   OH262136   3.006   3.459   4.050 -0.0517 -0.0599  0.4343
13574TIP3    H162137   2.963   3.380   4.084 -0.5209 -0.6274 -1.3909
13574TIP3    H262138   2.955   3.484   3.974 -0.2549  2.3913  1.2908
13575TIP3   OH262139   4.621   5.215  14.588  0.4804 -0.0214  0.0519
13575TIP3    H162140   4.652   5.180  14.671 -0.5181 -0.6729  0.1641
13575TIP3    H262141   4.631   5.310  14.596  0.5644 -0.0966  0.8348
13576TIP3   OH262142   3.826   4.287   4.899 -0.1117  0.4477 -0.5020
13576TIP3    H162143   3.746   4.250   4.938 -0.4373  0.5760 -1.0495
13576TIP3    H262144   3.807   4.380   4.890  1.4595  1.2395  2.8291
13577TIP3   OH262145   3.794   6.434   5.454 -0.1341  0.7868 -0.5967
13577TIP3    H162146   3.885   6.461   5.465  0.0412  0.5564 -1.4071
13577TIP3    H262147   3.787   6.411   5.361 -0.5805 -0.8148 -0.1892
13578TIP3   OH262148   0.214   6.258   2.309 -0.3009  0.4049  0.0119
13578TIP3    H162149   0.209   6.350   2.336  0.2337  0.1343  1.0775
13578TIP3    H262150   0.295   6.252   2.259  1.0937  0.0005  2.1724
13579TIP3   OH262151   1.172   6.247  14.538 -0.4444 -0.0937  0.1260
13579TIP3    H162152   1.130   6.303  14.603  0.4185  0.9256 -0.1678
13579TIP3    H262153   1.257   6.225  14.575  1.2413  2.7479 -1.7015
13580TIP3   OH262154   0.656   2.744   0.412 -0.5151  0.4563 -0.1136
13580TIP3    H162155   0.689   2.831   0.390  1.0648  0.1128  0.7240
13580TIP3    H262156   0.731   2.700   0.453 -1.5654 -0.9680  0.3467
13581TIP3   OH262157   3.091   6.763   0.197  0.2305 -0.4377  0.2396
13581TIP3    H162158   3.163   6.811   0.157 -0.4825 -0.1891 -0.7810
13581TIP3    H262159   3.081   6.802   0.284  1.4133 -0.5845  0.4535
13582TIP3   OH262160   0.032   2.079  16.781  0.5136  0.1193  0.3086
13582TIP3    H162161   0.114   2.081  16.731  0.1795  0.1580 -0.2408
13582TIP3    H262162   0.055   2.032  16.861  0.9180 -0.4585 -0.1368
13583TIP3   OH262163   0.573   2.535   1.621  0.0545  0.3280 -0.0962
13583TIP3    H162164   0.576   2.589   1.700  1.3626 -0.5708  0.5025
13583TIP3    H262165   0.479   2.527   1.601 -0.2331  1.7320  0.5226
13584TIP3   OH262166   0.649   4.839  14.184  0.0621  0.1040 -0.3896
13584TIP3    H162167   0.720   4.889  14.143  1.8486 -0.9642  1.2346
13584TIP3    H262168   0.570   4.870  14.141  1.5404  1.0339 -2.6310
13585TIP3   OH262169   1.855   0.868  12.807 -0.6833  0.3288  0.0257
13585TIP3    H162170   1.941   0.898  12.837 -0.9797  1.9483 -0.6804
13585TIP3    H262171   1.875   0.802  12.741  0.0086  0.6169 -0.0551
13586TIP3   OH262172   1.476   4.081   3.796 -0.2928 -0.8930 -0.0949
13586TIP3    H162173   1.435   4.165   3.774 -1.9626 -1.3193  1.1809
13586TIP3    H262174   1.556   4.106   3.843 -1.4287  0.0658  1.4665
13587TIP3   OH262175   2.081   5.572   6.021 -0.5923 -0.3903  0.2429
13587TIP3    H162176   2.041   5.485   6.022  2.5479 -1.9592  0.1974
13587TIP3    H262177   2.107   5.588   6.111  0.5981 -0.3943 -0.0913
13588TIP3   OH262178   5.806   1.280  16.495  0.2184  0.3969  0.5842
13588TIP3    H162179   5.828   1.195  16.455 -0.6514 -0.2546  1.4362
13588TIP3    H262180   5.890   1.317  16.520  0.5462 -0.8420  1.4050
13589TIP3   OH262181   5.292   5.961  17.161  0.2223 -0.0034 -0.0363
13589TIP3    H162182   5.369   5.906  17.176  0.4596  0.2253 -0.4031
13589TIP3    H262183   5.233   5.906  17.110 -0.7087 -0.8865  1.8978
13590TIP3   OH262184   4.269   4.368  13.103 -0.3669  0.1972  0.4462
13590TIP3    H162185   4.297   4.433  13.167  0.7976 -0.0620  0.2352
13590TIP3    H262186   4.216   4.417  13.041  1.4734  1.2628 -0.3774
13591TIP3   OH262187   6.405   6.566  15.478 -0.4081  0.2452 -0.6591
13591TIP3    H162188   6.433   6.587  15.389 -0.8045  0.3606 -0.7606
13591TIP3    H262189   6.341   6.496  15.468  0.9849 -1.1435 -0.3132
13592TIP3   OH262190   5.652   0.178  14.497 -0.1733 -0.1028  0.4071
13592TIP3    H162191   5.569   0.142  14.463  0.1580  0.1836 -0.7643
13592TIP3    H262192   5.681   0.238  14.429 -0.5882  2.2714  2.2058
13593TIP3   OH262193   3.989   1.365  13.011  0.4757 -0.5492 -0.1523
13593TIP3    H162194   3.902   1.396  13.036  1.5450  2.7216 -0.0340
13593TIP3    H262195   3.975   1.317  12.930 -1.1863  2.4526 -1.8257
13594TIP3   OH262196   4.925   3.858  12.889  0.0163 -0.1062 -0.3021
13594TIP3    H162197   5.002   3.825  12.842 -1.0086 -0.6680 -1.6565
13594TIP3    H262198   4.864   3.784  12.889 -0.3808  0.1951  1.1212
13595TIP3   OH262199   3.518   4.974  11.873  0.8611 -0.0427 -0.6926
13595TIP3    H162200   3.572   5.012  11.941  2.0057 -2.7596  0.0236
13595TIP3    H262201   3.458   4.916  11.919 -0.7998  0.7469 -1.7403
13596TIP3   OH262202   0.532   2.398   6.436  0.3279  0.3991 -0.3381
13596TIP3    H162203   0.454   2.424   6.485  0.0649 -0.2679 -0.3943
13596TIP3    H262204   0.499   2.337   6.369  1.2252 -1.9964  1.2736
13597TIP3   OH262205   5.053   3.422   1.161  0.4940 -0.1263 -0.0017
13597TIP3    H162206   4.992   3.357   1.197  0.8357 -0.5856 -0.2353
13597TIP3    H262207   5.127   3.370   1.130  1.0147  0.4255  0.2914
13598TIP3   OH262208   4.275   1.551  12.097 -0.0914 -0.2268 -0.4713
13598TIP3    H162209   4.318   1.467  12.082  0.5235  0.0361 -0.2465
13598TIP3    H262210   4.251   1.582  12.010  0.4746 -0.2341 -0.6335
13599TIP3   OH262211   0.274   5.259  15.880 -0.3050  0.1760 -0.2507
13599TIP3    H162212   0.259   5.347  15.913 -1.3642 -0.2241  0.3609
13599TIP3    H262213   0.203   5.243  15.818 -0.6887 -0.6037  0.3676
13600TIP3   OH262214   5.049   4.318  16.482 -0.0736 -0.0128 -0.1220
13600TIP3    H162215   5.065   4.412  16.485  0.5313 -0.0855 -0.8756
13600TIP3    H262216   5.111   4.285  16.418 -0.8451 -0.8184 -0.4732
13601TIP3   OH262217   5.184   1.299  17.180 -0.6168  0.2222 -0.5260
13601TIP3    H162218   5.142   1.268  17.260  0.7697 -1.0207 -0.2359
13601TIP3    H262219   5.160   1.234  17.114 -0.0204  0.0818 -0.6072
13602TIP3   OH262220   0.954   5.235  17.098 -0.1452  0.1253 -0.3176
13602TIP3    H162221   0.870   5.198  17.126 -0.1668 -0.3231 -0.9506
13602TIP3    H262222   1.016   5.163  17.111  0.2464  0.6179  0.6399
13603TIP3   OH262223   1.792   5.803  13.961  0.2198  0.0838 -0.2430
13603TIP3    H162224   1.831   5.856  13.892 -0.9009  3.6579  1.6243
13603TIP3    H262225   1.850   5.815  14.036 -0.5104 -0.7163  0.4709
13604TIP3   OH262226   2.135   4.818   2.785 -0.1251 -0.8848 -0.9976
13604TIP3    H162227   2.143   4.762   2.708 -1.3743  1.0566 -2.6636
13604TIP3    H262228   2.104   4.902   2.750 -1.0780 -0.0165  1.6674
13605TIP3   OH262229   5.516   3.747   2.817  0.6449  0.1876  0.2726
13605TIP3    H162230   5.528   3.820   2.879  3.4139  0.0079  0.0612
13605TIP3    H262231   5.494   3.790   2.734  1.2627  0.7292  0.3797
13606TIP3   OH262232   4.456   6.126   2.573 -0.0214  0.3868  0.0170
13606TIP3    H162233   4.416   6.110   2.658 -0.3278  0.4631 -0.1109
13606TIP3    H262234   4.397   6.085   2.510  0.1433  0.4279 -0.1673
13607TIP3   OH262235   3.705   6.150  10.021 -0.0282  0.0501  0.2061
13607TIP3    H162236   3.798   6.173  10.017  0.5379 -1.9515  0.7707
13607TIP3    H262237   3.668   6.212  10.084  1.1695  0.1201  0.8665
13608TIP3   OH262238   4.387   5.694  11.367 -0.3914 -0.2500 -0.1731
13608TIP3    H162239   4.335   5.731  11.438 -0.8568  2.7044 -1.9224
13608TIP3    H262240   4.338   5.617  11.339 -1.2631 -0.2769  1.3388
13609TIP3   OH262241   0.913   1.234   5.068  0.3860 -0.2962 -0.2009
13609TIP3    H162242   0.852   1.273   5.131 -0.1907 -0.2052 -0.8126
13609TIP3    H262243   0.903   1.139   5.083  0.4872 -0.2672  0.0631
13610TIP3   OH262244   2.181   0.596  14.691 -0.2478  0.6396  0.3893
13610TIP3    H162245   2.204   0.546  14.770  0.4454  0.7819  0.2824
13610TIP3    H262246   2.086   0.585  14.683  0.0492 -2.3117 -0.7070
13611TIP3   OH262247   1.593   0.536   3.373  0.0241 -0.3941  0.0677
13611TIP3    H162248   1.548   0.610   3.333 -1.5761 -1.5277 -0.3357
13611TIP3    H262249   1.629   0.571   3.454 -0.6528  0.8434 -0.1425
13612TIP3   OH262250   3.397   2.548   6.299 -0.0582  0.4283 -0.4020
13612TIP3    H162251   3.450   2.627   6.308 -0.0590  0.3544  0.2927
13612TIP3    H262252   3.426   2.492   6.371 -1.7726  0.7905  0.6376
13613TIP3   OH262253   1.302   2.461  11.713 -0.0961 -0.2748 -0.1127
13613TIP3    H162254   1.262   2.395  11.769 -0.1324  0.7467  1.0932
13613TIP3    H262255   1.242   2.536  11.717  0.8528  0.4984  0.0277
13614TIP3   OH262256   6.733   5.466  13.826  0.1318 -0.1825 -0.7019
13614TIP3    H162257   6.768   5.379  13.810  2.5542  0.7787 -0.9916
13614TIP3    H262258   6.674   5.483  13.753 -1.0164 -1.8404 -0.2198
13615TIP3   OH262259   3.115   3.015   0.247 -0.8936  0.0642  0.0682
13615TIP3    H162260   3.054   2.945   0.224 -1.3050  0.8119 -1.1554
13615TIP3    H262261   3.149   2.988   0.333 -0.0270 -2.3396 -0.9187
13616TIP3   OH262262   1.058   0.095   5.067 -0.0174  0.3173  0.2587
13616TIP3    H162263   1.059   0.054   5.154 -1.3144  0.7671  0.5130
13616TIP3    H262264   0.981   0.059   5.024  2.5675 -2.8344 -2.2594
13617TIP3   OH262265   1.059   6.189   1.613  0.0986 -0.2590 -0.3169
13617TIP3    H162266   1.000   6.174   1.688  0.1655 -0.0259 -0.2151
13617TIP3    H262267   1.145   6.201   1.653  0.0746  0.2348 -0.3990
13618TIP3   OH262268   5.457   5.740   2.968  0.0135 -0.3028  0.0081
13618TIP3    H162269   5.398   5.808   3.000 -1.4558 -1.7179  0.4566
13618TIP3    H262270   5.517   5.723   3.040  0.6014  0.7044 -0.2214
13619TIP3   OH262271   1.684   1.245   2.902 -0.3571  0.6107 -0.7882
13619TIP3    H162272   1.619   1.295   2.951  0.0244  1.2500 -0.9109
13619TIP3    H262273   1.706   1.302   2.827  1.0806  0.8789 -0.2042
13620TIP3   OH262274   6.024   2.040   0.979 -0.0805 -0.2458  0.6043
13620TIP3    H162275   5.994   1.989   1.054 -0.3330 -0.0911  0.6092
13620TIP3    H262276   5.953   2.101   0.962  0.0256 -0.2032  0.3110
13621TIP3   OH262277   0.391   4.224   0.571 -0.0986 -0.1602 -0.0396
13621TIP3    H162278   0.458   4.162   0.599  0.3678  0.8709  1.2098
13621TIP3    H262279   0.383   4.286   0.643 -1.9632  0.1128 -0.4255
13622TIP3   OH262280   3.861   4.325   1.055 -0.3353 -0.2074  0.1099
13622TIP3    H162281   3.901   4.409   1.029  0.8660 -0.9818 -0.6604
13622TIP3    H262282   3.934   4.275   1.092 -1.0333 -0.9345  0.5041
13623TIP3   OH262283   4.878   1.318  14.931 -0.2207  0.4855  0.0402
13623TIP3    H162284   4.810   1.321  14.998  0.8493  1.1537  1.1376
13623TIP3    H262285   4.951   1.367  14.968  0.1979  1.4125 -1.8772
13624TIP3   OH262286   2.295   0.432  11.279 -0.7400 -0.2412 -0.2518
13624TIP3    H162287   2.209   0.470  11.297 -0.8456  1.4280 -3.6377
13624TIP3    H262288   2.277   0.339  11.262 -1.6404 -0.2104  0.4919
13625TIP3   OH262289   3.234   2.396   2.013 -0.6131 -0.0406  0.4554
13625TIP3    H162290   3.273   2.338   1.948 -0.3984  0.9258 -0.2896
13625TIP3    H262291   3.141   2.374   2.011 -0.6968  0.3755 -0.5931
13626TIP3   OH262292   3.321   1.793  13.125 -0.0384 -0.0485 -0.4149
13626TIP3    H162293   3.321   1.790  13.029 -0.1950  0.9806 -0.4528
13626TIP3    H262294   3.292   1.881  13.147 -1.1176 -0.6284  0.5984
13627TIP3   OH262295   5.503   3.634  12.037  0.6955 -0.3220 -0.5362
13627TIP3    H162296   5.584   3.683  12.051 -0.0355  1.1537 -1.1695
13627TIP3    H262297   5.520   3.582  11.958  1.4079 -0.9558  0.0161
13628TIP3   OH262298   4.992   6.698  15.257 -0.1365 -0.2394 -0.6672
13628TIP3    H162299   4.985   6.646  15.337 -3.4681 -0.6049 -1.0694
13628TIP3    H262300   5.053   6.768  15.279  1.1701 -1.8736  1.2484
13629TIP3   OH262301   0.576   3.320   0.592  0.0150  0.2271 -0.3705
13629TIP3    H162302   0.492   3.361   0.574  0.1835  0.4261 -0.6986
13629TIP3    H262303   0.556   3.227   0.603 -0.2351  0.2664 -0.5101
13630TIP3   OH262304   3.134   6.059  13.774  0.3497 -0.6905  0.3797
13630TIP3    H162305   3.228   6.049  13.792  0.4748 -0.0254  0.1240
13630TIP3    H262306   3.095   6.077  13.859  0.5467 -0.3354  0.3988
13631TIP3   OH262307   3.386   0.456   2.004 -0.1286  0.0149  0.1285
13631TIP3    H162308   3.388   0.378   2.060 -0.3168 -0.0831 -0.0014
13631TIP3    H262309   3.478   0.480   1.994  0.0192 -0.8171 -0.7061
13632TIP3   OH262310   0.993   4.451   3.232 -1.0054  0.3669 -0.0440
13632TIP3    H162311   1.035   4.387   3.290  2.9002 -1.2168 -4.0675
13632TIP3    H262312   1.062   4.514   3.213 -2.0387  0.7444 -2.9577
13633TIP3   OH262313   1.165   4.322  13.760  0.2919 -0.0176  0.6958
13633TIP3    H162314   1.132   4.239  13.794 -1.0464  0.6342  1.0380
13633TIP3    H262315   1.212   4.298  13.680 -0.7339 -1.0299  0.3738
13634TIP3   OH262316   2.972   3.619  12.732 -0.0661 -0.0050 -0.1135
13634TIP3    H162317   2.992   3.526  12.721 -0.6203  0.0768 -2.4081
13634TIP3    H262318   3.031   3.663  12.672 -2.4565  0.7479 -2.0788
13635TIP3   OH262319   2.953   1.069   3.582  0.2713  0.7932  0.3392
13635TIP3    H162320   2.931   1.033   3.668 -0.4662 -0.9163 -0.5046
13635TIP3    H262321   3.048   1.060   3.576  0.2074 -0.1191  0.5568
13636TIP3   OH262322   6.512   2.449   5.624  0.1784  0.4452  1.2213
13636TIP3    H162323   6.454   2.505   5.572 -0.0113 -0.5812  0.3074
13636TIP3    H262324   6.452   2.402   5.683  0.2013  0.2261  1.0694
13637TIP3   OH262325   5.023   3.964   4.477  0.1288  0.1443 -0.6922
13637TIP3    H162326   4.959   4.031   4.455 -0.8652 -0.7691 -0.6459
13637TIP3    H262327   5.108   4.005   4.460 -0.4578  1.3791 -0.7230
13638TIP3   OH262328   6.764   5.692   6.021  0.1256  0.0134  0.9023
13638TIP3    H162329   6.841   5.635   6.026 -1.0780 -1.5551  3.2785
13638TIP3    H262330   6.748   5.718   6.112 -1.0946  1.8331  0.2249
13639TIP3   OH262331   4.582   6.505   1.905  0.2535 -0.1745 -0.1639
13639TIP3    H162332   4.637   6.460   1.969 -1.8161 -1.5938  0.7109
13639TIP3    H262333   4.621   6.593   1.898  1.3676 -0.4239  1.9869
13640TIP3   OH262334   4.507   3.362  16.850  0.7127 -0.2329  0.3159
13640TIP3    H162335   4.574   3.429  16.858 -0.9638  1.4527  1.0149
13640TIP3    H262336   4.452   3.372  16.927 -0.3727 -1.5307 -0.2298
13641TIP3   OH262337   3.600   2.826   1.363 -0.2807  0.1300  0.1715
13641TIP3    H162338   3.592   2.898   1.426  0.3602  0.4181 -0.0709
13641TIP3    H262339   3.629   2.868   1.282  0.0774 -0.3957  0.0247
13642TIP3   OH262340   0.947   6.695  12.883  0.2432 -0.3247  0.5107
13642TIP3    H162341   0.958   6.750  12.805 -0.5463  0.0841  0.6793
13642TIP3    H262342   0.854   6.701  12.904  0.1552 -1.6230  0.6133
13643TIP3   OH262343   5.563   2.293   0.693  0.2834 -0.1030  0.4407
13643TIP3    H162344   5.575   2.387   0.706 -1.9666  0.2976  0.1296
13643TIP3    H262345   5.477   2.275   0.732  0.3644 -1.9032 -0.1383
13644TIP3   OH262346   3.429   0.090  11.254 -0.0593 -0.4596  0.0344
13644TIP3    H162347   3.346   0.138  11.259  0.3675  0.2165  0.7848
13644TIP3    H262348   3.429   0.034  11.332  0.3748 -0.1482  0.2595
13645TIP3   OH262349   6.238   2.920   6.181  0.2031 -0.2944 -0.2321
13645TIP3    H162350   6.265   2.851   6.241 -0.0806 -0.3452 -0.1626
13645TIP3    H262351   6.151   2.946   6.211  0.4813  0.3924  0.0062
13646TIP3   OH262352   1.940   2.864  14.652 -0.1887  0.5883 -0.3466
13646TIP3    H162353   1.902   2.950  14.634 -1.4718  0.3593  1.0706
13646TIP3    H262354   1.929   2.815  14.571 -2.2571  0.8014 -0.2383
13647TIP3   OH262355   1.924   6.065  12.212  1.1262 -0.3664 -0.3131
13647TIP3    H162356   1.984   5.993  12.191 -0.2094 -1.4648 -0.5283
13647TIP3    H262357   1.978   6.128  12.259  2.4271 -1.3444 -0.4324
13648TIP3   OH262358   2.879   3.163   5.905  0.3897  0.4213  0.3482
13648TIP3    H162359   2.971   3.164   5.929  0.5539 -1.5618 -0.0566
13648TIP3    H262360   2.832   3.168   5.988  0.8832  0.1591  0.6455
13649TIP3   OH262361   2.940   6.521   5.511  0.1338 -0.4903  0.0655
13649TIP3    H162362   3.032   6.541   5.524  0.0573 -0.3394  0.3870
13649TIP3    H262363   2.894   6.602   5.535 -0.0254 -0.2462 -1.0036
13650TIP3   OH262364   2.573   4.701   1.368 -0.3284  0.3873  0.1772
13650TIP3    H162365   2.601   4.655   1.447 -1.9185  0.5845  0.8713
13650TIP3    H262366   2.478   4.689   1.364 -0.4545  1.4726 -1.0077
13651TIP3   OH262367   3.197   0.609  13.538 -0.2733 -0.5090 -0.6568
13651TIP3    H162368   3.186   0.636  13.629  0.6380  0.1078 -0.7118
13651TIP3    H262369   3.181   0.689  13.488 -0.3624 -0.7463 -1.0093
13652TIP3   OH262370   0.568   4.586  11.236  0.3737  1.0292 -0.5889
13652TIP3    H162371   0.599   4.519  11.298 -2.7423  0.2671  0.3214
13652TIP3    H262372   0.575   4.544  11.150  0.4253  0.3171 -0.2478
13653TIP3   OH262373   1.245   5.964  17.137  0.2938 -0.1622  0.3412
13653TIP3    H162374   1.226   5.997  17.049 -0.0715 -3.8992 -1.1745
13653TIP3    H262375   1.326   6.007  17.162  1.8184 -0.7538 -3.0031
13654TIP3   OH262376   4.872   4.456   1.754 -0.0804 -0.8845 -0.0864
13654TIP3    H162377   4.904   4.472   1.665 -1.9723  1.2263 -0.4639
13654TIP3    H262378   4.931   4.506   1.810 -0.4948 -0.0089 -0.4199
13655TIP3   OH262379   6.363   2.514  16.256 -0.4775  0.6351  0.3773
13655TIP3    H162380   6.300   2.475  16.318 -1.3863  0.9180 -0.3434
13655TIP3    H262381   6.317   2.513  16.172  1.3407 -1.2875 -0.6991
13656TIP3   OH262382   2.351   0.416   2.541 -0.0382  0.1678  0.3024
13656TIP3    H162383   2.268   0.463   2.539 -0.1161  0.0190 -0.1681
13656TIP3    H262384   2.335   0.337   2.489  0.7571  0.7345 -0.8631
13657TIP3   OH262385   5.529   5.551  15.598 -0.0982 -0.4167  0.3404
13657TIP3    H162386   5.512   5.499  15.676  1.7644 -1.0896  0.3419
13657TIP3    H262387   5.600   5.505  15.553 -1.2307 -0.1440 -1.8625
13658TIP3   OH262388   5.327   6.480   5.708  0.0092 -0.1876 -0.5688
13658TIP3    H162389   5.411   6.477   5.663  0.3744  0.3227  0.0505
13658TIP3    H262390   5.348   6.460   5.799 -0.7195 -1.2429 -0.6128
13659TIP3   OH262391   4.525   3.454   3.274 -0.0720  0.0653 -0.0046
13659TIP3    H162392   4.551   3.541   3.243  2.2454 -0.6617 -0.3115
13659TIP3    H262393   4.608   3.406   3.283 -1.3152 -2.3129 -0.4307
13660TIP3   OH262394   6.456   2.857   3.560  0.4170  0.2298 -0.2638
13660TIP3    H162395   6.424   2.766   3.557 -0.8706  0.6703 -0.4037
13660TIP3    H262396   6.530   2.854   3.620 -0.7425 -0.5919  1.1838
13661TIP3   OH262397   0.816   0.970   4.505  0.0369  0.3398 -0.0558
13661TIP3    H162398   0.865   1.019   4.440  1.1406 -0.7985 -0.1265
13661TIP3    H262399   0.775   1.036   4.561 -2.2118  1.4106 -2.7531
13662TIP3   OH262400   4.800   1.590   4.639 -0.4656 -0.0986 -0.1292
13662TIP3    H162401   4.831   1.671   4.599 -1.9190  0.1057 -0.9155
13662TIP3    H262402   4.787   1.530   4.565 -1.2024 -0.4023  0.2305
13663TIP3   OH262403   4.857   4.223  12.146  0.1859  0.0090 -0.0800
13663TIP3    H162404   4.806   4.296  12.181 -0.2793 -1.2242  2.0000
13663TIP3    H262405   4.853   4.234  12.051 -0.3454  2.3289  0.1481
13664TIP3   OH262406   1.307   5.212   3.934 -0.0358  0.0695  0.3623
13664TIP3    H162407   1.274   5.283   3.990  0.1701  0.1899  0.3355
13664TIP3    H262408   1.336   5.145   3.996  2.5930  1.2399  0.5648
13665TIP3   OH262409   0.677   0.706  12.046  0.0324 -0.2449 -0.1051
13665TIP3    H162410   0.587   0.672  12.050  0.7196 -2.2287 -0.3713
13665TIP3    H262411   0.732   0.631  12.069  1.7492  0.3107 -2.0855
13666TIP3   OH262412   0.098   2.229  12.351 -0.1652 -0.2549 -0.3216
13666TIP3    H162413   0.189   2.255  12.362 -0.0241 -0.9290  0.1623
13666TIP3    H262414   0.054   2.309  12.322  0.8545 -0.2969 -2.0833
13667TIP3   OH262415   1.635   1.113  15.583 -0.3663 -0.6778 -0.1944
13667TIP3    H162416   1.591   1.136  15.501  0.2756  1.8480  0.0848
13667TIP3    H262417   1.584   1.158  15.650 -1.2246 -3.1761  0.9435
13668TIP3   OH262418   5.563   5.468  13.955  0.5740 -0.4709 -0.0152
13668TIP3    H162419   5.593   5.403  14.018 -0.0945 -0.4309  0.3486
13668TIP3    H262420   5.491   5.513  13.999  0.3370 -0.1988 -0.6686
13669TIP3   OH262421   0.418   3.889  11.744 -0.3173  0.2142  0.1780
13669TIP3    H162422   0.334   3.843  11.736  0.1571 -0.7027  0.3306
13669TIP3    H262423   0.394   3.982  11.749 -1.2207  0.1080 -1.4625
13670TIP3   OH262424   0.846   0.467  10.539  0.0014  0.5116 -0.3591
13670TIP3    H162425   0.911   0.537  10.541 -0.6386  1.1158 -0.3674
13670TIP3    H262426   0.766   0.508  10.569  0.0086 -0.6558  1.4167
13671TIP3   OH262427   2.216   3.560   3.230 -0.1876  0.4117 -0.0154
13671TIP3    H162428   2.174   3.577   3.145 -1.1924 -2.4940 -0.1912
13671TIP3    H262429   2.295   3.615   3.228 -0.4497  0.8427 -2.6137
13672TIP3   OH262430   4.908   0.544   0.024  0.5527 -0.1301 -0.2166
13672TIP3    H162431   4.932   0.493  -0.053 -1.5465  1.0232 -1.7312
13672TIP3    H262432   4.896   0.633  -0.009  2.4692  1.0977  2.0258
13673TIP3   OH262433   4.187   1.984   5.819  0.0399 -0.2169  0.0575
13673TIP3    H162434   4.280   1.966   5.803 -0.2839 -0.9014 -1.1780
13673TIP3    H262435   4.185   2.074   5.851  0.9647  0.5602 -1.9083
13674TIP3   OH262436   5.302   3.935  11.743  0.0745  0.1254  0.2707
13674TIP3    H162437   5.390   3.972  11.732  0.8116 -2.0427 -1.8384
13674TIP3    H262438   5.253   3.966  11.667  0.1618 -1.5980 -0.5391
13675TIP3   OH262439   6.011   1.075  13.158 -0.2668  0.2874  0.4002
13675TIP3    H162440   5.971   0.990  13.179  0.6328 -1.0344 -2.6572
13675TIP3    H262441   5.937   1.134  13.146 -1.0737 -0.8003 -0.1770
13676TIP3   OH262442   0.199   4.548  12.453  0.6036 -0.2355  0.2446
13676TIP3    H162443   0.204   4.619  12.517 -0.1331 -1.5886  1.8721
13676TIP3    H262444   0.185   4.470  12.505  0.7874 -1.5157 -1.5458
13677TIP3   OH262445   0.132   0.899   0.537  0.3040 -0.3787  0.1015
13677TIP3    H162446   0.184   0.861   0.608 -0.0917 -1.7711 -0.3219
13677TIP3    H262447   0.178   0.874   0.457 -1.4453 -2.4779 -0.3500
13678TIP3   OH262448   2.340   1.073  14.439  0.1228  0.0556 -0.0846
13678TIP3    H162449   2.392   1.114  14.508 -1.7230  1.1131  0.7574
13678TIP3    H262450   2.375   0.984  14.433 -0.4753 -0.5660  3.2526
13679TIP3   OH262451   5.402   4.466  16.463  0.1844  0.6626  0.0070
13679TIP3    H162452   5.326   4.525  16.467 -0.8534 -0.7028  3.1799
13679TIP3    H262453   5.371   4.391  16.412  0.4883  1.4082 -1.3356
13680TIP3   OH262454   1.843   0.197   5.206  0.1500 -0.7386  0.3529
13680TIP3    H162455   1.926   0.197   5.158 -0.0176  0.2578  0.0139
13680TIP3    H262456   1.867   0.218   5.296  0.0909  2.5916 -0.2659
13681TIP3   OH262457   3.480   2.374  13.757  0.0022  0.2517  0.1874
13681TIP3    H162458   3.565   2.387  13.715 -0.4784  2.3214 -0.2455
13681TIP3    H262459   3.473   2.279  13.768  2.6069  0.0459  0.7497
13682TIP3   OH262460   4.571   4.978   5.370  0.1548  0.5724 -0.3360
13682TIP3    H162461   4.491   5.026   5.387  0.0766 -0.0225  1.1259
13682TIP3    H262462   4.547   4.915   5.302 -0.3565  1.0273 -0.5848
13683TIP3   OH262463   4.161   4.152  16.489  0.2963  0.6805 -0.0559
13683TIP3    H162464   4.128   4.072  16.448  0.1448  0.9422 -0.4559
13683TIP3    H262465   4.234   4.123  16.544 -1.0620 -0.0218  1.4594
13684TIP3   OH262466   1.252   0.594  11.369  0.1734 -0.1965 -0.5605
13684TIP3    H162467   1.217   0.607  11.281 -1.5213 -0.6598 -0.0079
13684TIP3    H262468   1.207   0.660  11.422  0.3427 -0.6428  0.1434
13685TIP3   OH262469   6.006   5.827   2.887  0.3574  0.1289  0.6559
13685TIP3    H162470   6.037   5.901   2.836 -1.9589 -0.8321 -2.4847
13685TIP3    H262471   5.942   5.864   2.947 -0.3019  0.8003 -0.4270
13686TIP3   OH262472   2.876   1.972  12.654 -0.5902  0.2704  0.5726
13686TIP3    H162473   2.895   1.881  12.677  1.2301  0.8048  1.4149
13686TIP3    H262474   2.781   1.977  12.652 -0.7505 -1.3467  1.8653
13687TIP3   OH262475   4.434   4.116   4.381  0.3893  0.5194 -0.5273
13687TIP3    H162476   4.340   4.135   4.381 -0.2852 -2.2916 -2.3080
13687TIP3    H262477   4.453   4.091   4.471 -0.6751  0.6865 -0.2429
13688TIP3   OH262478   4.839   4.227  14.999  0.5304 -0.4591 -0.2320
13688TIP3    H162479   4.755   4.268  14.979  0.3366 -1.0877 -0.7367
13688TIP3    H262480   4.900   4.264  14.935  0.6481  0.0132  0.1481
13689TIP3   OH262481   3.866   5.904  12.319  0.3148  0.2443  0.2163
13689TIP3    H162482   3.950   5.860  12.311 -0.1590 -1.0206  1.6566
13689TIP3    H262483   3.844   5.897  12.412 -1.6843 -0.0740 -0.2254
13690TIP3   OH262484   4.058   3.828  15.252  0.0686  0.9285 -0.4496
13690TIP3    H162485   4.031   3.916  15.275  0.4191  1.2574 -1.2690
13690TIP3    H262486   4.075   3.831  15.158  0.5429  0.1104 -0.4072
13691TIP3   OH262487   6.493   1.797  14.376  0.2449  0.1204  0.3946
13691TIP3    H162488   6.579   1.831  14.404  0.9790 -1.4379  0.1249
13691TIP3    H262489   6.487   1.711  14.417 -0.8499 -0.1147 -0.2366
13692TIP3   OH262490   0.405   6.681  12.927  0.5805  0.3467 -0.3103
13692TIP3    H162491   0.313   6.704  12.914  0.2111 -0.9989 -0.2494
13692TIP3    H262492   0.406   6.637  13.012  0.9974 -1.0205 -0.9988
13693TIP3   OH262493   3.621   5.846  16.544 -0.0828  0.0070  0.4947
13693TIP3    H162494   3.619   5.942  16.550  2.9471  0.1787  0.3749
13693TIP3    H262495   3.581   5.826  16.460 -1.7752  1.0325  0.9993
13694TIP3   OH262496   3.638   1.323   0.144  0.2965 -0.3638  0.4503
13694TIP3    H162497   3.696   1.398   0.140 -0.9871  0.7583  1.7782
13694TIP3    H262498   3.631   1.293   0.053  1.4091  0.6556  0.0064
13695TIP3   OH262499   6.481   5.609   5.161  0.1733  0.0133 -0.4963
13695TIP3    H162500   6.392   5.619   5.196  0.7197 -0.9255  1.3042
13695TIP3    H262501   6.497   5.514   5.162  0.4880 -0.0094 -2.7653
13696TIP3   OH262502   2.468   3.515   5.794 -0.2187  0.0323 -0.0651
13696TIP3    H162503   2.454   3.449   5.862  1.6620 -0.0475  0.2847
13696TIP3    H262504   2.558   3.502   5.766 -0.8659  0.1906 -2.4700
13697TIP3   OH262505   2.542   1.059   4.087  0.0936  0.5269  0.5159
13697TIP3    H162506   2.506   0.979   4.123  1.7336 -0.2981  0.4300
13697TIP3    H262507   2.499   1.069   4.002 -0.4082 -0.0392  0.6977
13698TIP3   OH262508   0.591   1.089   3.185  0.2982  0.4062 -0.2507
13698TIP3    H162509   0.613   1.177   3.217  1.0101  0.3165 -0.4814
13698TIP3    H262510   0.508   1.069   3.227 -0.0844  1.3656 -0.5188
13699TIP3   OH262511   6.103   4.229   3.317  0.2287  0.2337  0.8167
13699TIP3    H162512   6.191   4.197   3.299  1.0528  1.8654  1.6857
13699TIP3    H262513   6.091   4.217   3.411 -0.2158  0.6101  0.8138
13700TIP3   OH262514   3.078   4.709   2.058  0.3440 -0.2568 -0.9425
13700TIP3    H162515   3.031   4.680   2.135 -2.6539 -0.3389 -2.6683
13700TIP3    H262516   3.150   4.763   2.092 -0.4222 -0.9076  1.8772
13701TIP3   OH262517   2.470   4.258  14.978  0.0680 -0.6536 -0.0428
13701TIP3    H162518   2.438   4.267  14.888  1.7099 -1.3774 -0.7422
13701TIP3    H262519   2.550   4.206  14.970  0.1434 -0.9122  1.8743
13702TIP3   OH262520   5.465   2.742   2.288  0.0931 -0.2798  0.5202
13702TIP3    H162521   5.501   2.692   2.215  0.9187  0.2725  0.5351
13702TIP3    H262522   5.461   2.679   2.360  0.9373 -0.3874  0.4827
13703TIP3   OH262523   4.862   3.419   0.252 -0.4334 -0.6578 -0.3830
13703TIP3    H162524   4.915   3.368   0.312 -0.0124 -0.3555 -0.4886
13703TIP3    H262525   4.895   3.509   0.261 -1.5064 -0.3002  0.1910
13704TIP3   OH262526   2.470   4.383   0.531  0.4536 -0.0889 -0.6678
13704TIP3    H162527   2.462   4.460   0.587  1.3126 -1.5667  1.6779
13704TIP3    H262528   2.538   4.406   0.467 -0.1878  1.4989 -0.8142
13705TIP3   OH262529   6.100   5.024  16.183  0.0126  0.7455  0.4455
13705TIP3    H162530   6.091   5.119  16.195  1.1294  0.6760  2.1256
13705TIP3    H262531   6.114   4.990  16.271 -2.2983 -1.2418  0.1420
13706TIP3   OH262532   4.200   0.338  15.626  0.7822  0.7444  0.2853
13706TIP3    H162533   4.211   0.252  15.587  0.3072 -0.3003  2.3209
13706TIP3    H262534   4.189   0.397  15.551 -0.7755 -1.2104 -1.1249
13707TIP3   OH262535   2.723   3.476  15.061  0.5240 -0.9252  0.2695
13707TIP3    H162536   2.808   3.520  15.062 -0.3349  0.8090  0.4586
13707TIP3    H262537   2.667   3.531  15.115 -1.2667 -0.8572 -1.5333
13708TIP3   OH262538   6.611   5.652  15.637 -0.0802 -0.1138  0.3931
13708TIP3    H162539   6.705   5.633  15.640  0.1240  0.9001  1.0004
13708TIP3    H262540   6.589   5.647  15.544  0.5287 -0.5463  0.2612
13709TIP3   OH262541   2.402   2.256  11.413 -0.4402 -0.3512 -0.0098
13709TIP3    H162542   2.443   2.307  11.482  0.1813 -0.5777 -0.2025
13709TIP3    H262543   2.365   2.180  11.458 -3.1822  1.2070  0.5990
13710TIP3   OH262544   2.133   5.686  14.705 -0.3445 -0.5697 -0.0716
13710TIP3    H162545   2.206   5.705  14.646 -1.5878 -0.3371 -1.5703
13710TIP3    H262546   2.122   5.591  14.699 -0.1485 -0.6096  0.1832
13711TIP3   OH262547   3.473   3.765  10.219 -0.1459 -0.4778 -0.0989
13711TIP3    H162548   3.439   3.847  10.183  0.1930  0.8636  2.4031
13711TIP3    H262549   3.441   3.763  10.310  1.9003 -1.8555  0.6822
13712TIP3   OH262550   3.349   0.223  13.179 -0.0109 -0.3773  0.0629
13712TIP3    H162551   3.274   0.194  13.128 -0.1794  0.1419  0.0110
13712TIP3    H262552   3.349   0.318  13.171  1.0415 -0.4076 -0.4726
13713TIP3   OH262553   3.692   5.766  13.311 -0.2221  0.2673  0.2468
13713TIP3    H162554   3.725   5.847  13.351 -0.2997  0.4812 -0.1213
13713TIP3    H262555   3.717   5.697  13.373  0.0231  0.5477  0.4636
13714TIP3   OH262556   4.259   0.582   0.422  0.3836 -1.0008 -0.0390
13714TIP3    H162557   4.229   0.673   0.424 -0.8044 -1.3490 -1.0363
13714TIP3    H262558   4.331   0.581   0.358  2.3028 -0.2704  1.9702
13715TIP3   OH262559   4.236   5.711   3.759  0.0856 -0.2025  0.5679
13715TIP3    H162560   4.208   5.680   3.673 -1.5135  0.8265  0.6793
13715TIP3    H262561   4.235   5.633   3.814  2.4529 -1.1578 -0.5903
13716TIP3   OH262562   4.857   5.008  16.929 -0.0972  0.2334  0.2490
13716TIP3    H162563   4.781   4.979  16.980  0.0622 -1.3087 -0.3500
13716TIP3    H262564   4.826   5.007  16.839  0.7560 -0.8665 -0.0447
13717TIP3   OH262565   3.811   0.507   4.943  0.3581  0.3800  0.0626
13717TIP3    H162566   3.806   0.457   5.024  2.1134 -1.4441 -0.8731
13717TIP3    H262567   3.804   0.598   4.971  0.0116 -0.2390  2.1461
13718TIP3   OH262568   2.887   1.738   4.419  0.2215 -0.1440 -0.0012
13718TIP3    H162569   2.942   1.812   4.445  1.5236 -0.8597 -0.6336
13718TIP3    H262570   2.812   1.779   4.376  1.1686  0.8193 -0.8211
13719TIP3   OH262571   0.583   1.778   0.780  0.1523  0.3591 -0.7033
13719TIP3    H162572   0.596   1.765   0.686  0.8463  0.5743 -0.6414
13719TIP3    H262573   0.575   1.689   0.816 -1.2953  0.2993 -1.1121
13720TIP3   OH262574   6.649   1.333  11.385  0.7354 -0.3353 -0.4113
13720TIP3    H162575   6.671   1.358  11.295  0.6336  2.1672  0.1692
13720TIP3    H262576   6.696   1.397  11.439 -1.7144  0.2717  1.1575
13721TIP3   OH262577   5.400   2.978  12.842 -0.5449 -0.3300  0.2974
13721TIP3    H162578   5.389   3.068  12.872 -1.5929  0.4193 -2.0450
13721TIP3    H262579   5.311   2.950  12.819  0.0017 -1.2952 -0.7167
13722TIP3   OH262580   4.478   0.858   0.533 -0.8155 -0.1260 -0.2639
13722TIP3    H162581   4.535   0.829   0.462 -0.6852  0.3367 -0.3511
13722TIP3    H262582   4.519   0.823   0.612 -1.2131 -1.0419 -0.4427
13723TIP3   OH262583   5.303   5.554   4.318  0.0382  0.2290 -0.2409
13723TIP3    H162584   5.220   5.506   4.321 -1.0413  2.0377  0.1470
13723TIP3    H262585   5.280   5.640   4.284  1.6623  0.9762  0.4455
13724TIP3   OH262586   3.713   1.186   5.274  0.4274 -0.5108 -0.5605
13724TIP3    H162587   3.665   1.155   5.198  0.8401 -1.0544 -0.6021
13724TIP3    H262588   3.653   1.175   5.348 -0.0938  0.3298 -0.8492
13725TIP3   OH262589   1.935   3.688   2.417 -0.0344  0.8242  0.0497
13725TIP3    H162590   1.924   3.783   2.405  1.1464  1.2521  1.9008
13725TIP3    H262591   1.997   3.663   2.348 -0.8322  1.2601 -0.8522
13726TIP3   OH262592   2.438   3.239  13.168  0.2321  0.4351 -0.2069
13726TIP3    H162593   2.491   3.305  13.213 -1.2209  0.5523  1.4004
13726TIP3    H262594   2.480   3.156  13.190  0.1394  0.5730  0.5023
13727TIP3   OH262595   4.215   4.347   3.883 -0.2972  0.4631  0.0282
13727TIP3    H162596   4.159   4.270   3.893 -1.3818  1.3106  0.6787
13727TIP3    H262597   4.231   4.353   3.789 -2.1138  0.7496 -0.2985
13728TIP3   OH262598   6.626   4.070  14.847  0.1071  0.0850 -0.5959
13728TIP3    H162599   6.654   4.132  14.915  0.0238 -0.0803 -0.4107
13728TIP3    H262600   6.579   4.002  14.895 -1.0104  0.5926 -0.9572
13729TIP3   OH262601   2.315   5.570   4.185 -0.2536 -0.4146 -0.6176
13729TIP3    H162602   2.289   5.653   4.144  1.2273  0.3862 -0.0088
13729TIP3    H262603   2.283   5.577   4.275  2.4451  0.9038  0.3684
13730TIP3   OH262604   5.590   5.659  15.969  0.3200  0.0411 -0.4333
13730TIP3    H162605   5.496   5.649  15.984  0.5697 -0.0208  1.2218
13730TIP3    H262606   5.600   5.750  15.942 -0.1732  0.1566 -0.2356
13731TIP3   OH262607   6.610   2.034  16.978 -0.2121 -0.2752  0.0921
13731TIP3    H162608   6.515   2.025  16.970 -0.2898  0.7811 -0.4490
13731TIP3    H262609   6.640   2.045  16.888  0.5040 -1.2003  0.2103
13732TIP3   OH262610   0.697   3.181   0.237 -0.2069 -0.0838 -0.4684
13732TIP3    H162611   0.755   3.111   0.267 -0.5216 -0.5354 -0.8930
13732TIP3    H262612   0.705   3.249   0.304 -1.9215 -1.6071  1.4267
13733TIP3   OH262613   0.948   0.332   2.939 -0.6952  0.3451  0.1412
13733TIP3    H162614   1.012   0.308   3.006 -1.3373 -0.2259  0.5622
13733TIP3    H262615   0.942   0.427   2.944  1.3500  0.5815 -1.0506
13734TIP3   OH262616   3.133   4.213   6.734 -0.0189  0.0932 -0.1230
13734TIP3    H162617   3.220   4.241   6.705  0.3215  0.2433  1.0000
13734TIP3    H262618   3.101   4.286   6.786 -0.0830 -0.6668  0.9322
13735TIP3   OH262619   0.515   0.527   1.411 -0.2658 -0.6386  0.0316
13735TIP3    H162620   0.525   0.440   1.448 -0.3764 -0.1345  1.3073
13735TIP3    H262621   0.506   0.585   1.487 -0.2401  0.4806 -0.7815
13736TIP3   OH262622   1.233   4.883  10.960  0.2314  0.3385  0.2274
13736TIP3    H162623   1.140   4.899  10.943  0.1669 -0.8786 -0.6517
13736TIP3    H262624   1.268   4.969  10.984 -1.1668  0.7663  0.8353
13737TIP3   OH262625   0.725   3.312  15.384 -0.2353 -0.1102  0.0677
13737TIP3    H162626   0.802   3.262  15.359 -0.6977 -0.5682 -0.4689
13737TIP3    H262627   0.744   3.343  15.473  0.3353 -0.6602  0.1431
13738TIP3   OH262628   5.589   5.300   6.127 -0.0893 -0.5526  0.1416
13738TIP3    H162629   5.590   5.296   6.031 -2.4597  1.0226 -0.0175
13738TIP3    H262630   5.509   5.348   6.149  1.7905  1.6393  2.8331
13739TIP3   OH262631   4.455   0.793   2.928  0.8380  0.3051 -0.7676
13739TIP3    H162632   4.402   0.852   2.981 -0.4976 -0.6417 -0.9956
13739TIP3    H262633   4.458   0.833   2.841  1.8796  1.1597 -0.3725
13740TIP3   OH262634   0.060   0.351   3.333 -0.1265  0.4896  0.4299
13740TIP3    H162635   0.144   0.308   3.319  0.2271  0.7349  1.7169
13740TIP3    H262636  -0.004   0.280   3.338 -0.0258  0.3090 -0.6354
13741TIP3   OH262637   1.991   5.697   1.212  0.4690 -0.1004  0.2907
13741TIP3    H162638   1.994   5.788   1.243 -0.4425  0.1503 -0.3261
13741TIP3    H262639   1.986   5.645   1.292  0.6005  0.4080  0.6379
13742TIP3   OH262640   5.081   1.054  14.596  0.3498  0.2932 -0.4849
13742TIP3    H162641   5.099   1.073  14.688  1.1946 -1.4141 -0.2536
13742TIP3    H262642   5.146   1.104  14.548  1.7497 -0.9491  0.0325
13743TIP3   OH262643   1.850   4.816  16.510  0.2097 -0.4190  0.0498
13743TIP3    H162644   1.809   4.801  16.595  0.6355  1.1931  0.5682
13743TIP3    H262645   1.944   4.804  16.526  0.4686  1.6085  0.2574
13744TIP3   OH262646   1.094   2.395   0.686  0.1188 -0.5367  0.2427
13744TIP3    H162647   1.157   2.425   0.752 -0.7821  1.8140  0.1224
13744TIP3    H262648   1.148   2.367   0.612  1.0654 -0.6431  0.9507
13745TIP3   OH262649   4.789   3.502  14.905  0.3399 -0.6457  0.0687
13745TIP3    H162650   4.726   3.543  14.847  0.2476 -0.7967  0.0606
13745TIP3    H262651   4.874   3.524  14.868  0.2620 -1.8927 -0.9293
13746TIP3   OH262652   2.262   6.364  14.770 -0.1805  0.0580 -0.3781
13746TIP3    H162653   2.329   6.305  14.804  0.2222  1.8653  2.3568
13746TIP3    H262654   2.305   6.450  14.767 -1.7617  0.8837 -0.5994
13747TIP3   OH262655   5.233   1.307   4.492  0.4175 -0.2950 -0.1141
13747TIP3    H162656   5.232   1.403   4.498  0.6659 -0.3492  1.4185
13747TIP3    H262657   5.174   1.286   4.420  0.1450  1.0085 -0.2899
13748TIP3   OH262658   5.118   1.037   2.099  0.0353  0.1709  0.5564
13748TIP3    H162659   5.193   1.092   2.075 -0.7396  1.4346  0.8869
13748TIP3    H262660   5.084   1.005   2.016  0.2717  0.5329  0.3164
13749TIP3   OH262661   0.236   3.199  16.294 -0.0180 -0.0044 -0.4882
13749TIP3    H162662   0.275   3.257  16.359  0.2344 -2.0780  1.3174
13749TIP3    H262663   0.141   3.208  16.307  0.0128  0.3028 -0.4861
13750TIP3   OH262664   5.185   1.020   4.580 -0.3639  0.7123 -0.1044
13750TIP3    H162665   5.227   1.016   4.665  0.4276 -0.0842 -0.5186
13750TIP3    H262666   5.183   1.113   4.558  1.1283  0.7714 -0.0440
13751TIP3   OH262667   4.128   0.621  10.773 -0.1413  0.2104 -0.0857
13751TIP3    H162668   4.123   0.579  10.687 -0.3526  1.6224 -0.7840
13751TIP3    H262669   4.088   0.557  10.833 -1.2000 -0.2644 -1.2450
13752TIP3   OH262670   3.093   4.983  13.377 -0.2866  0.4653 -0.6868
13752TIP3    H162671   3.000   4.959  13.379 -0.1648 -1.8123 -5.7471
13752TIP3    H262672   3.092   5.076  13.354 -1.2959  0.5097 -0.5358
13753TIP3   OH262673   4.547   5.451   0.214  0.5600 -0.3807  0.3538
13753TIP3    H162674   4.592   5.492   0.288  1.5888 -0.0547 -0.4216
13753TIP3    H262675   4.555   5.357   0.230  0.0776 -0.3044  1.0523
13754TIP3   OH262676   4.729   0.730  15.106 -0.5441  0.0812 -0.1858
13754TIP3    H162677   4.635   0.741  15.094 -0.5081  1.0575  0.3556
13754TIP3    H262678   4.768   0.808  15.068  0.0017  0.0142  0.2250
13755TIP3   OH262679   1.998   3.717   1.231  0.3903  0.5489 -0.0151
13755TIP3    H162680   1.954   3.799   1.209 -0.5650  0.0986  0.1353
13755TIP3    H262681   2.086   3.743   1.257  0.2072  1.4909 -0.2838
13756TIP3   OH262682   1.700   6.285   1.710 -0.1866  0.2443 -0.0633
13756TIP3    H162683   1.760   6.285   1.785 -1.1039  1.5787  0.6923
13756TIP3    H262684   1.616   6.311   1.746 -1.2457 -1.5294 -1.1272
13757TIP3   OH262685   2.782   5.092   1.931  0.1140 -0.4758  0.1703
13757TIP3    H162686   2.755   5.107   1.841  0.1236 -0.0563  0.2361
13757TIP3    H262687   2.751   5.169   1.979 -0.2898 -0.9048  0.6125
13758TIP3   OH262688   5.115   4.196   4.043  0.1174  0.0574 -0.3926
13758TIP3    H162689   5.066   4.223   4.120  1.0132  2.8806 -0.6712
13758TIP3    H262690   5.180   4.134   4.076  0.3342  1.0323  1.1092
13759TIP3   OH262691   2.363   3.987   1.088  0.3079 -0.5079  0.3605
13759TIP3    H162692   2.271   3.977   1.112  0.5318  0.3179  1.6761
13759TIP3    H262693   2.364   4.061   1.027  0.1745  0.0172  0.9800
13760TIP3   OH262694   3.771   0.747  14.604  0.0620  0.3313 -0.2678
13760TIP3    H162695   3.852   0.770  14.650 -0.2310  2.2402 -0.5888
13760TIP3    H262696   3.735   0.832  14.576 -1.6840 -0.5172 -0.7508
13761TIP3   OH262697   3.018   2.966   4.952  0.6991  0.1826 -0.1492
13761TIP3    H162698   3.028   2.983   4.858 -0.7778  2.3483  0.0380
13761TIP3    H262699   3.104   2.987   4.989  0.5415  1.9158 -0.7015
13762TIP3   OH262700   3.727   2.558  15.201  0.0445  0.0975  0.0741
13762TIP3    H162701   3.725   2.494  15.131 -2.1125 -1.1167  1.1586
13762TIP3    H262702   3.785   2.520  15.267 -2.0156 -1.3525  1.1615
13763TIP3   OH262703   5.488   2.101  15.176  0.3945  0.6387 -0.0500
13763TIP3    H162704   5.553   2.167  15.200 -0.1213  0.8694  0.7725
13763TIP3    H262705   5.489   2.099  15.080  1.0134  1.2301 -0.0621
13764TIP3   OH262706   4.032   1.325  10.832  0.8476  0.6217  0.4101
13764TIP3    H162707   4.052   1.249  10.777 -1.6397 -1.4085  2.0997
13764TIP3    H262708   3.937   1.324  10.840  0.8798  2.9285  1.9156
13765TIP3   OH262709   0.491   1.276  11.290  0.1556 -0.3465 -0.0024
13765TIP3    H162710   0.548   1.309  11.221  1.2413 -0.7959  0.6582
13765TIP3    H262711   0.482   1.183  11.273 -0.9936 -0.1619 -0.5140
13766TIP3   OH262712   6.119   3.409  17.094 -0.2858  0.0115 -0.3729
13766TIP3    H162713   6.072   3.328  17.073  1.2997 -0.5614 -2.0336
13766TIP3    H262714   6.112   3.462  17.014 -0.9351  1.3646  0.5422
13767TIP3   OH262715   6.354   1.458  13.858  0.6739  0.1299 -0.1116
13767TIP3    H162716   6.442   1.484  13.885  0.6108  1.1893 -0.8562
13767TIP3    H262717   6.335   1.513  13.782 -0.5276 -0.2740 -0.1247
13768TIP3   OH262718   2.961   6.212  15.770  0.1215  0.0787 -0.5790
13768TIP3    H162719   2.939   6.155  15.696 -1.5053 -2.1116  1.4367
13768TIP3    H262720   3.049   6.186  15.796 -0.7394 -1.9665  0.5577
13769TIP3   OH262721   2.942   0.702  12.992 -0.0436  0.5965 -0.6050
13769TIP3    H162722   2.928   0.666  12.905  0.5168  0.6157 -0.7062
13769TIP3    H262723   2.854   0.722  13.024 -0.2579  0.5184 -1.1330
13770TIP3   OH262724   1.598   5.751  16.185  0.1910 -0.3170 -0.1644
13770TIP3    H162725   1.557   5.738  16.270 -3.8467 -1.1933 -1.9866
13770TIP3    H262726   1.596   5.664  16.144  1.2905  0.2328 -1.4723
13771TIP3   OH262727   4.234   5.733   1.178  0.3322  0.5560 -0.0078
13771TIP3    H162728   4.158   5.785   1.154  0.5958  0.5436 -0.9349
13771TIP3    H262729   4.285   5.789   1.236  0.3004  1.0954 -0.4961
13772TIP3   OH262730   3.944   1.288  12.733 -0.3104  0.3210 -0.1904
13772TIP3    H162731   4.035   1.269  12.711 -0.0571  1.5084 -0.2426
13772TIP3    H262732   3.893   1.229  12.678  0.4358 -1.2769  0.7656
13773TIP3   OH262733   2.286   3.359  16.793  0.4287 -0.5218  0.0202
13773TIP3    H162734   2.197   3.393  16.787  0.9625  0.9757  0.1815
13773TIP3    H262735   2.307   3.364  16.886  1.0278  0.0967 -0.1431
13774TIP3   OH262736   6.682   5.168   2.214  0.2893  0.8601 -0.0279
13774TIP3    H162737   6.748   5.111   2.253 -0.3821  0.7432  1.0049
13774TIP3    H262738   6.639   5.113   2.148 -0.3782  0.1051  0.9853
13775TIP3   OH262739   1.480   3.705   6.403  0.2411 -0.5454 -0.1220
13775TIP3    H162740   1.435   3.677   6.483 -1.2241  0.1638 -0.6668
13775TIP3    H262741   1.524   3.626   6.372 -1.8430 -1.6948 -0.3297
13776TIP3   OH262742   2.261   4.078   5.138  0.2682 -0.4690 -0.3485
13776TIP3    H162743   2.224   4.163   5.112  1.2852  0.6819  1.6938
13776TIP3    H262744   2.262   4.081   5.234  0.5931 -2.7081 -0.2375
13777TIP3   OH262745   0.204   0.235  14.216 -0.2545  0.2870 -0.4684
13777TIP3    H162746   0.186   0.142  14.225  0.8319 -0.0687 -1.8290
13777TIP3    H262747   0.155   0.262  14.139  0.4190  0.5712 -0.8013
13778TIP3   OH262748   3.885   1.930  16.836  0.1753 -0.0999 -0.2033
13778TIP3    H162749   3.935   2.006  16.867 -1.6486  1.0789 -0.0057
13778TIP3    H262750   3.898   1.930  16.741  0.1983  0.4675 -0.2040
13779TIP3   OH262751   3.028   0.369  13.560  0.2981 -0.2515  0.2814
13779TIP3    H162752   3.051   0.297  13.502  0.9813  0.3456 -0.2190
13779TIP3    H262753   3.067   0.446  13.518  0.2527  0.2877  1.2062
13780TIP3   OH262754   1.489   4.141  15.061  0.0595 -0.7357  0.3689
13780TIP3    H162755   1.523   4.071  15.005  0.3015 -1.4014  1.3222
13780TIP3    H262756   1.540   4.218  15.037 -0.3232 -0.8332 -0.8137
13781TIP3   OH262757   0.634   4.211  15.064  0.3668  0.0416  0.5050
13781TIP3    H162758   0.678   4.150  15.124 -1.0637 -1.7269 -0.1549
13781TIP3    H262759   0.692   4.216  14.988  1.1395  0.6081  1.1055
13782TIP3   OH262760   4.205   3.382   5.394  0.3197  0.4873  0.0090
13782TIP3    H162761   4.172   3.323   5.327 -0.0021 -1.4439  1.7480
13782TIP3    H262762   4.126   3.410   5.442  0.7111  0.1647  0.8585
13783TIP3   OH262763   5.326   3.909  15.323  0.3090  0.2759  0.7132
13783TIP3    H162764   5.333   4.004  15.334 -0.9654  0.3006  1.5976
13783TIP3    H262765   5.397   3.886  15.264 -0.5516  2.0691 -1.1715
13784TIP3   OH262766   5.938   0.357   2.599  0.3839  0.4502 -0.8209
13784TIP3    H162767   5.938   0.399   2.685 -0.8160 -1.0460 -0.0396
13784TIP3    H262768   6.029   0.362   2.570  0.8663  0.7648  0.6443
13785TIP3   OH262769   6.206   4.511   3.733  0.1568  0.2332 -0.4217
13785TIP3    H162770   6.169   4.439   3.785 -0.0674  0.1794 -0.6496
13785TIP3    H262771   6.297   4.518   3.761 -0.6298  2.0239  1.9854
13786TIP3   OH262772   2.399   3.361  15.914 -0.2868 -0.2481 -0.4039
13786TIP3    H162773   2.491   3.344  15.933 -0.1467  1.5492  0.7080
13786TIP3    H262774   2.399   3.441  15.862 -1.1961 -0.5829 -0.9427
13787TIP3   OH262775   6.205   0.513   0.263  0.1146  0.1344 -0.2190
13787TIP3    H162776   6.271   0.565   0.308  0.5192 -0.8444  0.3552
13787TIP3    H262777   6.256   0.444   0.219 -0.2990  0.8630 -1.9106
13788TIP3   OH262778   0.379   1.317   5.599  0.2058  0.2184 -0.0472
13788TIP3    H162779   0.448   1.251   5.598  1.4156  1.3871  1.7375
13788TIP3    H262780   0.365   1.338   5.506  2.2388 -0.0735 -0.4743
13789TIP3   OH262781   5.245   2.908  12.592  0.1037 -0.7839 -0.1730
13789TIP3    H162782   5.230   2.917  12.498  0.5269 -1.0307 -0.2677
13789TIP3    H262783   5.172   2.854  12.623 -0.0092 -0.7435 -0.3685
13790TIP3   OH262784   2.596   5.148  11.882  0.2038 -0.1769  0.0188
13790TIP3    H162785   2.512   5.113  11.913  0.6511  0.2187  1.8051
13790TIP3    H262786   2.650   5.152  11.961  0.9762  2.2421 -0.5519
13791TIP3   OH262787   1.495   0.123   1.323 -0.5819 -0.9817  0.6944
13791TIP3    H162788   1.478   0.118   1.229  0.2913  1.6320  0.3194
13791TIP3    H262789   1.513   0.032   1.348 -1.9028 -1.9141 -1.4050
13792TIP3   OH262790   0.464   0.509   0.171  0.3274 -0.1324 -0.2540
13792TIP3    H162791   0.512   0.558   0.104 -0.1117  0.0170 -0.4700
13792TIP3    H262792   0.372   0.517   0.144  0.2042 -0.6073  0.0199
13793TIP3   OH262793   5.918   6.417   1.914 -0.0132  0.1633  0.3262
13793TIP3    H162794   5.882   6.345   1.863  0.3969 -0.7105  1.2287
13793TIP3    H262795   6.012   6.398   1.919 -0.1526 -0.2411  2.0684
13794TIP3   OH262796   2.497   4.411   1.139 -0.5404 -0.0479 -0.1771
13794TIP3    H162797   2.564   4.343   1.141  0.7011  1.0987  1.8254
13794TIP3    H262798   2.437   4.388   1.210  0.2527  1.2225  0.9460
13795TIP3   OH262799   3.452   4.046  14.310  0.2297 -0.1928  0.1740
13795TIP3    H162800   3.386   3.982  14.284  0.3377  0.0732 -0.7981
13795TIP3    H262801   3.535   4.001  14.300  0.1976 -0.6392  1.7282
13796TIP3   OH262802   0.634   0.084  11.255 -0.0299 -0.4016 -0.6022
13796TIP3    H162803   0.542   0.106  11.270  0.2353 -0.0736  0.7143
13796TIP3    H262804   0.667   0.059  11.342  2.1104  3.3168 -0.1213
13797TIP3   OH262805   0.582   3.258  17.109  0.3038 -0.3039  0.1880
13797TIP3    H162806   0.494   3.241  17.143  0.4801 -0.6960  0.4505
13797TIP3    H262807   0.635   3.273  17.187  0.2380  1.0932 -0.0183
13798TIP3   OH262808   1.679   3.836  10.682 -0.6853  0.0100 -0.1675
13798TIP3    H162809   1.772   3.839  10.658 -0.4186  0.9611  0.8801
13798TIP3    H262810   1.637   3.902  10.628 -0.6883 -0.1523 -0.3649
13799TIP3   OH262811   1.776   3.714  11.284 -0.1517  0.0245  0.2262
13799TIP3    H162812   1.723   3.642  11.248 -0.9696  0.4210  0.6013
13799TIP3    H262813   1.847   3.725  11.221 -0.6363 -0.3859 -0.4109
13800TIP3   OH262814   4.455   3.946  17.211 -0.3168 -0.0708  0.0399
13800TIP3    H162815   4.481   3.928  17.120 -0.2142 -0.2833  0.1118
13800TIP3    H262816   4.378   3.892  17.225  0.5190 -1.1616  0.5491
13801TIP3   OH262817   3.732   6.496  16.858  0.5028  0.2845 -0.0159
13801TIP3    H162818   3.690   6.441  16.792 -1.7396  3.2426 -1.2853
13801TIP3    H262819   3.662   6.513  16.921  1.5675  0.5459  1.1227
13802TIP3   OH262820   4.276   1.915  15.683 -0.4859  0.7375  0.5069
13802TIP3    H162821   4.188   1.904  15.646 -0.1967  0.0536 -0.0014
13802TIP3    H262822   4.293   1.833  15.729 -0.0310  0.7883  0.4333
13803TIP3   OH262823   1.702   0.355   5.643  0.7370  0.9395 -0.1368
13803TIP3    H162824   1.641   0.428   5.651  0.3427  0.6253 -0.1935
13803TIP3    H262825   1.769   0.371   5.709  0.8531  1.5381 -0.3921
13804TIP3   OH262826   1.610   0.800   2.279 -0.5210 -0.4906  0.6666
13804TIP3    H162827   1.663   0.859   2.334  1.9332 -2.8037  1.0021
13804TIP3    H262828   1.665   0.784   2.202 -0.3343 -3.4750  1.3084
13805TIP3   OH262829   3.426   1.384  11.252 -0.0373  0.3273  0.0719
13805TIP3    H162830   3.442   1.349  11.340  0.4638 -1.1717 -0.5717
13805TIP3    H262831   3.495   1.449  11.238  0.9307 -0.6501  0.1683
13806TIP3   OH262832   3.570   6.249   0.549  0.4431  0.1491  0.5072
13806TIP3    H162833   3.538   6.190   0.617  0.9071  0.6004  1.1242
13806TIP3    H262834   3.661   6.223   0.534  0.5710  0.5372  0.5959
13807TIP3   OH262835   6.217   2.674  13.858  0.1079 -0.1502  0.1124
13807TIP3    H162836   6.165   2.743  13.898  0.2587 -0.5604  1.0474
13807TIP3    H262837   6.301   2.715  13.838  0.8977 -0.5082  2.4451
13808TIP3   OH262838   3.299   4.808   0.371  0.0684 -0.1215  0.4255
13808TIP3    H162839   3.223   4.867   0.363 -0.8496 -1.1089  1.4419
13808TIP3    H262840   3.318   4.781   0.281 -0.5584  0.4200  0.1187
13809TIP3   OH262841   2.816   2.815   2.069 -0.4263 -0.2965 -0.4377
13809TIP3    H162842   2.815   2.907   2.044  1.1602 -0.7317 -2.3534
13809TIP3    H262843   2.790   2.768   1.990 -0.8633 -1.5165  0.4018
13810TIP3   OH262844   2.791   6.347   3.513  0.5502 -0.1871  0.2142
13810TIP3    H162845   2.747   6.409   3.572 -0.2077 -0.9134  0.4313
13810TIP3    H262846   2.873   6.326   3.557 -0.9965 -2.4765  2.1948
13811TIP3   OH262847   1.014   3.897   2.779  0.5709  0.1183 -0.2341
13811TIP3    H162848   0.962   3.969   2.815 -0.5402 -0.3557 -0.8506
13811TIP3    H262849   0.992   3.896   2.686  2.6012  0.6549 -0.7634
13812TIP3   OH262850   0.965   4.317  17.265 -0.6680  0.1047 -0.1527
13812TIP3    H162851   1.035   4.343  17.205 -0.3016 -0.9014 -0.1692
13812TIP3    H262852   0.999   4.340  17.352 -1.0619  1.2490 -0.2762
13813TIP3   OH262853   2.268   3.215  11.833 -0.1893 -0.0359  0.0772
13813TIP3    H162854   2.305   3.127  11.848  1.9842  1.3056  4.3182
13813TIP3    H262855   2.329   3.256  11.771 -1.6661 -1.6089 -2.5811
13814TIP3   OH262856   2.714   5.474   5.540  0.4934 -0.4921  0.0421
13814TIP3    H162857   2.733   5.383   5.516 -0.8383 -0.8388  0.2147
13814TIP3    H262858   2.648   5.467   5.609 -0.4842  0.6239 -0.7420
13815TIP3   OH262859   3.839   4.921  10.838 -0.7649 -0.0370 -0.0783
13815TIP3    H162860   3.832   4.827  10.850  0.3160 -0.0524  0.5220
13815TIP3    H262861   3.931   4.941  10.851 -0.8201  0.9968 -1.0414
13816TIP3   OH262862   1.051   2.235   0.971  0.4517  0.0245  0.3843
13816TIP3    H162863   1.047   2.211   1.063  0.9442 -0.4749  0.2790
13816TIP3    H262864   1.134   2.199   0.940 -0.2244 -0.8037 -0.5243
13817TIP3   OH262865   5.306   3.319   5.346 -0.0795  0.0309 -0.1873
13817TIP3    H162866   5.366   3.317   5.420  1.5698  3.7730 -1.1707
13817TIP3    H262867   5.239   3.383   5.371 -0.1636  0.4686 -1.4393
13818TIP3   OH262868   5.595   2.641   5.488  0.1610  0.4377  0.8533
13818TIP3    H162869   5.660   2.572   5.501 -0.0461  0.1897  0.6005
13818TIP3    H262870   5.641   2.708   5.438  0.0814  0.0264  0.2098
13819TIP3   OH262871   5.434   1.450   5.901  0.3636  0.1872 -0.2033
13819TIP3    H162872   5.426   1.363   5.862  0.5340  0.4770 -0.9053
13819TIP3    H262873   5.344   1.477   5.917  0.1874  0.6771 -1.8172
13820TIP3   OH262874   1.051   3.005  16.710  0.5178  0.6590 -0.3931
13820TIP3    H162875   1.077   2.940  16.776  0.1721 -0.2934 -1.1621
13820TIP3    H262876   1.041   3.086  16.758  1.1626  0.1844  0.5726
13821TIP3   OH262877   3.110   6.259  16.151 -0.2908  0.1625 -0.0495
13821TIP3    H162878   3.020   6.253  16.186  0.1005 -0.3472  0.9214
13821TIP3    H262879   3.151   6.177  16.180 -0.3505 -1.0310 -2.9932
13822TIP3   OH262880   4.917   6.204   5.938 -0.1658  0.4955  0.5547
13822TIP3    H162881   4.853   6.197   6.009  0.1252  1.5189  0.9379
13822TIP3    H262882   4.997   6.164   5.974 -0.1936  0.4680  0.5860
13823TIP3   OH262883   1.255   3.820  11.304 -0.5817 -0.2311 -0.5168
13823TIP3    H162884   1.310   3.819  11.382 -1.4061  1.9911  0.1552
13823TIP3    H262885   1.278   3.903  11.260  0.0794 -1.5434 -2.8319
13824TIP3   OH262886   5.164   3.354  11.907 -0.6825  0.1002 -0.1378
13824TIP3    H162887   5.185   3.307  11.826  0.8952 -0.5410  0.6107
13824TIP3    H262888   5.070   3.339  11.919 -0.3590 -2.4542 -0.2202
13825TIP3   OH262889   3.790   2.074   3.136 -0.7778 -0.1494  0.2017
13825TIP3    H162890   3.733   2.119   3.198 -0.1894  1.9501 -0.6859
13825TIP3    H262891   3.878   2.099   3.162 -0.5378  1.8966 -2.1372
13826TIP3   OH262892   5.399   5.065  14.178  0.4658 -0.2345  0.3402
13826TIP3    H162893   5.387   5.129  14.247  1.4220  0.6960 -0.3242
13826TIP3    H262894   5.485   5.026  14.196  1.1482  0.6776 -0.8104
13827TIP3   OH262895   5.889   5.856   1.612  0.0116  0.8154  0.6024
13827TIP3    H162896   5.841   5.786   1.569 -0.4158  0.2590  1.9286
13827TIP3    H262897   5.823   5.899   1.667  0.4319  1.8064  0.3459
13828TIP3   OH262898   1.042   1.444   1.195  0.3488  0.0954  0.3720
13828TIP3    H162899   1.064   1.381   1.127 -1.3544  0.0508 -0.1722
13828TIP3    H262900   0.953   1.423   1.220 -0.8637  3.1142 -0.8364
13829TIP3   OH262901   6.733   3.580   3.303 -0.3483  0.1872  0.6809
13829TIP3    H162902   6.790   3.578   3.380 -0.6840  1.6769  1.0089
13829TIP3    H262903   6.657   3.631   3.332 -0.6357  0.4832 -0.5438
13830TIP3   OH262904   1.384   3.498  14.584 -0.2814  0.1707 -0.2020
13830TIP3    H162905   1.410   3.564  14.519 -1.2856 -0.0412 -0.8389
13830TIP3    H262906   1.329   3.437  14.536  0.8585 -1.3173  0.3227
13831TIP3   OH262907   0.133   0.214   5.879 -0.0373  0.2710  0.0175
13831TIP3    H162908   0.221   0.185   5.903  0.3532  0.3988 -1.1988
13831TIP3    H262909   0.145   0.269   5.802 -0.9816  2.0827  1.1090
13832TIP3   OH262910   0.500   0.579  14.734 -0.6742 -0.1599 -0.0327
13832TIP3    H162911   0.581   0.551  14.692 -0.7177 -1.5590  0.7753
13832TIP3    H262912   0.454   0.628  14.666  1.5079  2.0748 -0.0628
13833TIP3   OH262913   3.424   2.947  14.005  0.4424 -0.3032 -0.0227
13833TIP3    H162914   3.410   2.872  13.947 -1.4403 -0.5467  0.6769
13833TIP3    H262915   3.359   2.936  14.074 -0.7312  2.6232 -0.5621
13834TIP3   OH262916   4.640   5.396  12.716 -0.0664  0.4099  1.0665
13834TIP3    H162917   4.568   5.428  12.770 -0.9353  0.5971 -0.1898
13834TIP3    H262918   4.651   5.462  12.648  0.4334 -0.2605  0.4800
13835TIP3   OH262919   6.197   2.779   4.645  0.3453 -0.1008 -0.1777
13835TIP3    H162920   6.202   2.839   4.571 -0.5212 -0.0702 -0.2275
13835TIP3    H262921   6.236   2.698   4.612 -1.4598 -0.6113 -1.2496
13836TIP3   OH262922   0.905   1.405   3.001 -0.2393 -0.9007  0.5472
13836TIP3    H162923   0.863   1.478   3.047 -0.7392  0.2141 -1.5775
13836TIP3    H262924   0.950   1.445   2.927 -0.0060 -2.6853 -0.3278
13837TIP3   OH262925   4.332   6.673  16.481 -0.3052 -0.1050  1.6214
13837TIP3    H162926   4.279   6.660  16.402 -0.1015  0.1314  1.4431
13837TIP3    H262927   4.286   6.625  16.550 -1.3747  1.0175  1.7242
13838TIP3   OH262928   4.781   3.045   5.838  0.2570 -0.1639  0.3496
13838TIP3    H162929   4.809   3.056   5.748  1.8769  1.4851  1.0081
13838TIP3    H262930   4.852   2.995   5.879 -0.0361 -0.1208  0.9180
13839TIP3   OH262931   2.915   5.140   2.706 -0.2800 -0.4488 -0.0592
13839TIP3    H162932   3.001   5.156   2.668 -0.8084 -0.3142 -1.2459
13839TIP3    H262933   2.891   5.222   2.747  0.5331 -0.7586  1.0759
13840TIP3   OH262934   3.127   5.944  16.997 -0.1135 -0.1987  0.1832
13840TIP3    H162935   3.141   5.971  16.906 -2.6174 -0.8628 -0.4807
13840TIP3    H262936   3.215   5.934  17.033  0.9359  1.1128 -1.8373
13841TIP3   OH262937   0.283   5.809   0.878  0.0243  0.1481 -0.1466
13841TIP3    H162938   0.236   5.726   0.869  0.7485 -0.1700 -1.0798
13841TIP3    H262939   0.375   5.786   0.873  0.2669  0.9091  0.5254
13842TIP3   OH262940   3.482   6.258  13.468 -0.3421  0.4834 -0.3993
13842TIP3    H162941   3.418   6.255  13.397  2.0088 -0.7495 -2.6521
13842TIP3    H262942   3.493   6.167  13.495 -0.0650  0.7600  0.4682
13843TIP3   OH262943   2.965   0.351   4.518  0.0281  0.5543 -0.0068
13843TIP3    H162944   2.996   0.390   4.436 -1.1036  1.5844  0.0207
13843TIP3    H262945   2.967   0.257   4.503 -0.5515  0.7472 -1.3702
13844TIP3   OH262946   1.425   4.925  13.671  0.0239 -0.5065 -0.0227
13844TIP3    H162947   1.442   4.874  13.592 -0.7384 -0.2367 -0.3710
13844TIP3    H262948   1.358   4.875  13.719  0.2627 -0.5193  0.3020
13845TIP3   OH262949   0.302   3.884   4.718 -0.5907  0.3863 -0.8376
13845TIP3    H162950   0.211   3.906   4.699 -0.6011 -0.0453 -1.3116
13845TIP3    H262951   0.302   3.862   4.811 -1.0956 -0.2024 -0.9678
13846TIP3   OH262952   4.417   2.437  12.918 -0.5261 -0.2776 -0.0326
13846TIP3    H162953   4.510   2.460  12.922  0.0362 -2.4828  0.4927
13846TIP3    H262954   4.386   2.446  13.008 -0.3191 -1.4416  0.1630
13847TIP3   OH262955   5.434   5.152  16.741 -0.7161 -0.2104  0.3427
13847TIP3    H162956   5.466   5.074  16.787 -0.6457  0.0109  0.6728
13847TIP3    H262957   5.341   5.158  16.766 -0.3858  0.6082  1.4584
13848TIP3   OH262958   2.244   4.348  12.795  0.2757 -0.1724 -0.5315
13848TIP3    H162959   2.309   4.418  12.804  0.5777 -0.3511 -1.2557
13848TIP3    H262960   2.240   4.331  12.701 -0.3144 -0.6424 -0.4240
13849TIP3   OH262961   6.320   0.751  14.947  0.4143  0.1658  0.3581
13849TIP3    H162962   6.394   0.776  14.892 -0.7543  0.3943 -1.1796
13849TIP3    H262963   6.357   0.691  15.011  2.2892  1.7390  0.8596
13850TIP3   OH262964   5.128   5.775  11.383 -0.1948 -0.3816 -0.3155
13850TIP3    H162965   5.122   5.683  11.357  0.2415 -0.4217 -0.2851
13850TIP3    H262966   5.065   5.819  11.326  0.1813 -0.5845 -0.9073
13851TIP3   OH262967   0.633   5.624  12.001 -0.0141  0.0481 -0.4152
13851TIP3    H162968   0.687   5.702  11.993 -0.0359  0.0517 -0.5306
13851TIP3    H262969   0.693   5.551  11.987  0.0469  0.0365 -0.0982
13852TIP3   OH262970   6.089   0.747   3.512  0.4799  0.3309 -0.0014
13852TIP3    H162971   6.150   0.807   3.555  1.5719 -1.1360  0.5638
13852TIP3    H262972   6.072   0.679   3.578 -0.6641 -0.0322 -0.6502
13853TIP3   OH262973   0.064   5.873   5.527 -0.3509 -0.0958 -0.4704
13853TIP3    H162974   0.019   5.823   5.458 -0.1350 -0.3871 -0.3999
13853TIP3    H262975   0.102   5.806   5.584  0.1220  0.1521 -0.4951
13854TIP3   OH262976   5.743   1.370   5.047  0.1553 -0.1725 -0.0068
13854TIP3    H162977   5.707   1.347   4.961 -0.6861  2.0941 -0.3319
13854TIP3    H262978   5.837   1.374   5.033 -0.0091  0.8046 -1.0616
13855TIP3   OH262979   4.908   3.653  11.486 -0.2957  0.3296  0.5818
13855TIP3    H162980   4.991   3.607  11.492 -0.9549 -0.9990  0.0174
13855TIP3    H262981   4.928   3.743  11.514  1.5667  0.3724 -0.7196
13856TIP3   OH262982   3.701   0.289  14.617  0.2893  0.2213 -0.6305
13856TIP3    H162983   3.637   0.235  14.571 -0.1388  1.2199 -1.2435
13856TIP3    H262984   3.756   0.226  14.665 -1.5377 -0.6264  0.4421
13857TIP3   OH262985   0.376   4.510  12.045  0.0550  0.7930 -0.0167
13857TIP3    H162986   0.461   4.541  12.014  0.6714  0.4743  1.2899
13857TIP3    H262987   0.381   4.415  12.039  1.0633  0.5557  3.0630
13858TIP3   OH262988   5.669   0.487  11.636  0.0958  0.7744 -0.0406
13858TIP3    H162989   5.690   0.479  11.729  2.1444  1.1565 -0.4279
13858TIP3    H262990   5.718   0.563  11.606 -0.9737  0.9953 -1.3314
13859TIP3   OH262991   4.023   1.144   4.914  0.9462 -0.2885  0.4489
13859TIP3    H162992   3.929   1.131   4.910  0.6789  1.5162 -0.6763
13859TIP3    H262993   4.054   1.081   4.979 -0.9364 -1.3261  0.4127
13860TIP3   OH262994   5.521   2.766  16.216 -0.0207 -0.3548 -0.7188
13860TIP3    H162995   5.498   2.777  16.308  0.9661  1.6033 -0.6523
13860TIP3    H262996   5.518   2.671  16.202 -0.6499 -0.6613  1.1953
13861TIP3   OH262997   2.536   6.736  12.231  0.3538 -0.1293 -0.5132
13861TIP3    H162998   2.444   6.714  12.247  0.3512  0.8350  1.0966
13861TIP3    H262999   2.556   6.801  12.298  2.6293 -1.3886  0.1327
13862TIP3   OH263000   4.081   5.609  15.880 -0.4320  0.1642 -0.2168
13862TIP3    H163001   4.127   5.683  15.842 -1.0116  1.6610  1.7936
13862TIP3    H263002   3.991   5.619  15.851 -0.1933 -0.7553 -1.3169
13863TIP3   OH263003   2.749   1.178  10.585 -0.1790  0.3606 -0.7101
13863TIP3    H163004   2.802   1.249  10.548 -1.1459  0.8738 -1.1465
13863TIP3    H263005   2.809   1.104  10.591  0.6144  0.9569 -1.0885
13864TIP3   OH263006   0.718   0.569  16.927 -0.2241 -0.3160  0.1780
13864TIP3    H163007   0.779   0.639  16.948  0.0248 -0.1682 -0.9997
13864TIP3    H263008   0.636   0.596  16.968 -0.2113  0.8142 -0.5229
13865TIP3   OH263009   2.594   2.254   4.083  0.3373  0.3411  0.0943
13865TIP3    H163010   2.512   2.230   4.126 -0.9387 -2.4174 -3.4319
13865TIP3    H263011   2.660   2.197   4.125 -0.6736 -1.5398 -0.7379
13866TIP3   OH263012   3.759   2.915  15.235 -1.1061  1.1156  0.5657
13866TIP3    H163013   3.763   2.829  15.275 -0.3173  0.8404 -0.0621
13866TIP3    H263014   3.792   2.975  15.302 -0.2124  0.7199  0.5008
13867TIP3   OH263015   0.798   1.009   5.422 -0.0735 -0.4147 -0.0182
13867TIP3    H163016   0.789   0.945   5.493  2.1399 -0.7664  0.0322
13867TIP3    H263017   0.858   0.967   5.360 -1.2645  0.2520 -1.6915
13868TIP3   OH263018   0.203   5.007  14.686 -0.1143  0.3871  0.2201
13868TIP3    H163019   0.112   5.035  14.684 -0.1122  0.3871 -0.7937
13868TIP3    H263020   0.252   5.081  14.648  0.1932  0.0483 -0.0625
13869TIP3   OH263021   2.225   0.057   5.758 -0.4506 -0.2821 -0.3875
13869TIP3    H163022   2.267   0.122   5.701 -1.6323  1.5752  0.7625
13869TIP3    H263023   2.159   0.015   5.703 -1.4007  1.3022 -0.5172
13870TIP3   OH263024   3.848   0.183   4.263 -0.2958 -0.2277 -0.3108
13870TIP3    H163025   3.912   0.172   4.192 -0.3988 -0.2126 -0.4051
13870TIP3    H263026   3.890   0.247   4.321  1.4046 -2.8188  1.5214
13871TIP3   OH263027   5.688   2.919  12.420 -0.2890  0.2266  0.3026
13871TIP3    H163028   5.720   2.909  12.331  0.0312 -1.0703  0.5404
13871TIP3    H263029   5.722   3.003  12.449  2.4996 -0.8065  0.3460
13872TIP3   OH263030   1.094   6.716   2.956 -0.7314 -0.1901 -0.0297
13872TIP3    H163031   1.044   6.766   2.892 -0.1858  0.9553  0.4006
13872TIP3    H263032   1.145   6.782   3.004  2.8767 -1.3779 -1.8525
13873TIP3   OH263033   6.557   2.373   2.614  0.1060  0.4778  0.0676
13873TIP3    H163034   6.483   2.329   2.656 -1.0196  1.0025 -1.3080
13873TIP3    H263035   6.517   2.444   2.563  1.5244  0.5489 -0.9896
13874TIP3   OH263036   3.204   6.645   1.332  0.2942 -0.1321  0.3553
13874TIP3    H163037   3.252   6.613   1.408  1.2035 -0.5460 -0.3841
13874TIP3    H263038   3.264   6.705   1.288 -0.8336  1.4376  0.8621
13875TIP3   OH263039   6.660   1.233  13.712  0.2202  0.0750  0.4877
13875TIP3    H163040   6.644   1.325  13.692 -0.6719 -0.1846 -0.0275
13875TIP3    H263041   6.740   1.212  13.664  0.5561  0.6396  0.7908
13876TIP3   OH263042   5.094   3.109  15.911  0.2456 -0.1291  0.2004
13876TIP3    H163043   5.077   3.203  15.924  0.5024 -0.0404 -0.0840
13876TIP3    H263044   5.064   3.092  15.821 -1.4896 -0.7257  0.8466
13877TIP3   OH263045   5.641   6.374   1.306 -0.0742 -0.0435 -0.2571
13877TIP3    H163046   5.563   6.378   1.361 -0.3232  0.9753 -0.6611
13877TIP3    H263047   5.616   6.418   1.225  0.9234  0.3424 -0.3697
13878TIP3   OH263048   4.256   5.381  11.987 -0.1709  0.0168  0.9806
13878TIP3    H163049   4.270   5.458  12.043  0.1372  0.9041 -0.2561
13878TIP3    H263050   4.344   5.357  11.957 -0.4502  0.4337 -0.2166
13879TIP3   OH263051   4.801   2.290  16.288 -0.1451  0.6027  0.4371
13879TIP3    H163052   4.807   2.216  16.349  0.7377 -0.3319 -0.7270
13879TIP3    H263053   4.806   2.368  16.344  1.7297 -0.2076  1.5097
13880TIP3   OH263054   4.303   3.875   2.483 -0.2846  0.4391 -0.1307
13880TIP3    H163055   4.273   3.803   2.428 -0.9113  0.6733 -0.1127
13880TIP3    H263056   4.249   3.868   2.562  0.5411  0.1614  0.4159
13881TIP3   OH263057   2.185   0.195   2.430 -0.2493  0.2646 -0.4885
13881TIP3    H163058   2.195   0.100   2.425 -0.4183  0.2736 -1.1068
13881TIP3    H263059   2.092   0.210   2.418 -0.8956  0.3093  3.2843
13882TIP3   OH263060   3.913   3.530   2.813 -0.0783 -0.5263  0.5613
13882TIP3    H163061   3.827   3.510   2.778  0.6695 -2.0379 -0.5581
13882TIP3    H263062   3.913   3.490   2.900 -0.3771 -0.8652  0.4082
13883TIP3   OH263063   1.657   5.178   3.480  0.1433  0.1176  0.0805
13883TIP3    H163064   1.704   5.259   3.499 -0.3713  0.5997 -0.6417
13883TIP3    H263065   1.572   5.188   3.523  0.1813 -0.1692  0.2306
13884TIP3   OH263066   3.298   5.619   2.327  0.2325  0.0918  0.4231
13884TIP3    H163067   3.262   5.585   2.245  0.1738  1.9128 -0.3357
13884TIP3    H263068   3.368   5.558   2.349 -0.3864 -0.9751 -0.4570
13885TIP3   OH263069   6.405   0.331   4.410  0.5692 -0.4922 -0.1786
13885TIP3    H163070   6.381   0.247   4.449 -1.0031  1.0902  2.6473
13885TIP3    H263071   6.429   0.386   4.485 -0.3429  2.1388 -1.6700
13886TIP3   OH263072   4.901   4.262   5.056  0.5876  0.5590  0.2346
13886TIP3    H163073   4.896   4.172   5.087 -2.0985  1.3523  2.5750
13886TIP3    H263074   4.984   4.295   5.089  0.0865 -0.1442  2.3187
13887TIP3   OH263075   6.686   6.266  15.633 -0.1692 -0.6298 -0.1005
13887TIP3    H163076   6.719   6.356  15.629  1.3687 -1.0934  1.0969
13887TIP3    H263077   6.615   6.269  15.697  0.1151 -0.3257  0.2039
13888TIP3   OH263078   0.730   0.061  16.238 -0.3966 -0.3623 -0.0648
13888TIP3    H163079   0.727   0.023  16.150  2.6789  0.1930 -0.5019
13888TIP3    H263080   0.674   0.138  16.232 -0.7260 -0.6659 -1.3245
13889TIP3   OH263081   0.270   2.486  11.210  0.0260 -0.3775  0.4861
13889TIP3    H163082   0.362   2.514  11.210 -0.1023  0.1494  2.2013
13889TIP3    H263083   0.224   2.553  11.259 -1.4358 -0.2734 -0.9470
13890TIP3   OH263084   0.189   5.256  11.028  0.1324 -0.1159  0.2002
13890TIP3    H163085   0.267   5.300  11.063 -0.2283  0.4347  0.3228
13890TIP3    H263086   0.190   5.170  11.070 -0.9357  0.9330  2.5490
13891TIP3   OH263087   0.559   1.620   1.844 -0.3534  0.2149  0.3586
13891TIP3    H163088   0.595   1.652   1.926  0.5216  1.3262 -0.4308
13891TIP3    H263089   0.591   1.530   1.837 -1.8204 -0.4972  2.0115
13892TIP3   OH263090   2.325   5.453  16.006 -0.1155 -0.0157  0.1642
13892TIP3    H163091   2.401   5.502  16.038  0.9092 -1.1589 -0.4188
13892TIP3    H263092   2.299   5.499  15.927  0.7168 -0.2744 -0.2756
13893TIP3   OH263093   1.496   3.871   3.577 -0.2343 -0.4062  0.1672
13893TIP3    H163094   1.499   3.885   3.672 -1.3468  2.4066 -0.1080
13893TIP3    H263095   1.430   3.803   3.565 -0.6567 -0.2325  1.3920
13894TIP3   OH263096   0.300   0.773  10.738  0.3745  0.1686 -0.2327
13894TIP3    H163097   0.249   0.829  10.679 -1.5702 -0.2316  0.9625
13894TIP3    H263098   0.251   0.691  10.741  1.3010 -0.3724  0.7060
13895TIP3   OH263099   1.307   2.819  12.925 -0.0889 -0.0654 -0.4182
13895TIP3    H163100   1.301   2.857  12.838 -2.1023 -1.4244 -0.9284
13895TIP3    H263101   1.270   2.731  12.916 -1.5120  0.1945  2.0353
13896TIP3   OH263102   1.057   3.157  11.809  0.0063 -0.1290 -0.2283
13896TIP3    H163103   1.063   3.233  11.867 -0.6907  0.5093 -0.9530
13896TIP3    H263104   1.104   3.184  11.730  0.4913 -0.7827 -0.1658
13897TIP3   OH263105   2.055   2.714   4.623  0.0781  0.1220  0.4716
13897TIP3    H163106   2.092   2.637   4.580 -0.4610 -0.4144  0.9472
13897TIP3    H263107   2.116   2.733   4.694  1.6868  1.8109 -1.2703
13898TIP3   OH263108   4.829   2.739  16.754  0.3206  0.1194 -0.0823
13898TIP3    H163109   4.915   2.755  16.715 -0.2621  0.2427 -1.3695
13898TIP3    H263110   4.775   2.812  16.723 -0.1356  0.3082  1.1120
13899TIP3   OH263111   0.889   1.106   1.322 -0.0234  0.3778  0.9949
13899TIP3    H163112   0.938   1.177   1.363 -0.2396  1.7512 -1.0158
13899TIP3    H263113   0.815   1.148   1.280 -0.7666 -1.1913  0.6444
13900TIP3   OH263114   1.820   3.939   5.444 -0.1372  0.7850 -0.4801
13900TIP3    H163115   1.882   3.984   5.502 -0.4028  0.5360  0.0032
13900TIP3    H263116   1.849   3.847   5.445  0.3895  0.9311 -1.4429
13901TIP3   OH263117   3.821   6.569   3.869  0.1120 -0.3121 -0.1071
13901TIP3    H163118   3.802   6.487   3.822  1.8079 -1.5895  1.3158
13901TIP3    H263119   3.755   6.572   3.938 -0.4143 -0.0745 -0.6109
13902TIP3   OH263120   2.367   4.942  13.287  0.1275 -0.4428  0.2336
13902TIP3    H163121   2.429   4.891  13.339  1.2943 -2.2571 -2.6497
13902TIP3    H263122   2.422   5.001  13.236 -0.8799  0.6025  0.3257
13903TIP3   OH263123   2.228   3.635   0.361  0.2113 -0.2100  0.0444
13903TIP3    H163124   2.234   3.540   0.347  1.4442 -0.2123  0.4451
13903TIP3    H263125   2.297   3.654   0.425 -0.5759  0.8386  0.6163
13904TIP3   OH263126   1.494   3.326   3.174  0.2427 -0.4818  0.7337
13904TIP3    H163127   1.487   3.388   3.246 -0.5404 -0.4443  0.6350
13904TIP3    H263128   1.482   3.378   3.095 -0.0936 -0.7002  0.6357
13905TIP3   OH263129   1.480   2.286  11.548  0.1394  0.3653 -0.0301
13905TIP3    H163130   1.437   2.200  11.553  1.0984 -0.0702  1.1427
13905TIP3    H263131   1.435   2.339  11.614  1.8193 -0.3228  1.7605
13906TIP3   OH263132   3.650   2.235   4.089  0.4025 -0.2580  0.2508
13906TIP3    H163133   3.670   2.222   3.996 -0.6426  0.0524 -0.0295
13906TIP3    H263134   3.698   2.315   4.112 -0.3897  0.4201 -0.3840
13907TIP3   OH263135   6.583   4.919  14.506 -0.6284 -0.3435 -0.7083
13907TIP3    H163136   6.591   4.839  14.558 -1.5230 -0.2275 -0.3707
13907TIP3    H263137   6.581   4.990  14.571  1.1602  0.0657 -1.0426
13908TIP3   OH263138   0.095   0.599  12.648  0.4649  0.1603  0.1536
13908TIP3    H163139   0.095   0.569  12.739  1.6402 -0.1549  0.0666
13908TIP3    H263140   0.084   0.520  12.596  3.7245 -0.2677 -0.0794
13909TIP3   OH263141   1.316   0.381  10.898  0.1777  0.1139 -0.3615
13909TIP3    H163142   1.331   0.338  10.814 -0.1891  0.7135 -0.7348
13909TIP3    H263143   1.227   0.415  10.893 -0.1490 -0.5382  0.5801
13910TIP3   OH263144   4.205   1.541  16.287  0.4115  0.2843  0.1545
13910TIP3    H163145   4.194   1.530  16.381  0.6823 -2.7118 -0.0392
13910TIP3    H263146   4.122   1.578  16.256  0.4660  1.6572  1.5837
13911TIP3   OH263147   5.418   5.579   5.039  0.5825 -0.6714  0.4363
13911TIP3    H163148   5.452   5.625   4.963 -0.2468 -2.3346 -1.0243
13911TIP3    H263149   5.487   5.516   5.062 -0.2782 -2.1291 -0.7849
13912TIP3   OH263150   4.787   0.200   5.688 -0.5191 -0.1560 -0.2419
13912TIP3    H163151   4.861   0.249   5.723 -1.5149 -0.1621  2.0357
13912TIP3    H263152   4.802   0.198   5.593  0.4052  3.1321 -0.2801
13913TIP3   OH263153   2.990   6.277   4.827 -0.6165  0.6095  0.2329
13913TIP3    H163154   3.058   6.294   4.761  0.1773 -1.2556  0.5007
13913TIP3    H263155   3.033   6.223   4.893 -1.8778  0.9690  1.4029
13914TIP3   OH263156   0.797   3.223  14.560  0.2027 -0.3782  0.3751
13914TIP3    H163157   0.792   3.128  14.549  0.0191 -0.2192 -1.0361
13914TIP3    H263158   0.888   3.245  14.543 -0.1166 -0.1102 -1.1025
13915TIP3   OH263159   1.242   4.829  14.502  0.4396  0.3739 -0.2548
13915TIP3    H163160   1.318   4.772  14.503 -0.4379 -0.8420 -0.6606
13915TIP3    H263161   1.189   4.798  14.428 -0.6654  0.9063  0.2804
13916TIP3   OH263162   5.556   2.435  16.226  0.3264 -0.1353  0.1623
13916TIP3    H163163   5.554   2.481  16.142 -1.2182  0.3779  0.4582
13916TIP3    H263164   5.547   2.342  16.203  0.0315 -0.0069 -0.2535
13917TIP3   OH263165   2.814   4.982  11.474 -0.6132 -0.6644 -0.5104
13917TIP3    H163166   2.735   4.928  11.467 -1.2673  0.3641 -1.5169
13917TIP3    H263167   2.830   4.989  11.568 -2.5575  0.2341 -0.1945
13918TIP3   OH263168   5.755   1.731   5.883 -0.2892  0.5073 -0.0215
13918TIP3    H163169   5.765   1.728   5.788  0.0251 -0.7961  0.0253
13918TIP3    H263170   5.720   1.645   5.906 -1.3885  1.1791  0.9444
13919TIP3   OH263171   0.328   0.220   0.475  0.0308 -0.3538 -1.0907
13919TIP3    H163172   0.314   0.173   0.557 -0.1260 -0.4274 -1.1589
13919TIP3    H263173   0.256   0.192   0.419  0.4646 -0.7633 -1.4575
13920TIP3   OH263174   3.856   0.197   1.646 -0.7181  0.0362 -0.1800
13920TIP3    H163175   3.947   0.224   1.639 -0.6415 -0.0304  0.5783
13920TIP3    H263176   3.815   0.234   1.567 -0.2008  0.7203 -0.1419
13921TIP3   OH263177   6.401   6.628   5.462 -0.4185 -0.1211  0.1444
13921TIP3    H163178   6.422   6.537   5.484 -1.9820 -0.4263  0.4343
13921TIP3    H263179   6.476   6.678   5.495  1.8732 -1.5171 -2.4793
13922TIP3   OH263180   5.548   4.998   3.172 -0.5316 -0.6496  0.2517
13922TIP3    H163181   5.492   5.055   3.225 -0.5679 -0.7763  0.3520
13922TIP3    H263182   5.509   4.999   3.085  1.8333  2.9262 -1.0085
13923TIP3   OH263183   6.514   5.615   3.352 -0.7051 -0.1834 -0.2911
13923TIP3    H163184   6.431   5.569   3.344  0.8493 -2.9383 -2.0948
13923TIP3    H263185   6.559   5.600   3.269  2.1027  0.1136  1.0520
13924TIP3   OH263186   1.729   2.089   6.037  0.3540 -0.4035 -0.3687
13924TIP3    H163187   1.669   2.058   5.970  1.5058 -0.5320 -1.3755
13924TIP3    H263188   1.730   2.018   6.102 -0.6313 -0.3530 -0.2794
13925TIP3   OH263189   2.374   2.434   2.976 -0.0812  0.5811 -0.1671
13925TIP3    H163190   2.438   2.363   2.968 -0.0843  0.2705  1.9577
13925TIP3    H263191   2.316   2.423   2.901 -0.0459 -1.6408  0.0595
13926TIP3   OH263192   4.599   4.236  15.503 -0.3062 -0.4061 -0.7029
13926TIP3    H163193   4.550   4.199  15.577 -2.8225  0.5239 -1.7920
13926TIP3    H263194   4.597   4.167  15.437  0.2721 -0.5216 -0.6053
13927TIP3   OH263195   5.597   0.898   0.475 -0.2446  0.0822  0.2675
13927TIP3    H163196   5.569   0.880   0.564 -0.5234 -1.2974 -0.0736
13927TIP3    H263197   5.609   0.811   0.435  0.5308  0.6567 -0.8315
13928TIP3   OH263198   3.036   0.360   2.841  0.1616 -0.2126 -0.1194
13928TIP3    H163199   2.988   0.313   2.909  0.6610 -0.6163 -0.0488
13928TIP3    H263200   3.011   0.452   2.855  0.1551 -0.3052  0.5184
13929TIP3   OH263201   5.891   4.783  17.379  0.4811  0.5967  0.2827
13929TIP3    H163202   5.889   4.869  17.421 -0.6777  0.1112  1.2828
13929TIP3    H263203   5.918   4.801  17.289  2.1636  1.7718  0.9796
13930TIP3   OH263204   1.058   4.364  12.893 -0.0885 -0.4100  0.0731
13930TIP3    H163205   1.141   4.412  12.901 -0.1598 -0.5679  2.0661
13930TIP3    H263206   1.058   4.332  12.803  2.5179 -1.3178  0.3292
13931TIP3   OH263207   1.824   3.315  15.003 -0.3240 -0.2458  0.4456
13931TIP3    H163208   1.852   3.225  14.986 -1.3625 -0.2920 -1.1570
13931TIP3    H263209   1.760   3.307  15.074  0.5286 -0.6005  1.1991
13932TIP3   OH263210   5.377   2.970  16.442  0.2109  0.1103  0.4681
13932TIP3    H163211   5.404   3.020  16.364 -2.0171  0.2017 -0.3208
13932TIP3    H263212   5.389   3.031  16.515  0.8755  0.5622 -0.0095
13933TIP3   OH263213   1.865   0.837   3.047  0.3162  0.6863 -0.2423
13933TIP3    H163214   1.804   0.797   2.984  0.1945 -1.2967  1.0625
13933TIP3    H263215   1.946   0.787   3.037  0.1855  0.0870  1.3907
13934TIP3   OH263216   6.174   1.293  14.698  0.6552  0.1016  0.0852
13934TIP3    H163217   6.159   1.210  14.744  0.2485 -0.4148 -0.9350
13934TIP3    H263218   6.101   1.300  14.637 -0.9101  2.6399  2.0517
13935TIP3   OH263219   6.649   2.363  11.683 -0.4769  0.3346  0.1574
13935TIP3    H163220   6.676   2.274  11.706 -0.3160 -0.1920 -1.8464
13935TIP3    H263221   6.727   2.402  11.644 -0.6217  1.2865  0.7984
13936TIP3   OH263222   0.330   3.041  11.274 -0.0280 -0.0972 -0.2760
13936TIP3    H163223   0.387   3.116  11.255 -0.0035  0.9114  3.1243
13936TIP3    H263224   0.339   2.985  11.198  1.8938  2.1894 -1.9000
13937TIP3   OH263225   4.040   3.587  11.209 -0.2313  0.3698  0.0896
13937TIP3    H163226   4.121   3.611  11.165 -0.7096  1.4156 -0.2555
13937TIP3    H263227   3.982   3.662  11.195 -1.6817 -0.8552 -0.7321
13938TIP3   OH263228   4.070   5.293  12.190  0.4284  0.3009 -0.2106
13938TIP3    H163229   3.983   5.306  12.153  1.0308  0.8738 -1.5090
13938TIP3    H263230   4.127   5.284  12.113  2.1121  3.7411  0.4713
13939TIP3   OH263231   4.234   2.728  12.615  0.6697 -0.3938 -0.2915
13939TIP3    H163232   4.221   2.747  12.522 -0.7707 -1.5890 -0.3763
13939TIP3    H263233   4.275   2.807  12.650 -0.9371  1.0557 -1.4843
13940TIP3   OH263234   0.948   3.811   2.201  0.3096 -0.5645  0.1415
13940TIP3    H163235   0.867   3.770   2.171  0.8451 -0.1427 -2.0940
13940TIP3    H263236   1.018   3.754   2.169  0.9466  0.0573  0.3800
13941TIP3   OH263237   0.863   0.784  10.657 -0.3764 -0.1941 -0.3318
13941TIP3    H163238   0.948   0.769  10.699 -0.0401  0.7310 -0.6624
13941TIP3    H263239   0.884   0.830  10.576 -1.1138 -0.8995 -0.9400
13942TIP3   OH263240   5.974   0.319   4.952 -0.2710  0.0783 -0.6905
13942TIP3    H163241   5.976   0.362   5.037  0.2447 -0.8763 -0.1966
13942TIP3    H263242   5.985   0.390   4.889  1.3771  0.6128  0.1325
13943TIP3   OH263243   3.526   4.248   1.599  0.4233  0.3454  0.2401
13943TIP3    H163244   3.566   4.278   1.681 -1.1773 -0.9854  1.5977
13943TIP3    H263245   3.455   4.191   1.627 -0.6463  0.4107 -2.1008
13944TIP3   OH263246   1.087   3.826  15.832 -0.7955 -0.0849 -0.1874
13944TIP3    H163247   1.029   3.796  15.762  0.6332 -0.8396 -1.0881
13944TIP3    H263248   1.062   3.774  15.909 -1.6075 -0.0652 -0.4373
13945TIP3   OH263249   0.856   1.082   2.636  0.0229  0.0386 -0.1232
13945TIP3    H163250   0.781   1.025   2.623 -0.0507 -0.0435  0.6585
13945TIP3    H263251   0.841   1.125   2.720  0.0258  1.2921 -0.7298
13946TIP3   OH263252   5.928   0.028   5.108  0.5674 -0.0271 -0.4892
13946TIP3    H163253   5.866   0.101   5.111  1.9774  1.2018  0.9152
13946TIP3    H263254   5.961   0.029   5.018  1.1408  1.6492 -0.3050
13947TIP3   OH263255   1.871   5.726   6.227  0.7308 -0.6738  0.1616
13947TIP3    H163256   1.861   5.637   6.263  1.4693 -0.3887  1.1146
13947TIP3    H263257   1.840   5.783   6.298 -1.4827 -0.1995 -1.1047
13948TIP3   OH263258   0.569   3.897  16.857  0.3687 -0.4507 -0.4935
13948TIP3    H163259   0.662   3.880  16.847  0.3500 -0.4035 -0.7539
13948TIP3    H263260   0.559   3.926  16.948  0.5015 -1.1427 -0.2594
13949TIP3   OH263261   1.186   4.827   1.737 -0.0300  0.3391 -0.0463
13949TIP3    H163262   1.091   4.818   1.744  0.1619 -0.8845  1.5624
13949TIP3    H263263   1.205   4.810   1.644 -1.4529  1.7339 -0.6390
13950TIP3   OH263264   3.722   3.184  12.181 -0.3262  0.3266  0.7288
13950TIP3    H163265   3.782   3.112  12.203 -0.7911 -0.3245 -0.0746
13950TIP3    H263266   3.660   3.145  12.120 -1.9451  0.8287  1.9910
13951TIP3   OH263267   2.169   5.112  15.007  0.8444  0.2370  0.0722
13951TIP3    H163268   2.177   5.208  15.004  0.9495  0.3087  1.8942
13951TIP3    H263269   2.219   5.083  14.931  0.2298  1.6435 -0.9271
13952TIP3   OH263270   3.315   3.496   6.007 -0.5162  0.1576 -0.6919
13952TIP3    H163271   3.371   3.419   6.014 -2.4143 -1.1449  1.1091
13952TIP3    H263272   3.375   3.570   6.019  0.9886 -1.1348  0.0310
13953TIP3   OH263273   6.143   6.367   4.979 -0.0284  0.5648 -0.5970
13953TIP3    H163274   6.207   6.384   5.048  0.3519  0.6079 -0.9585
13953TIP3    H263275   6.129   6.452   4.938  0.3701  0.3897 -1.1080
13954TIP3   OH263276   3.530   1.103   5.080 -0.0766 -0.6257 -0.0629
13954TIP3    H163277   3.497   1.033   5.137  0.4384 -0.8150  0.0047
13954TIP3    H263278   3.451   1.148   5.049 -0.4633 -1.8136 -0.8499
13955TIP3   OH263279   4.692   2.834   2.873 -0.0103  0.5609 -0.0078
13955TIP3    H163280   4.697   2.928   2.854 -0.3017  0.6114  0.1627
13955TIP3    H263281   4.777   2.800   2.846  0.3215  0.9779  0.4962
13956TIP3   OH263282   5.991   5.436  16.596  0.1129  0.1029 -0.8178
13956TIP3    H163283   6.050   5.469  16.529  0.6991  1.4241  0.3117
13956TIP3    H263284   6.041   5.441  16.677 -1.9830  2.8762  0.4847
13957TIP3   OH263285   1.106   4.987   1.475 -0.8067 -0.1691  0.0376
13957TIP3    H163286   1.114   5.035   1.557  1.2622  0.8766 -0.6917
13957TIP3    H263287   1.154   5.040   1.411  0.0639 -2.3304 -1.2286
13958TIP3   OH263288   5.913   6.628   4.283  0.2621 -0.3201 -0.1907
13958TIP3    H163289   5.928   6.718   4.255  0.9254  0.4505  2.3223
13958TIP3    H263290   5.998   6.599   4.317 -0.6543 -0.6881  2.0016
13959TIP3   OH263291   6.689   6.410  14.250 -0.4980 -0.8488 -0.5193
13959TIP3    H163292   6.724   6.332  14.206 -1.0000 -1.6859  0.5183
13959TIP3    H263293   6.715   6.399  14.341  0.7909  1.0098 -0.6295
13960TIP3   OH263294   6.705   3.394  14.906 -0.2810  0.0934  0.1849
13960TIP3    H163295   6.793   3.360  14.895  0.5923  1.1299  3.0446
13960TIP3    H263296   6.657   3.323  14.950 -0.4599  0.0750 -0.0354
13961TIP3   OH263297   5.384   5.384   2.925  0.1421  0.1736 -0.4049
13961TIP3    H163298   5.455   5.424   2.974 -0.7425  1.0210  0.2360
13961TIP3    H263299   5.340   5.458   2.882 -0.2335 -0.3560 -0.9476
13962TIP3   OH263300   3.971   0.233   3.794  0.0728  0.3207 -0.1680
13962TIP3    H163301   3.902   0.182   3.752  1.4112  0.2268 -2.4537
13962TIP3    H263302   4.019   0.169   3.847 -0.0712 -0.1730 -0.6178
13963TIP3   OH263303   3.083   4.119  14.232 -0.0835 -0.0362 -0.0221
13963TIP3    H163304   3.154   4.181  14.215  1.1347 -1.0275  1.2126
13963TIP3    H263305   3.020   4.135  14.162  0.3989  2.2431 -0.0357
13964TIP3   OH263306   0.793   5.367  11.939 -0.0293 -0.0274  0.1014
13964TIP3    H163307   0.747   5.288  11.967  0.3859  0.3172  1.9064
13964TIP3    H263308   0.858   5.336  11.877  0.2115 -1.1486  0.8763
13965TIP3   OH263309   6.283   4.464   4.990  0.2375 -0.0475 -0.6102
13965TIP3    H163310   6.364   4.514   4.981  0.1078  0.3240  0.2593
13965TIP3    H263311   6.219   4.514   4.940  0.0632  0.7706  0.4135
13966TIP3   OH263312   4.219   3.658   6.455  0.0272 -0.1425  0.0720
13966TIP3    H163313   4.279   3.616   6.518 -0.4480 -0.3853  0.3718
13966TIP3    H263314   4.277   3.704   6.394  0.5165 -0.2612  0.4341
13967TIP3   OH263315   0.437   6.122  11.520  0.0068  0.0965 -0.5524
13967TIP3    H163316   0.423   6.088  11.432 -1.6701  0.1350 -0.3221
13967TIP3    H263317   0.387   6.063  11.577 -3.2589  2.9410 -0.1526
13968TIP3   OH263318   0.567   3.291   4.829  0.4163 -0.4640 -0.7237
13968TIP3    H163319   0.583   3.288   4.924 -0.3569 -2.3688 -0.6111
13968TIP3    H263320   0.508   3.366   4.818 -1.5924 -1.7142  0.7115
13969TIP3   OH263321   2.658   0.983  11.395 -0.1191 -0.5015  0.0904
13969TIP3    H163322   2.623   0.905  11.351  0.1091 -0.7938  0.4284
13969TIP3    H263323   2.750   0.963  11.410  0.0064 -0.0583 -0.0561
13970TIP3   OH263324   5.493   3.043   3.142 -0.3809 -0.2705 -0.6719
13970TIP3    H163325   5.537   3.109   3.089  2.2904 -0.2905  1.2969
13970TIP3    H263326   5.413   3.086   3.172 -0.1933  0.9669 -1.8280
13971TIP3   OH263327   2.822   1.927   2.229  0.1545 -0.0161 -0.1970
13971TIP3    H163328   2.870   1.890   2.303 -0.3958  0.3313  0.3485
13971TIP3    H263329   2.742   1.876   2.224  0.1404  0.0325 -0.4901
13972TIP3   OH263330   4.463   2.092   5.210 -0.0823 -0.0377  0.0999
13972TIP3    H163331   4.402   2.056   5.145 -1.1101  0.1738  0.9216
13972TIP3    H263332   4.544   2.042   5.198  0.5911  1.5248 -2.9182
13973TIP3   OH263333   3.400   5.998   5.426 -0.3304 -0.8551  0.6887
13973TIP3    H163334   3.392   6.032   5.515 -0.2002 -0.1522  0.4346
13973TIP3    H263335   3.488   6.023   5.398 -0.6091 -0.4872  0.1207
13974TIP3   OH263336   6.745   5.455  12.933  0.0411 -0.1120  0.1245
13974TIP3    H163337   6.730   5.363  12.953  0.7366 -0.8053 -2.2044
13974TIP3    H263338   6.749   5.458  12.837 -0.8666  2.5006  0.0948
13975TIP3   OH263339   2.964   2.406   5.312  0.4172 -0.8757  0.5785
13975TIP3    H163340   2.970   2.483   5.255  0.0046 -1.3647 -0.1418
13975TIP3    H263341   3.034   2.418   5.376  0.3048  0.1419  0.5339
13976TIP3   OH263342   3.066   0.695  15.379 -0.2083 -0.5825  0.1811
13976TIP3    H163343   3.033   0.711  15.290 -0.6883  0.7595  0.5728
13976TIP3    H263344   3.076   0.783  15.416 -0.8853 -1.1557  1.7684
13977TIP3   OH263345   1.937   1.674   2.622 -0.3417 -0.9296  0.3924
13977TIP3    H163346   1.917   1.736   2.551  0.9311  0.8930  1.5526
13977TIP3    H263347   1.864   1.683   2.683 -0.1084 -0.4856  0.6084
13978TIP3   OH263348   6.460   2.872   6.384 -0.2038  0.4983  0.6603
13978TIP3    H163349   6.387   2.927   6.411 -0.9784  0.7112 -1.6656
13978TIP3    H263350   6.472   2.810   6.456 -2.0090  1.0926  1.5144
13979TIP3   OH263351   0.763   5.201   1.028  0.2873 -0.0215 -0.0034
13979TIP3    H163352   0.825   5.184   0.957  0.9337 -0.5405  0.6760
13979TIP3    H263353   0.814   5.245   1.096 -1.0298  3.8050 -1.1724
13980TIP3   OH263354   6.276   5.866  16.529 -0.0341  0.0169 -0.4823
13980TIP3    H163355   6.205   5.863  16.594  0.3190  0.5980 -0.0518
13980TIP3    H263356   6.296   5.959  16.521  1.7297 -0.2367  0.5763
13981TIP3   OH263357   1.339   1.017   0.641 -0.3740  0.6719 -0.1111
13981TIP3    H163358   1.286   0.962   0.698  0.2441 -1.3364 -1.3790
13981TIP3    H263359   1.299   1.104   0.647 -3.7158 -0.6655 -0.8456
13982TIP3   OH263360   4.023   5.207  16.530 -0.1242  0.2097 -0.0441
13982TIP3    H163361   4.013   5.296  16.497  0.7578  0.0550 -0.7804
13982TIP3    H263362   4.033   5.154  16.451 -1.2646 -0.6445  0.3531
13983TIP3   OH263363   2.162   3.613  16.978  0.1407 -0.0131 -0.4706
13983TIP3    H163364   2.206   3.535  17.012 -1.5016 -0.3832  0.9292
13983TIP3    H263365   2.112   3.581  16.903 -1.9230 -0.7437  1.1389
13984TIP3   OH263366   1.273   5.861   5.689  0.0395  0.2889  0.2374
13984TIP3    H163367   1.281   5.768   5.669  2.8512  1.0463 -3.1454
13984TIP3    H263368   1.191   5.888   5.647 -0.3451 -0.4592  0.4968
13985TIP3   OH263369   6.532   6.259  13.929  0.0397  0.2746  0.5226
13985TIP3    H163370   6.522   6.234  14.021 -1.7479  0.4722  0.4076
13985TIP3    H263371   6.578   6.184  13.890  0.5426  0.0477  1.5008
13986TIP3   OH263372   5.198   4.918  13.081  0.1861  0.0578  0.0694
13986TIP3    H163373   5.190   4.846  13.018  3.1708 -0.2513 -0.1133
13986TIP3    H263374   5.230   4.992  13.029  0.0255  0.6284  0.7599
13987TIP3   OH263375   0.795   1.686   5.174 -0.3539  0.1645  0.3949
13987TIP3    H163376   0.762   1.646   5.255 -0.4543 -1.7861 -0.5641
13987TIP3    H263377   0.737   1.653   5.106  0.5355  0.7121 -0.6540
13988TIP3   OH263378   6.428   5.518  12.580 -0.3002 -0.1947  0.1434
13988TIP3    H163379   6.516   5.554  12.567  0.5284 -2.4513 -1.2932
13988TIP3    H263380   6.442   5.423  12.579 -2.7004 -0.5955  0.4693
13989TIP3   OH263381   5.508   3.830   4.948 -0.5189 -0.6641 -0.7997
13989TIP3    H163382   5.602   3.811   4.942  0.0129  1.9927 -2.3556
13989TIP3    H263383   5.469   3.781   4.875  0.0920  0.2873 -1.7918
13990TIP3   OH263384   6.402   4.258  13.680 -0.2835 -0.2868 -0.1640
13990TIP3    H163385   6.379   4.333  13.735  0.5281  1.0329 -1.5452
13990TIP3    H263386   6.391   4.290  13.591  1.9080 -1.1972 -0.8177
13991TIP3   OH263387   5.138   4.123   1.271  0.0285  0.3994 -0.1607
13991TIP3    H163388   5.071   4.102   1.336  0.6616  1.7939  0.9972
13991TIP3    H263389   5.193   4.044   1.267 -1.3886 -0.6091 -0.8315
13992TIP3   OH263390   4.989   3.131  12.320 -0.9129  0.1398 -0.0850
13992TIP3    H163391   5.021   3.220  12.334 -0.9502  0.5520 -2.2172
13992TIP3    H263392   4.905   3.128  12.365 -1.7110  1.7598 -1.3423
13993TIP3   OH263393   4.946   4.848  17.391  0.1680  0.1248 -0.0200
13993TIP3    H163394   5.002   4.776  17.419 -2.5869 -1.9029  0.8145
13993TIP3    H263395   4.990   4.886  17.315  2.7808 -1.0198  0.8170
13994TIP3   OH263396   1.526   0.717  16.264 -0.1326  0.6980 -0.5004
13994TIP3    H163397   1.461   0.674  16.208 -0.2257  0.6898 -0.3868
13994TIP3    H263398   1.605   0.721  16.210  0.3923 -1.1505  0.0431
13995TIP3   OH263399   3.099   4.463   4.000 -0.5377  0.5643 -0.4067
13995TIP3    H163400   3.012   4.456   4.038 -0.0477  0.1263  0.6621
13995TIP3    H263401   3.158   4.430   4.068  0.4009  0.2041 -1.3668
13996TIP3   OH263402   1.212   3.690  15.429  0.1974 -0.1691  0.3013
13996TIP3    H163403   1.164   3.676  15.511  0.5233  1.2095  0.7569
13996TIP3    H263404   1.186   3.778  15.401  0.1500 -0.5984 -1.0422
13997TIP3   OH263405   4.700   4.270  13.200  0.5650  0.3662 -0.2884
13997TIP3    H163406   4.616   4.249  13.241  0.7574  1.2767  0.6198
13997TIP3    H263407   4.677   4.298  13.111  0.0173 -0.4290 -0.4098
13998TIP3   OH263408   1.458   2.304  13.223 -0.1421 -0.2038  0.0909
13998TIP3    H163409   1.462   2.261  13.309  1.7694 -3.1505 -1.3039
13998TIP3    H263410   1.367   2.293  13.195 -0.5248 -0.1942  1.2765
13999TIP3   OH263411   6.536   6.438  12.300  0.2103 -0.4868 -0.0913
13999TIP3    H163412   6.541   6.462  12.208  3.4181  2.7252  0.7413
13999TIP3    H263413   6.501   6.516  12.344  0.7661 -1.1611  1.6417
14000TIP3   OH263414   3.005   2.724  13.662 -0.1391 -0.6049 -0.4482
14000TIP3    H163415   2.963   2.807  13.685  1.2450 -0.5035  2.0230
14000TIP3    H263416   3.071   2.748  13.597  1.3482  0.5964  1.3928
14001TIP3   OH263417   2.590   6.241  12.123 -0.4290  0.0393  0.4049
14001TIP3    H163418   2.607   6.329  12.157  0.1880  0.7375 -1.5450
14001TIP3    H263419   2.573   6.255  12.029 -1.1528 -1.8428  0.2044
14002TIP3   OH263420   3.488   6.717   2.015  0.4506 -0.0122 -0.1558
14002TIP3    H163421   3.570   6.764   2.002  0.6314  0.2963  1.7977
14002TIP3    H263422   3.478   6.711   2.110 -1.9971  0.3233 -0.3109
14003TIP3   OH263423   2.553   5.557  15.459 -0.0818  0.6269  0.1493
14003TIP3    H163424   2.640   5.566  15.421 -0.0717  2.6368  0.4918
14003TIP3    H263425   2.567   5.510  15.541  0.5003 -0.0390 -0.3202
14004TIP3   OH263426   1.639   2.020   5.616  0.1564 -0.1636 -0.1668
14004TIP3    H163427   1.651   1.925   5.614 -1.1061 -0.4116  1.3341
14004TIP3    H263428   1.616   2.038   5.708 -0.4083  1.4777 -0.6048
14005TIP3   OH263429   6.036   5.081   4.082 -0.4331 -0.3050 -0.5478
14005TIP3    H163430   6.063   5.073   3.991 -0.0171  1.2301 -0.6012
14005TIP3    H263431   5.980   5.160   4.083 -2.4357 -1.6413  0.1087
14006TIP3   OH263432   0.509   5.844  14.102  0.3426 -0.2266 -0.9029
14006TIP3    H163433   0.437   5.781  14.113 -1.3053  1.3561 -2.0355
14006TIP3    H263434   0.502   5.902  14.177 -0.4168  0.7029 -1.6726
14007TIP3   OH263435   6.593   5.284   1.713  0.6100  0.2408 -0.0886
14007TIP3    H163436   6.670   5.337   1.735  2.1053 -0.8691 -2.2757
14007TIP3    H263437   6.624   5.224   1.646 -2.4724  0.5552 -1.9857
14008TIP3   OH263438   1.063   2.379   2.605 -0.1631  0.3708 -0.0092
14008TIP3    H163439   0.982   2.393   2.654  1.1203 -0.5833  2.5509
14008TIP3    H263440   1.070   2.456   2.549 -2.7532  0.5385 -0.2507
14009TIP3   OH263441   5.706   4.092  12.068 -0.4281 -0.0319  0.1529
14009TIP3    H163442   5.623   4.139  12.068 -0.8041 -0.6901  0.7458
14009TIP3    H263443   5.772   4.162  12.070 -0.9543  0.4931 -0.3406
14010TIP3   OH263444   0.563   3.936   1.244 -0.5104 -0.6043 -0.4595
14010TIP3    H163445   0.614   3.873   1.295 -0.6095  1.5569  2.6207
14010TIP3    H263446   0.472   3.909   1.257 -0.6607  0.7334  2.0035
14011TIP3   OH263447   1.897   0.979  10.938  0.2432 -0.2758 -0.4868
14011TIP3    H163448   1.831   0.963  10.871  0.8609 -1.4869 -0.8233
14011TIP3    H263449   1.896   0.901  10.993  0.1464  0.4586  0.5904
14012TIP3   OH263450   2.538   3.776   0.300  0.1253 -0.1068 -0.2754
14012TIP3    H163451   2.542   3.837   0.226  0.2409 -1.5770 -1.5388
14012TIP3    H263452   2.628   3.774   0.333  0.8235 -1.6791 -2.0620
14013TIP3   OH263453   6.042   2.159   1.452  0.2593 -0.0735  0.0420
14013TIP3    H163454   5.956   2.183   1.485  0.3961  0.3518  0.0946
14013TIP3    H263455   6.025   2.115   1.369  0.0086  0.2146 -0.0567
14014TIP3   OH263456   3.745   1.226   3.780  0.1116 -0.2317 -0.3391
14014TIP3    H163457   3.747   1.322   3.784  2.0177 -0.2560  0.0322
14014TIP3    H263458   3.687   1.200   3.852  0.2082  0.6159  0.0539
14015TIP3   OH263459   4.223   0.384  12.703  0.1049 -0.6019  0.5287
14015TIP3    H163460   4.147   0.378  12.645  0.4936 -1.2870  0.0757
14015TIP3    H263461   4.279   0.311  12.677  0.7563 -0.3171  1.0967
14016TIP3   OH263462   0.334   0.124  11.204  0.3897  0.0195  0.7627
14016TIP3    H163463   0.285   0.197  11.243  1.8633  0.9921  0.9017
14016TIP3    H263464   0.270   0.079  11.149 -0.6620  1.2313  0.9290
14017TIP3   OH263465   6.165   2.041   4.479  0.3861 -0.5340 -0.2118
14017TIP3    H163466   6.135   2.058   4.389  0.1620  0.4763  0.0418
14017TIP3    H263467   6.096   1.988   4.518  0.2852 -0.6190 -0.5029
14018TIP3   OH263468   1.730   3.518   3.407 -0.4195 -0.4811  0.2238
14018TIP3    H163469   1.785   3.590   3.438 -1.7672  0.1592  1.1995
14018TIP3    H263470   1.645   3.558   3.390 -0.7902 -1.5778 -0.6271
14019TIP3   OH263471   4.563   5.913  16.952  0.3191  0.2159  0.3992
14019TIP3    H163472   4.655   5.940  16.945  0.2895  0.3500  0.5434
14019TIP3    H263473   4.515   5.980  16.903  0.3098  0.0767  0.2161
14020TIP3   OH263474   3.512   0.213  12.241  0.7058 -0.3099 -0.0813
14020TIP3    H163475   3.454   0.137  12.248 -2.4733  1.9888  0.6495
14020TIP3    H263476   3.536   0.233  12.332  2.5718 -1.0938 -0.3614
14021TIP3   OH263477   3.108   2.235  16.561  0.4080 -0.7487 -0.2458
14021TIP3    H163478   3.030   2.182  16.542 -0.0706  0.0811 -0.6390
14021TIP3    H263479   3.102   2.309  16.501  1.1213 -0.3017  0.2217
14022TIP3   OH263480   6.733   3.402  17.334  0.0090 -0.1980 -0.0629
14022TIP3    H163481   6.745   3.370  17.245 -1.5982  1.9020 -1.0958
14022TIP3    H263482   6.656   3.356  17.366 -0.6606  0.5875 -0.5354
14023TIP3   OH263483   0.517   4.829  15.242 -0.3952  0.1213  0.0405
14023TIP3    H163484   0.545   4.766  15.176  0.7873  0.0208  0.6101
14023TIP3    H263485   0.559   4.911  15.215 -2.1058  0.7523 -0.8251
14024TIP3   OH263486   2.766   4.989  16.912  0.1941  0.7364 -0.7728
14024TIP3    H163487   2.721   5.030  16.986 -0.9348 -0.5798 -0.6966
14024TIP3    H263488   2.833   4.934  16.952 -1.1876 -0.9066 -0.6116
14025TIP3   OH263489   3.271   3.425   1.514  0.3189 -0.0661 -0.4814
14025TIP3    H163490   3.307   3.471   1.590 -1.1430 -1.2509  0.9793
14025TIP3    H263491   3.331   3.352   1.500  0.3401 -0.1065 -0.1842
14026TIP3   OH263492   0.037   4.504   3.043  0.4377  0.1636  0.5734
14026TIP3    H163493   0.022   4.414   3.071 -0.9522 -0.0139 -0.6265
14026TIP3    H263494   0.110   4.499   2.982  1.1191  0.0360  1.3838
14027TIP3   OH263495   0.023   2.667  10.319  0.4095 -0.7222  0.7026
14027TIP3    H163496   0.110   2.691  10.286  1.5554 -2.1260  2.5318
14027TIP3    H263497   0.022   2.572  10.316 -1.4585 -0.7184 -0.1262
14028TIP3   OH263498   1.360   2.436   4.388  0.2536  0.1094  0.5105
14028TIP3    H163499   1.409   2.446   4.306  0.5246  1.6909  0.8260
14028TIP3    H263500   1.272   2.466   4.366  0.4804  1.1288  0.9165
14029TIP3   OH263501   6.324   4.390  11.356  0.4637 -0.3019  0.5253
14029TIP3    H163502   6.389   4.352  11.415  0.7115 -0.1370  0.3654
14029TIP3    H263503   6.369   4.465  11.317  0.3546 -0.5042  0.0105
14030TIP3   OH263504   2.296   1.701   3.169 -0.0660 -0.2628  0.3636
14030TIP3    H163505   2.329   1.785   3.137  2.1225 -1.3101 -0.3032
14030TIP3    H263506   2.285   1.649   3.089 -0.7928 -0.8311  0.8302
14031TIP3   OH263507   4.057   5.327   4.512  0.0994  0.6122  0.4096
14031TIP3    H163508   3.971   5.368   4.513 -0.4496 -0.4430  2.8397
14031TIP3    H263509   4.097   5.352   4.595  2.1380  1.0029 -0.6233
14032TIP3   OH263510   4.421   3.602  13.086 -0.0472  0.1558 -0.0311
14032TIP3    H163511   4.507   3.639  13.067  0.1128 -0.8252 -1.3942
14032TIP3    H263512   4.371   3.675  13.124  1.5410  0.5741  1.3337
14033TIP3   OH263513   1.733   0.358  16.874  0.3162 -0.5046 -0.5776
14033TIP3    H163514   1.728   0.284  16.813  0.5843 -2.0457  1.1704
14033TIP3    H263515   1.755   0.318  16.958 -1.8162  1.3005  0.9562
14034TIP3   OH263516   5.373   4.414  14.920 -0.0156  0.1732  0.6111
14034TIP3    H163517   5.385   4.387  14.829  1.3698  0.1095  0.7928
14034TIP3    H263518   5.291   4.463  14.919  0.2986  0.7433 -0.8050
14035TIP3   OH263519   3.515   5.877   4.243  0.3408  0.5339 -0.0010
14035TIP3    H163520   3.594   5.878   4.189  1.1193  1.9404  1.1120
14035TIP3    H263521   3.478   5.964   4.233 -0.5276  0.2111  0.2856
14036TIP3   OH263522   4.596   2.267   0.808  0.0969  0.1495  0.0871
14036TIP3    H163523   4.601   2.249   0.902  1.3532 -1.4651 -0.2394
14036TIP3    H263524   4.683   2.246   0.775 -0.3614  0.5486 -1.4658
14037TIP3   OH263525   4.967   3.909   4.958  0.2527  0.0445 -0.3882
14037TIP3    H163526   5.034   3.923   4.890  0.7455  0.5768  0.1887
14037TIP3    H263527   4.885   3.902   4.910  0.6933 -0.3581 -1.0957
14038TIP3   OH263528   4.706   0.890   4.214 -0.2034 -0.0610 -0.4426
14038TIP3    H163529   4.777   0.827   4.204 -1.1005 -1.0825 -0.5385
14038TIP3    H263530   4.738   0.952   4.280  0.5916 -0.7560 -0.1536
14039TIP3   OH263531   5.744   0.770   2.398  0.2179 -0.3596  0.4037
14039TIP3    H163532   5.808   0.834   2.366 -0.7521  0.8648  0.8614
14039TIP3    H263533   5.744   0.702   2.330  0.0494  0.9393 -0.9713
14040TIP3   OH263534   3.550   3.476   4.330 -0.3702  0.5238  0.4450
14040TIP3    H163535   3.473   3.429   4.363 -0.5823  0.2687 -0.3908
14040TIP3    H263536   3.624   3.425   4.362 -0.5679  0.4104  0.7254
14041TIP3   OH263537   0.200   5.521  15.399 -0.5971 -0.0023  0.1511
14041TIP3    H163538   0.182   5.438  15.356 -0.6200  0.3800 -0.5931
14041TIP3    H263539   0.148   5.518  15.479  0.0015 -1.0212  0.5138
14042TIP3   OH263540   0.112   5.278  10.165 -0.4292 -0.5285 -0.1056
14042TIP3    H163541   0.140   5.265  10.255  0.9242  2.5272  0.0245
14042TIP3    H263542   0.191   5.264  10.112 -0.6013  0.1161 -0.5532
14043TIP3   OH263543   3.508   6.164   0.807  0.1342  0.1578 -0.5723
14043TIP3    H163544   3.462   6.102   0.864  1.7350 -1.0388 -0.4942
14043TIP3    H263545   3.443   6.231   0.786 -1.5326 -1.3027 -0.2699
14044TIP3   OH263546   1.450   1.798   3.757 -0.4183 -0.0930  0.2648
14044TIP3    H163547   1.500   1.735   3.809  0.7711  1.0284  0.5171
14044TIP3    H263548   1.359   1.786   3.786 -0.5967 -3.1511 -1.2108
14045TIP3   OH263549   4.450   1.473  15.577  0.0388 -0.4611 -0.2534
14045TIP3    H163550   4.397   1.417  15.522  0.5719 -1.3558  0.1285
14045TIP3    H263551   4.490   1.535  15.516 -4.0796  2.6068 -0.2856
14046TIP3   OH263552   2.005   6.485  11.737  0.3970 -0.8389  0.0012
14046TIP3    H163553   2.034   6.573  11.761  1.0996 -1.1267  0.2315
14046TIP3    H263554   1.946   6.499  11.663  1.2590 -0.2494 -0.5827
14047TIP3   OH263555   1.908   6.143  17.410 -0.0805  0.3319  0.1459
14047TIP3    H163556   1.870   6.117  17.494  0.3505 -0.3298  0.1426
14047TIP3    H263557   1.950   6.063  17.377  1.4066  1.0602  0.2004
14048TIP3   OH263558   2.238   5.442  12.702 -0.0092  0.5384 -0.1642
14048TIP3    H163559   2.143   5.437  12.716 -0.0490 -0.3843 -0.6975
14048TIP3    H263560   2.271   5.486  12.781 -0.7499 -0.1533  0.5529
14049TIP3   OH263561   0.443   1.038  15.930 -0.7670  0.1673 -0.0554
14049TIP3    H163562   0.415   1.035  16.022  1.4277  0.6497  0.6879
14049TIP3    H263563   0.403   1.117  15.896 -1.8935 -0.1965  0.3567
14050TIP3   OH263564   4.345   1.770   5.550  0.2327 -0.1905 -0.5997
14050TIP3    H163565   4.368   1.716   5.626 -0.7877 -0.0465 -0.1791
14050TIP3    H263566   4.400   1.736   5.479  0.2593 -1.1713 -0.1163
14051TIP3   OH263567   6.634   4.132   3.366  0.0786 -0.4631  0.4152
14051TIP3    H163568   6.616   4.103   3.456 -0.3424  0.5092  0.6539
14051TIP3    H263569   6.730   4.126   3.358  0.3347  1.2498  1.5999
14052TIP3   OH263570   5.261   3.482   4.912 -0.9513  0.6713  0.7947
14052TIP3    H163571   5.287   3.391   4.927 -2.6044  0.3798  2.2232
14052TIP3    H263572   5.310   3.508   4.834  0.3642 -1.0909  0.9523
14053TIP3   OH263573   0.456   2.965   4.893  0.0694  0.7289 -0.4344
14053TIP3    H163574   0.362   2.959   4.912  0.1449  0.9181 -0.0005
14053TIP3    H263575   0.462   3.026   4.819 -0.1073  1.1239 -0.1242
14054TIP3   OH263576   3.891   6.729  17.111  0.0013 -0.1326  0.0097
14054TIP3    H163577   3.874   6.737  17.018  0.3336 -0.7819 -0.1110
14054TIP3    H263578   3.977   6.768  17.123 -0.6964  1.3802  0.3106
14055TIP3   OH263579   1.574   4.056   4.589  0.0576  0.4747  0.2762
14055TIP3    H163580   1.564   3.984   4.527 -1.4031  1.6945 -0.9555
14055TIP3    H263581   1.494   4.056   4.641 -0.3643  1.7550 -0.3410
14056TIP3   OH263582   0.069   0.062  10.362  0.2963 -0.0916  0.0784
14056TIP3    H163583   0.145   0.108  10.397  1.0335 -1.2728  0.1116
14056TIP3    H263584   0.085  -0.030  10.384  0.4366 -0.8118 -2.7039
14057TIP3   OH263585   6.117   4.403   5.200  0.1615 -0.0715  0.0168
14057TIP3    H163586   6.179   4.452   5.146 -1.0587  2.1530  0.5306
14057TIP3    H263587   6.172   4.356   5.263  1.3890  0.8448 -0.3424
14058TIP3   OH263588   1.692   0.841   4.663 -1.0744  0.1539  0.2610
14058TIP3    H163589   1.678   0.926   4.621  1.2677 -0.0551 -1.1166
14058TIP3    H263590   1.754   0.859   4.734  2.4528 -0.7437 -2.2888
14059TIP3   OH263591   6.127   6.561  12.263  0.5781  0.4142  0.2770
14059TIP3    H163592   6.158   6.581  12.351  2.1153  0.8411 -0.3269
14059TIP3    H263593   6.142   6.466  12.254 -0.8223  0.1062  0.9130
14060TIP3   OH263594   3.551   3.683  12.323  0.0628  0.2692 -0.4027
14060TIP3    H163595   3.546   3.764  12.373  0.6430  0.3991 -0.5425
14060TIP3    H263596   3.637   3.647  12.345 -0.2474 -0.3752 -0.2409
14061TIP3   OH263597   0.735   0.630  14.949  0.6766 -0.3812 -0.1015
14061TIP3    H163598   0.661   0.690  14.936  0.8840 -0.3447 -1.1859
14061TIP3    H263599   0.721   0.593  15.036 -1.4707 -1.5461 -0.8853
14062TIP3   OH263600   0.753   4.385   3.932 -0.3899  0.3782 -0.0110
14062TIP3    H163601   0.773   4.432   3.851  0.1678  0.6233  0.2627
14062TIP3    H263602   0.706   4.307   3.903  1.6860 -0.6781 -0.7931
14063TIP3   OH263603   2.870   0.991  13.545  0.3788 -0.3725 -0.2206
14063TIP3    H163604   2.808   1.015  13.477  1.8485  0.2921 -1.3806
14063TIP3    H263605   2.910   1.073  13.572  1.1903 -0.8402  0.0554
14064TIP3   OH263606   4.084   4.008   3.689 -0.2397  0.4467 -0.5115
14064TIP3    H163607   4.077   4.052   3.774 -1.7803  0.3068 -0.5371
14064TIP3    H263608   4.109   4.078   3.629 -0.4509  0.8355 -0.1566
14065TIP3   OH263609   1.711   4.341  17.348  0.2122 -0.4250  0.3581
14065TIP3    H163610   1.757   4.396  17.285  0.1596  0.4120  1.0382
14065TIP3    H263611   1.666   4.403  17.405 -3.3583 -1.1973 -1.3979
14066TIP3   OH263612   2.424   5.746  12.526 -0.3497 -0.2864  0.0414
14066TIP3    H163613   2.374   5.814  12.570  0.7832  0.2852  0.4824
14066TIP3    H263614   2.470   5.700  12.597 -0.0278 -0.6123 -0.3678
14067TIP3   OH263615   1.063   1.703   5.142  0.5749 -0.0610 -0.0773
14067TIP3    H163616   0.968   1.690   5.139  0.2014  2.1771  0.6694
14067TIP3    H263617   1.094   1.673   5.057 -0.7279 -1.0982 -0.2291
14068TIP3   OH263618   3.395   0.382  15.845  0.3291  0.1653 -0.0807
14068TIP3    H163619   3.397   0.474  15.870 -3.1453 -0.1866  2.0896
14068TIP3    H263620   3.326   0.376  15.779 -0.9784 -1.0863  1.3143
14069TIP3   OH263621   1.592   4.686   1.749  0.4206  0.2339 -0.3974
14069TIP3    H163622   1.512   4.647   1.782  1.2718 -0.1619  1.2713
14069TIP3    H263623   1.571   4.779   1.739 -0.7071 -0.1104 -1.5508
14070TIP3   OH263624   0.253   4.955   1.812  0.2663 -0.2474 -0.4835
14070TIP3    H163625   0.260   4.867   1.775 -0.6041  0.4259 -2.3590
14070TIP3    H263626   0.161   4.963   1.838  0.2208  0.2707 -0.7792
14071TIP3   OH263627   1.853   0.180   5.494 -0.0293  0.0644 -0.4556
14071TIP3    H163628   1.889   0.122   5.561 -0.5794 -0.4821 -0.6191
14071TIP3    H263629   1.815   0.253   5.543  0.2314  0.0455 -0.2193
14072TIP3   OH263630   4.739   2.956   1.840  0.1607  0.7946 -0.2567
14072TIP3    H163631   4.749   2.975   1.747  0.5180 -0.7277 -0.5402
14072TIP3    H263632   4.645   2.969   1.856 -0.0382  0.3650 -0.9986
14073TIP3   OH263633   6.582   2.905  17.222  0.1632  0.4546 -0.2286
14073TIP3    H163634   6.630   2.826  17.198  1.4172  1.3295 -0.7016
14073TIP3    H263635   6.490   2.879  17.218  0.5214 -0.7953 -1.0254
14074TIP3   OH263636   2.890   2.066  13.566 -0.1814  0.6774 -0.0074
14074TIP3    H163637   2.952   2.011  13.613 -0.1629  0.4343 -0.3084
14074TIP3    H263638   2.808   2.015  13.566 -0.2840  0.8420  0.0897
14075TIP3   OH263639   5.322   5.373   1.461 -0.4088 -0.2412 -0.4811
14075TIP3    H163640   5.339   5.414   1.546 -1.8027  1.3168 -0.9144
14075TIP3    H263641   5.235   5.334   1.471 -1.0120  0.8174 -1.4940
14076TIP3   OH263642   0.169   3.555   2.179  0.1762 -0.0141 -0.1561
14076TIP3    H163643   0.215   3.595   2.105 -1.0774 -1.9676 -2.1603
14076TIP3    H263644   0.083   3.597   2.179  0.5303  0.7310  0.9148
14077TIP3   OH263645   3.492   4.573  12.092  0.4660  0.1252 -0.3544
14077TIP3    H163646   3.484   4.484  12.124  2.8042 -0.3129 -0.8619
14077TIP3    H263647   3.453   4.570  12.004 -1.3828  0.1664  0.4107
14078TIP3   OH263648   2.384   1.335  14.235 -1.0057 -0.5194 -0.0853
14078TIP3    H163649   2.335   1.368  14.310 -1.3026 -1.2336  0.0510
14078TIP3    H263650   2.461   1.293  14.273 -0.4550  0.2938 -0.2779
14079TIP3   OH263651   3.870   0.786   1.370  0.1817  0.2491 -0.7800
14079TIP3    H163652   3.854   0.874   1.334  1.0298  0.7984  0.1530
14079TIP3    H263653   3.930   0.745   1.307  2.6227  1.6354  0.4969
14080TIP3   OH263654   5.697   6.410   4.026 -0.0894  0.4776 -0.6188
14080TIP3    H163655   5.653   6.463   3.959 -0.1866  0.2861 -0.7074
14080TIP3    H263656   5.668   6.448   4.109  0.0110  0.6992 -0.6850
14081TIP3   OH263657   5.794   3.429   1.794 -0.0908  0.1274 -0.0824
14081TIP3    H163658   5.786   3.373   1.717  0.6737 -2.3603  1.5105
14081TIP3    H263659   5.860   3.493   1.771 -2.1922  1.5690 -2.5840
14082TIP3   OH263660   4.379   6.360  16.572 -0.0417  0.1480 -0.8349
14082TIP3    H163661   4.388   6.415  16.494  0.9273  1.0062 -0.1567
14082TIP3    H263662   4.304   6.396  16.619  0.2378  0.5342 -0.6804
14083TIP3   OH263663   1.905   4.748   4.612 -0.4160  0.0061  0.4753
14083TIP3    H163664   1.826   4.765   4.559 -1.4754 -0.5157  1.8227
14083TIP3    H263665   1.965   4.818   4.588 -0.8926 -0.1423 -1.3288
14084TIP3   OH263666   5.059   0.088  17.018 -0.3805  0.0147 -0.1321
14084TIP3    H163667   5.133   0.149  17.027 -0.8121  0.6958 -1.0338
14084TIP3    H263668   5.094   0.004  17.050  0.8259  0.2948 -0.6314
14085TIP3   OH263669   5.990   1.881  16.630  0.1101  0.1723 -0.6195
14085TIP3    H163670   5.895   1.887  16.619  0.2490 -0.6480 -2.4528
14085TIP3    H263671   6.001   1.817  16.700 -0.6802  0.4142 -0.2547
14086TIP3   OH263672   2.477   4.018  14.287  0.2680 -0.1026 -0.2572
14086TIP3    H163673   2.454   4.025  14.380 -0.9636  0.1680 -0.5633
14086TIP3    H263674   2.446   3.931  14.261  1.4251 -0.5409 -0.2113
14087TIP3   OH263675   2.349   4.406   0.197 -1.0553  0.2666 -0.3860
14087TIP3    H163676   2.442   4.408   0.219 -1.5242 -0.9641  2.1074
14087TIP3    H263677   2.331   4.314   0.180 -2.0356  0.2995  0.3838
14088TIP3   OH263678   6.220   4.829  15.751 -0.0106 -0.0115 -0.1027
14088TIP3    H163679   6.253   4.770  15.683 -1.1599  0.0301 -0.7106
14088TIP3    H263680   6.146   4.783  15.790 -0.4075  0.6756 -0.0290
14089TIP3   OH263681   0.629   6.416   3.273 -0.2809 -0.2793  0.4276
14089TIP3    H163682   0.655   6.324   3.274 -0.7796 -0.4398 -0.6215
14089TIP3    H263683   0.598   6.433   3.362 -1.4183 -1.4862  0.2798
14090TIP3   OH263684   0.518   6.349   0.540  0.1394  0.0109  0.2566
14090TIP3    H163685   0.503   6.254   0.540  0.8743 -0.1837 -2.5784
14090TIP3    H263686   0.608   6.359   0.511 -0.2158  1.5763 -0.4134
14091TIP3   OH263687   4.278   5.662  12.673  0.0965  0.4577  0.0341
14091TIP3    H163688   4.258   5.720  12.600 -0.1595 -0.4847 -0.6711
14091TIP3    H263689   4.248   5.576  12.644  1.9687 -0.3538  0.3554
14092TIP3   OH263690   6.714   5.649  14.875 -0.3550  0.2569  0.0889
14092TIP3    H163691   6.706   5.647  14.970 -0.2231  1.1713  0.1295
14092TIP3    H263692   6.806   5.628  14.858 -0.2855  0.4783  0.1881
14093TIP3   OH263693   4.929   1.364   1.180  0.6188  0.0208  0.5342
14093TIP3    H163694   4.961   1.313   1.254 -1.0180  0.0604  1.3140
14093TIP3    H263695   4.915   1.452   1.215  2.1970  0.7304 -0.4833
14094TIP3   OH263696   6.000   6.152   1.228  0.5942 -0.2822 -0.1336
14094TIP3    H163697   5.998   6.084   1.296  1.2027 -0.2478 -0.0782
14094TIP3    H263698   6.062   6.217   1.260 -0.4737  0.6411  0.1173
14095TIP3   OH263699   1.213   4.194   2.468  0.0083  0.7266  0.6011
14095TIP3    H163700   1.304   4.209   2.493  0.7441 -1.5514 -0.4036
14095TIP3    H263701   1.174   4.281   2.465  3.1217  2.2454 -2.5379
14096TIP3   OH263702   1.820   6.555  11.264 -0.6662  0.4488 -1.0253
14096TIP3    H163703   1.805   6.650  11.268 -0.1555  0.4982  0.2643
14096TIP3    H263704   1.750   6.522  11.208 -2.2317  1.3376  0.3103
14097TIP3   OH263705   1.745   4.727   5.926 -0.2455  0.4743  0.0357
14097TIP3    H163706   1.720   4.643   5.965  0.6362  0.1128 -0.1386
14097TIP3    H263707   1.781   4.778   5.998  2.7776 -0.7485 -0.4778
14098TIP3   OH263708   1.464   1.484   3.768 -0.0398 -0.3733 -0.0860
14098TIP3    H163709   1.508   1.447   3.691 -0.6813  0.3011 -0.7885
14098TIP3    H263710   1.534   1.526   3.818  0.0293  1.6625 -1.7546
14099TIP3   OH263711   0.590   5.661  12.673  0.2700 -0.2342 -0.4330
14099TIP3    H163712   0.551   5.740  12.636  0.0827 -1.3887 -2.8524
14099TIP3    H263713   0.517   5.615  12.715  0.5053  1.1323  1.5936
14100TIP3   OH263714   3.791   5.353   5.469  0.4256  0.3908  0.5449
14100TIP3    H163715   3.787   5.399   5.552 -0.9638  0.6692  0.3565
14100TIP3    H263716   3.786   5.422   5.403  1.3262  0.1611  0.2274
14101TIP3   OH263717   5.437   0.903   2.388  0.3376 -0.0555  0.4904
14101TIP3    H163718   5.475   0.956   2.457  0.0056 -0.2902  0.8529
14101TIP3    H263719   5.344   0.925   2.388  0.1373 -0.8567  0.8541
14102TIP3   OH263720   3.440   4.230  11.693  0.2540  0.2022  0.0556
14102TIP3    H163721   3.488   4.299  11.646  0.9641  0.7034  1.4567
14102TIP3    H263722   3.508   4.176  11.732 -0.2698 -1.9427 -1.8155
14103TIP3   OH263723   3.981   2.715  15.614 -0.1469  0.0888 -0.5273
14103TIP3    H163724   3.973   2.712  15.709  2.0001  0.3766 -0.2957
14103TIP3    H263725   4.033   2.638  15.591  1.4544  1.3108 -1.1794
14104TIP3   OH263726   6.498   0.825  12.782  0.5740 -0.8352 -0.1370
14104TIP3    H163727   6.428   0.887  12.803 -0.7328 -1.5699 -2.0793
14104TIP3    H263728   6.574   0.858  12.831 -0.6674  0.9479  0.7114
14105TIP3   OH263729   4.981   2.479  14.760  0.0687 -0.1355  0.2945
14105TIP3    H163730   4.922   2.554  14.752  0.8189  0.4517  0.1129
14105TIP3    H263731   5.059   2.514  14.803 -0.1362 -1.1473  1.5680
14106TIP3   OH263732   1.892   5.036  16.050 -0.6886 -0.4907 -0.7641
14106TIP3    H163733   1.807   5.003  16.018  0.5032 -3.2513 -1.4353
14106TIP3    H263734   1.904   5.119  16.005 -4.3677  1.6727  1.7019
14107TIP3   OH263735   1.426   0.689   1.680  0.1630 -0.2988 -0.3434
14107TIP3    H163736   1.498   0.752   1.678  0.7963 -0.6866  3.5328
14107TIP3    H263737   1.467   0.605   1.698 -1.1344 -0.7290  0.7963
14108TIP3   OH263738   3.167   0.274   1.688  0.2370  0.1793 -0.4960
14108TIP3    H163739   3.189   0.193   1.644 -0.4993 -0.9346  1.0768
14108TIP3    H263740   3.248   0.326   1.686  0.3287  0.0358 -2.7267
14109TIP3   OH263741   1.863   1.799   5.008  0.0579  0.3238 -0.5021
14109TIP3    H163742   1.849   1.714   4.966 -1.7065  0.4303 -0.1753
14109TIP3    H263743   1.956   1.818   4.992  0.5717 -1.7689 -0.3779
14110TIP3   OH263744   2.870   0.954  15.652 -0.3057  0.1742  0.0994
14110TIP3    H163745   2.926   1.008  15.708 -0.6772  0.9004 -0.2099
14110TIP3    H263746   2.890   0.983  15.563  0.1314 -0.8259 -0.1402
14111TIP3   OH263747   1.730   4.216   0.582  0.2628 -0.2418 -0.4210
14111TIP3    H163748   1.807   4.272   0.583  0.4478 -0.4483 -1.3827
14111TIP3    H263749   1.754   4.140   0.633  0.4450  0.0115 -0.1305
14112TIP3   OH263750   3.431   4.713   3.067 -0.3603 -0.2052 -0.1763
14112TIP3    H163751   3.364   4.693   3.002  0.0452  1.3860 -1.1412
14112TIP3    H263752   3.503   4.653   3.048 -0.7059 -0.5295 -0.4578
14113TIP3   OH263753   0.120   3.429  10.759  0.1635  0.2530  0.2855
14113TIP3    H163754   0.116   3.484  10.837  0.6878  1.3486 -0.4394
14113TIP3    H263755   0.039   3.447  10.712 -0.7784 -1.3946  1.1851
14114TIP3   OH263756   5.631   6.481   2.503 -0.0606  0.0143  0.2475
14114TIP3    H163757   5.595   6.568   2.488 -1.4874 -0.8521 -1.8938
14114TIP3    H263758   5.707   6.475   2.445 -0.8955 -0.6625 -0.8129
14115TIP3   OH263759   3.619   2.320  15.505 -0.1349 -0.2098  0.4764
14115TIP3    H163760   3.534   2.349  15.538 -1.1027  0.2581 -2.1561
14115TIP3    H263761   3.599   2.241  15.454  0.8505  0.3506 -0.8360
14116TIP3   OH263762   5.298   1.323   4.778 -0.5679  0.6809  0.0933
14116TIP3    H163763   5.216   1.367   4.755 -1.0977 -0.9437 -1.3492
14116TIP3    H263764   5.331   1.288   4.694  1.6118  1.2691  0.6276
14117TIP3   OH263765   0.644   3.936  13.686  0.5317  0.2359  0.0203
14117TIP3    H163766   0.557   3.946  13.646  0.7802  0.2194 -0.5375
14117TIP3    H263767   0.658   4.019  13.732  0.8650  0.8795 -1.1889
14118TIP3   OH263768   0.260   3.613   5.183  0.1085  0.2691  0.3615
14118TIP3    H163769   0.215   3.603   5.100  1.1097  0.1997 -0.1876
14118TIP3    H263770   0.236   3.701   5.213 -0.5081  0.1742  0.1701
14119TIP3   OH263771   0.643   3.205   2.432 -0.3989  0.1853 -0.7161
14119TIP3    H163772   0.583   3.153   2.486 -2.5581  1.3977 -1.8213
14119TIP3    H263773   0.659   3.150   2.355  1.7496 -1.0498  0.5125
14120TIP3   OH263774   0.214   3.574   3.796  0.2885  0.3405 -1.5830
14120TIP3    H163775   0.174   3.660   3.782  0.1089  0.1783 -2.0817
14120TIP3    H263776   0.198   3.554   3.888  0.7590  1.0613 -1.3303
14121TIP3   OH263777   4.674   6.298  12.807  0.4898  0.2796  0.1582
14121TIP3    H163778   4.714   6.274  12.723 -0.8107  1.2428 -0.7833
14121TIP3    H263779   4.602   6.358  12.783  0.3381  0.8903  1.9910
14122TIP3   OH263780   6.196   0.903  11.697 -0.1510  0.4070 -0.0176
14122TIP3    H163781   6.162   0.834  11.641 -0.1561  0.9250 -0.6603
14122TIP3    H263782   6.232   0.857  11.773 -0.6335 -0.2608 -0.1870
14123TIP3   OH263783   0.378   1.227  12.825  0.0311 -0.0546  0.1536
14123TIP3    H163784   0.430   1.177  12.763 -1.6324 -1.1035 -0.4724
14123TIP3    H263785   0.377   1.173  12.904  1.1588  0.7159  0.7192
14124TIP3   OH263786   2.863   4.676   3.386 -0.3233  0.8266  0.1103
14124TIP3    H163787   2.919   4.599   3.377 -2.4045 -0.7730 -0.0651
14124TIP3    H263788   2.877   4.704   3.477  0.8890  0.6158  0.0112
14125TIP3   OH263789   5.583   2.095  15.862 -0.5854  0.4093  0.4149
14125TIP3    H163790   5.563   2.103  15.769 -0.7179 -1.5069  0.2233
14125TIP3    H263791   5.650   2.026  15.867 -1.0755 -0.0139  1.7722
14126TIP3   OH263792   4.397   0.423  14.111 -0.2144 -0.0978  0.3427
14126TIP3    H163793   4.410   0.487  14.041 -1.3512  1.1822  1.2324
14126TIP3    H263794   4.428   0.468  14.190  0.0476 -1.1027  0.8287
14127TIP3   OH263795   2.811   0.961  12.892 -0.4779  0.4003 -0.3378
14127TIP3    H163796   2.903   0.979  12.910 -0.3177 -1.4857  1.0599
14127TIP3    H263797   2.810   0.921  12.805 -0.0683  0.9805 -0.6123
14128TIP3   OH263798   1.292   1.383   3.971  0.4503 -0.2013  0.0111
14128TIP3    H163799   1.349   1.312   4.001  2.2945  1.4492  0.6021
14128TIP3    H263800   1.339   1.422   3.897 -1.8455 -1.2591 -2.1718
14129TIP3   OH263801   5.900   4.583  15.976 -0.1734  0.5972  0.0898
14129TIP3    H163802   5.945   4.659  15.939  0.6785 -0.1547 -0.4496
14129TIP3    H263803   5.879   4.608  16.066  2.8708  0.3589  0.9562
14130TIP3   OH263804   0.983   5.155  14.182 -0.5962 -0.3856  0.5296
14130TIP3    H163805   0.937   5.081  14.141  0.6596 -0.6105 -0.5338
14130TIP3    H263806   1.014   5.120  14.266 -1.0372 -0.6910  0.5716
14131TIP3   OH263807   3.386   1.344  10.458 -0.0536  0.4938 -0.4103
14131TIP3    H163808   3.444   1.310  10.390  0.6677  1.7037 -0.4365
14131TIP3    H263809   3.298   1.336  10.420  0.2978  0.6986 -1.2942
14132TIP3   OH263810   4.167   0.088   0.299 -0.0445  0.5187  0.1954
14132TIP3    H163811   4.165   0.065   0.207 -0.1566 -0.1158  0.3556
14132TIP3    H263812   4.144   0.008   0.345  1.8572  0.3061  0.8651
14133TIP3   OH263813   5.941   4.094  15.794 -0.4591  1.2155 -0.3003
14133TIP3    H163814   5.980   4.017  15.834 -0.6199  0.3920 -1.6763
14133TIP3    H263815   5.957   4.165  15.857  0.4241  0.2431  0.5975
14134TIP3   OH263816   2.324   2.784  12.553 -0.0605 -0.2798  0.1318
14134TIP3    H163817   2.376   2.713  12.516 -0.1612  0.1051 -0.7585
14134TIP3    H263818   2.297   2.751  12.639 -0.0884 -1.3073 -0.2557
14135TIP3   OH263819   6.296   2.256   2.267 -0.2403 -0.1059 -0.1260
14135TIP3    H163820   6.228   2.263   2.334 -0.6600 -1.4134 -0.3887
14135TIP3    H263821   6.261   2.194   2.204  0.3494  0.7435 -1.3314
14136TIP3   OH263822   6.502   5.890  15.436  0.6370 -0.2783 -0.1114
14136TIP3    H163823   6.597   5.887  15.447  0.7995  1.8199 -0.4288
14136TIP3    H263824   6.468   5.919  15.520  0.4483  0.5461 -0.4570
14137TIP3   OH263825   4.651   0.361   5.190  0.0093 -0.4493 -0.2376
14137TIP3    H163826   4.557   0.373   5.202  0.1484  0.5014 -0.0129
14137TIP3    H263827   4.690   0.443   5.221  0.8312 -0.3643 -1.4135
14138TIP3   OH263828   0.988   4.530   5.834  0.0171 -0.9138  0.0942
14138TIP3    H163829   0.962   4.461   5.895  0.5554 -0.4442  0.8830
14138TIP3    H263830   1.083   4.537   5.845  0.4108 -1.9934 -2.0706
14139TIP3   OH263831   4.926   6.371   1.429 -0.1358  0.3327  0.2011
14139TIP3    H163832   5.016   6.360   1.459  0.1814 -0.0171 -0.8322
14139TIP3    H263833   4.903   6.461   1.454  0.8065  0.7192 -0.2980
14140TIP3   OH263834   3.731   0.874   4.299 -0.5550 -0.2455 -0.0517
14140TIP3    H163835   3.744   0.810   4.229 -0.9719 -0.3585 -0.0278
14140TIP3    H263836   3.765   0.956   4.263  2.1958 -0.9392  0.7606
14141TIP3   OH263837   1.426   5.913   6.135  0.2293  0.2608 -0.0417
14141TIP3    H163838   1.415   5.845   6.201  0.6252  2.9253  3.0360
14141TIP3    H263839   1.352   5.901   6.076 -0.4008 -2.0385  1.0974
14142TIP3   OH263840   3.193   5.668  11.622  0.0137  0.0307 -0.1920
14142TIP3    H163841   3.172   5.618  11.543 -0.8667 -0.7008  0.4916
14142TIP3    H263842   3.241   5.606  11.677  1.8830  0.9489 -0.7043
14143TIP3   OH263843   5.034   6.296   1.699 -0.1929  0.0125 -0.8850
14143TIP3    H163844   5.001   6.213   1.733  2.7826 -1.1450 -0.5744
14143TIP3    H263845   5.084   6.272   1.621  2.6523  1.1361  0.4815
14144TIP3   OH263846   0.161   4.967   3.613  0.4157  0.3531 -0.8999
14144TIP3    H163847   0.161   5.025   3.537 -1.0820 -0.4691 -1.5871
14144TIP3    H263848   0.154   5.025   3.688  3.1155  1.2584 -1.2519
14145TIP3   OH263849   0.138   5.307   0.674  0.4567  0.0935  0.0879
14145TIP3    H163850   0.106   5.221   0.644 -0.4012  0.1563  0.7892
14145TIP3    H263851   0.087   5.325   0.753  1.0495  0.9889  0.2735
14146TIP3   OH263852   2.054   2.510   3.593 -0.4562 -0.1318  0.1350
14146TIP3    H163853   2.126   2.535   3.651  1.4682  0.1736 -2.1947
14146TIP3    H263854   2.058   2.415   3.589  0.0260 -0.1036 -0.1883
14147TIP3   OH263855   6.135   0.865   2.725 -0.2231  0.0385  0.2623
14147TIP3    H163856   6.054   0.831   2.687  0.0037  1.3232 -1.4984
14147TIP3    H263857   6.188   0.890   2.649  1.4531  0.0648  1.4050
14148TIP3   OH263858   6.374   5.255   1.547 -0.3818  0.2070 -0.8145
14148TIP3    H163859   6.438   5.184   1.552 -1.1033 -0.3756  1.0914
14148TIP3    H263860   6.402   5.317   1.615 -0.7862  0.8661 -1.2432
14149TIP3   OH263861   2.772   2.807  14.635  0.5199 -0.7021  0.7494
14149TIP3    H163862   2.809   2.894  14.647  1.4633 -0.8360 -0.9327
14149TIP3    H263863   2.757   2.775  14.724 -0.0214  1.2196  1.3976
14150TIP3   OH263864   1.089   0.443   4.265  0.3901  0.2456 -0.1744
14150TIP3    H163865   1.103   0.352   4.238 -0.5868  0.6135 -2.1221
14150TIP3    H263866   1.109   0.444   4.359  1.1615 -1.7975 -0.2737
14151TIP3   OH263867   1.384   6.718   3.196  0.0911 -0.2349 -0.1789
14151TIP3    H163868   1.394   6.626   3.173  1.8583 -0.4501  1.2676
14151TIP3    H263869   1.442   6.764   3.135  1.8803 -0.4501  1.2949
14152TIP3   OH263870   2.715   6.674   4.830  0.3146 -0.2403 -0.3878
14152TIP3    H163871   2.764   6.624   4.896  1.3280  1.3727  0.1420
14152TIP3    H263872   2.629   6.633   4.828  0.6016 -0.9991  1.1873
14153TIP3   OH263873   5.379   0.368   5.928  0.0889  0.0334 -0.1174
14153TIP3    H163874   5.335   0.422   5.863 -0.2902  0.8008  0.7589
14153TIP3    H263875   5.322   0.291   5.938 -1.3902  1.2333  1.3574
14154TIP3   OH263876   1.913   4.691   3.421 -0.1442  0.5112  0.0967
14154TIP3    H163877   1.858   4.765   3.445 -0.7405 -0.5104  2.0663
14154TIP3    H263878   1.886   4.669   3.332 -3.3124 -0.2086  1.1162
14155TIP3   OH263879   0.221   4.451   2.852 -0.1642 -0.2947  0.3898
14155TIP3    H163880   0.303   4.484   2.887 -0.7792 -0.3071  1.8937
14155TIP3    H263881   0.245   4.374   2.801  0.6684 -0.7318  1.4375
14156TIP3   OH263882   0.644   5.774   3.512  0.1760 -0.3300 -0.0979
14156TIP3    H163883   0.635   5.784   3.607  1.0423 -0.1290 -0.0296
14156TIP3    H263884   0.733   5.741   3.499  0.8272  1.5813 -0.9438
14157TIP3   OH263885   5.983   2.787  16.622 -0.5432  0.0171 -0.0006
14157TIP3    H163886   5.891   2.810  16.605 -0.1646  0.4237 -1.6905
14157TIP3    H263887   6.031   2.827  16.550  1.0661  0.3584  1.1940
14158TIP3   OH263888   3.136   6.745  11.177 -0.2076 -0.4126 -0.0522
14158TIP3    H163889   3.108   6.829  11.215 -0.5141 -0.4849 -0.1129
14158TIP3    H263890   3.062   6.719  11.122 -0.9141 -1.6483  1.4216
14159TIP3   OH263891   4.599   3.927  13.921 -0.2518 -0.0325 -0.4006
14159TIP3    H163892   4.631   3.945  13.833  2.2116  1.0153  0.6182
14159TIP3    H263893   4.646   3.989  13.977 -1.6664 -0.7264  1.6874
14160TIP3   OH263894   3.773   5.636  15.777 -0.0608 -0.5067  0.2624
14160TIP3    H163895   3.750   5.585  15.855  0.1387 -0.9704  0.0204
14160TIP3    H263896   3.691   5.645  15.729 -0.1020 -0.5665  0.3225
14161TIP3   OH263897   5.675   3.510  13.899  0.0417 -0.5071 -0.1443
14161TIP3    H163898   5.691   3.591  13.850 -1.5189  0.1660  0.4001
14161TIP3    H263899   5.634   3.539  13.981 -1.6301 -1.9159 -0.4247
14162TIP3   OH263900   6.120   5.687  14.523 -0.3107  0.6020 -0.1696
14162TIP3    H163901   6.111   5.772  14.566 -0.1324  1.4963 -1.7861
14162TIP3    H263902   6.051   5.687  14.456  0.7897  0.2442 -1.3463
14163TIP3   OH263903   4.650   4.465  16.833  0.0469  0.0033  0.1050
14163TIP3    H163904   4.573   4.485  16.780 -0.7032  0.8910  1.4474
14163TIP3    H263905   4.714   4.532  16.809 -0.3159  0.4445  0.3257
14164TIP3   OH263906   3.083   1.604  15.506  0.8722  0.0846  0.3976
14164TIP3    H163907   3.107   1.578  15.417 -0.3584 -0.8935  0.3258
14164TIP3    H263908   3.167   1.617  15.551  1.5049  0.3654 -0.8304
14165TIP3   OH263909   4.476   3.982   5.599  0.1752  0.6390  0.1389
14165TIP3    H163910   4.537   3.912   5.625 -0.9498 -0.4814 -0.1289
14165TIP3    H263911   4.458   4.029   5.680 -0.5160 -0.5842  0.7199
14166TIP3   OH263912   1.362   2.554   0.468  0.1273 -0.2717  1.1103
14166TIP3    H163913   1.371   2.486   0.536 -0.2198 -1.4786 -0.0058
14166TIP3    H263914   1.359   2.505   0.386 -1.6417  1.0138  0.3552
14167TIP3   OH263915   5.356   1.675  10.808  0.4531  1.5834  0.1357
14167TIP3    H163916   5.433   1.687  10.863  2.1705  2.8713 -2.3423
14167TIP3    H263917   5.325   1.764  10.790 -1.4703  1.1101  0.8073
14168TIP3   OH263918   4.312   2.979  13.971 -0.3376  0.2273 -0.0600
14168TIP3    H163919   4.260   3.019  13.901 -1.0592  0.4105  0.5768
14168TIP3    H263920   4.252   2.969  14.044  0.5233  0.4647  0.7016
14169TIP3   OH263921   2.976   5.189  13.024 -0.0279 -0.7947 -0.1414
14169TIP3    H163922   3.006   5.209  13.112 -1.8347  1.1744  0.1194
14169TIP3    H263923   2.954   5.096  13.026 -1.7446 -0.4056  2.0444
14170TIP3   OH263924   5.145   0.729   4.917 -0.3051 -0.2065  0.2539
14170TIP3    H163925   5.058   0.770   4.918 -0.8585 -1.1969 -1.8827
14170TIP3    H263926   5.206   0.803   4.918 -1.2631  0.7914 -2.9134
14171TIP3   OH263927   0.656   3.677  12.950 -0.4869  0.0049 -0.6490
14171TIP3    H163928   0.610   3.759  12.930  0.3271  0.7098  0.2559
14171TIP3    H263929   0.615   3.646  13.031  0.5494  0.6109  0.1355
14172TIP3   OH263930   1.974   4.683   5.578  0.6614 -0.6349 -0.0443
14172TIP3    H163931   2.046   4.624   5.603  0.8212 -0.8492 -0.9767
14172TIP3    H263932   1.967   4.673   5.483 -0.0251  0.0506 -0.0712
14173TIP3   OH263933   1.316   0.144  11.450 -0.2837  0.0720 -0.3352
14173TIP3    H163934   1.366   0.100  11.382  0.7874  1.2619 -0.3652
14173TIP3    H263935   1.302   0.077  11.517 -1.5941 -1.1926 -1.7895
14174TIP3   OH263936   3.141   0.715  11.314  0.0794  0.5896 -0.4164
14174TIP3    H163937   3.076   0.689  11.248  0.1217  2.1479 -1.1184
14174TIP3    H263938   3.222   0.725  11.264  1.0132 -1.6970  0.5088
14175TIP3   OH263939   0.046   1.677  14.045  0.0561 -0.0069  0.0719
14175TIP3    H163940   0.073   1.636  14.127 -0.5881  0.4773  0.5343
14175TIP3    H263941   0.053   1.771  14.062 -1.0529  0.1118 -0.0866
14176TIP3   OH263942   5.530   2.996  15.797 -0.0574  0.3325 -0.0113
14176TIP3    H163943   5.610   2.952  15.769  0.6527  1.8357 -0.4760
14176TIP3    H263944   5.481   3.009  15.715 -0.8987 -0.7560  0.2943
14177TIP3   OH263945   2.725   6.126   3.134  0.4265 -0.2538 -0.5225
14177TIP3    H163946   2.647   6.179   3.143 -0.8378 -2.3461  3.1860
14177TIP3    H263947   2.702   6.059   3.070 -0.2094  0.1133 -0.6783
14178TIP3   OH263948   2.896   1.356   5.526  0.0606  0.7158  0.0324
14178TIP3    H163949   2.888   1.370   5.431 -0.4360 -0.7563 -0.1664
14178TIP3    H263950   2.837   1.283   5.544 -2.2967  2.9691  2.0351
14179TIP3   OH263951   3.801   2.857  11.108 -0.7670 -0.1959  0.2205
14179TIP3    H163952   3.813   2.938  11.156  0.0418  0.1112 -0.4816
14179TIP3    H263953   3.709   2.834  11.122 -0.2991 -0.7815  2.9203
14180TIP3   OH263954   0.854   0.995  16.307 -0.2790  0.0633 -0.1088
14180TIP3    H163955   0.796   0.990  16.231  1.0193  0.5928 -1.1732
14180TIP3    H263956   0.831   1.078  16.349 -0.5341  0.0911 -0.2968
14181TIP3   OH263957   3.184   5.356  13.658  0.3970 -0.1200 -0.8746
14181TIP3    H163958   3.099   5.330  13.621 -0.7179 -0.2989  1.5975
14181TIP3    H263959   3.232   5.274  13.666  0.1464 -0.2636 -0.8067
14182TIP3   OH263960   3.826   0.491  13.688  0.3546 -0.0552 -0.5220
14182TIP3    H163961   3.819   0.556  13.757  1.0988 -0.2186 -0.2753
14182TIP3    H263962   3.787   0.532  13.611  0.3648  0.4851 -0.2411
14183TIP3   OH263963   5.245   3.201   0.638  0.1543  0.7047  0.0318
14183TIP3    H163964   5.170   3.149   0.608  0.0294 -0.4703  2.1983
14183TIP3    H263965   5.300   3.138   0.684  0.7274  2.2119  1.5002
14184TIP3   OH263966   5.267   5.080  15.271 -0.2470 -0.4266  0.4842
14184TIP3    H163967   5.261   5.156  15.328 -0.8361 -0.7184  0.8193
14184TIP3    H263968   5.330   5.106  15.203 -0.5254  0.3960  0.5300
14185TIP3   OH263969   6.661   0.189   4.663  0.2579  0.0957 -0.1425
14185TIP3    H163970   6.582   0.237   4.638  0.2808  0.5138  0.5390
14185TIP3    H263971   6.731   0.229   4.611  0.4320  1.4511  1.0573
14186TIP3   OH263972   4.686   3.819  17.099  0.0947 -0.3855  0.3104
14186TIP3    H163973   4.766   3.795  17.146  1.6100 -0.4420 -2.0860
14186TIP3    H263974   4.636   3.872  17.160  1.5302 -1.1165  2.2081
14187TIP3   OH263975   5.211   5.621   5.568  0.3756 -0.0654  0.4181
14187TIP3    H163976   5.163   5.667   5.500 -0.6071  0.1894  1.2674
14187TIP3    H263977   5.191   5.528   5.553  2.7526 -0.3509 -1.5984
14188TIP3   OH263978   1.282   5.783  16.838 -0.2671 -0.4679  0.1842
14188TIP3    H163979   1.288   5.708  16.779  0.3898  0.2446 -0.6876
14188TIP3    H263980   1.209   5.762  16.897 -0.6297 -1.4118 -0.5819
14189TIP3   OH263981   3.801   1.256   4.663  0.5392 -0.0922 -0.0852
14189TIP3    H163982   3.802   1.164   4.689  1.0158  0.2332  1.0702
14189TIP3    H263983   3.804   1.305   4.745  1.3191  0.9553 -0.7211
14190TIP3   OH263984   5.465   4.094   1.585  0.1311  0.7907 -0.0419
14190TIP3    H163985   5.544   4.039   1.583  0.6123  1.3185 -4.1192
14190TIP3    H263986   5.497   4.184   1.585 -0.3434  1.0196 -2.3635
14191TIP3   OH263987   6.103   4.566  15.728  0.8213  0.1702 -0.1649
14191TIP3    H163988   6.028   4.574  15.669  0.8495  1.4060 -0.0664
14191TIP3    H263989   6.086   4.486  15.778 -1.2986  1.2583  1.0265
14192TIP3   OH263990   4.141   6.621   2.472 -0.3847  0.0425  1.0907
14192TIP3    H163991   4.112   6.542   2.427 -0.7386 -0.3594  2.0017
14192TIP3    H263992   4.226   6.598   2.509  0.4045  0.7105 -0.2255
14193TIP3   OH263993   1.977   1.129  17.312 -0.0706  0.2269 -0.2022
14193TIP3    H163994   2.031   1.128  17.391  0.3696  0.9085 -0.4880
14193TIP3    H263995   1.888   1.116  17.343  0.1420  0.1209  0.3688
14194TIP3   OH263996   1.194   5.002  13.056 -0.0722  0.5496 -0.3198
14194TIP3    H163997   1.124   5.054  13.018 -0.3859  0.7386  0.5055
14194TIP3    H263998   1.203   5.033  13.146  1.3068  0.7682 -0.5001
14195TIP3   OH263999   3.054   5.700   4.488  0.3530  0.1219 -0.5529
14195TIP3    H164000   3.009   5.784   4.491  0.4122  0.1746 -1.0091
14195TIP3    H264001   3.146   5.722   4.473  0.3655 -0.0199 -0.6947
14196TIP3   OH264002   1.333   6.601   4.545  0.3924  0.0948 -0.3468
14196TIP3    H164003   1.313   6.509   4.529  0.4898  0.1718 -0.9344
14196TIP3    H264004   1.298   6.647   4.469 -1.1290  0.7438  0.6840
14197TIP3   OH264005   5.626   2.161  17.027 -0.0774  0.7392 -0.1027
14197TIP3    H164006   5.566   2.179  17.100  0.3571 -0.7432  0.6747
14197TIP3    H264007   5.572   2.170  16.949 -1.3492 -0.5289  0.5735
14198TIP3   OH264008   4.598   5.737   4.931  0.0030 -0.2831 -0.2566
14198TIP3    H164009   4.507   5.731   4.900 -0.6618  1.2413  1.2454
14198TIP3    H264010   4.645   5.673   4.878 -1.7316 -0.3502 -1.8336
14199TIP3   OH264011   3.115   1.288   2.438 -0.2151 -0.1432  0.1970
14199TIP3    H164012   3.147   1.223   2.375  0.4603  0.8312 -0.4791
14199TIP3    H264013   3.146   1.256   2.523  0.6256 -0.4100 -0.1960
14200TIP3   OH264014   1.354   1.652  16.846  0.2482  0.2969  0.3146
14200TIP3    H164015   1.424   1.711  16.820 -0.8293  1.0023 -1.1039
14200TIP3    H264016   1.287   1.663  16.779 -1.1485 -0.4932  1.5264
14201TIP3   OH264017   0.197   4.830  12.968  0.4043 -0.3588 -0.0746
14201TIP3    H164018   0.215   4.737  12.967  0.0178 -0.4861  1.6991
14201TIP3    H264019   0.127   4.841  12.903 -0.1726 -1.4477  0.3384
14202TIP3   OH264020   3.385   3.915   1.484  0.0469  0.3137  0.4498
14202TIP3    H164021   3.431   3.833   1.465  1.0392  0.4708  2.0267
14202TIP3    H264022   3.450   3.971   1.526 -1.3551  0.8291  2.0465
14203TIP3   OH264023   2.002   5.578   2.457 -1.0099 -0.3439  0.6150
14203TIP3    H164024   1.937   5.625   2.405 -0.6463 -0.1081  0.3639
14203TIP3    H264025   2.084   5.591   2.409 -0.5241  0.5154  1.6481
14204TIP3   OH264026   3.236   6.353   4.195 -0.5209 -0.5031 -0.8608
14204TIP3    H164027   3.258   6.346   4.102 -2.3803  1.3706 -1.5126
14204TIP3    H264028   3.222   6.262   4.223  2.7707 -1.3703 -1.6165
14205TIP3   OH264029   5.452   5.987  15.493 -0.1491  0.2318 -0.1234
14205TIP3    H164030   5.368   5.999  15.448 -0.1051  1.5140  0.0908
14205TIP3    H264031   5.431   5.993  15.586  0.2927  1.5462 -0.0889
14206TIP3   OH264032   6.150   6.170  11.635  0.2793  0.0997 -0.1220
14206TIP3    H164033   6.167   6.239  11.699 -1.9719  0.5543  0.0959
14206TIP3    H264034   6.144   6.216  11.551  0.2962 -0.0507 -0.2070
14207TIP3   OH264035   5.458   5.420   5.864 -0.2344 -0.1965 -0.4661
14207TIP3    H164036   5.543   5.465   5.868 -0.4643  0.3008 -1.0437
14207TIP3    H264037   5.443   5.405   5.771 -1.5902  1.2858 -0.5157
14208TIP3   OH264038   4.972   6.296   6.662 -0.3849 -0.1747  0.1028
14208TIP3    H164039   4.877   6.301   6.657 -0.3740 -0.1541 -0.0686
14208TIP3    H264040   5.003   6.349   6.589 -0.2287  1.0028  0.9930
14209TIP3   OH264041   2.192   5.213   1.469  0.1724  1.0947  0.0822
14209TIP3    H164042   2.171   5.200   1.561 -0.8862  0.9397 -0.1746
14209TIP3    H264043   2.118   5.176   1.422  1.4820 -0.4186 -0.8917
14210TIP3   OH264044   0.369   2.029   0.043 -0.2921 -0.3019 -0.1375
14210TIP3    H164045   0.439   1.964   0.052 -0.4786 -0.6898 -1.3523
14210TIP3    H264046   0.410   2.112   0.068  0.0704 -0.8055  0.9990
14211TIP3   OH264047   5.813   3.339  11.649 -0.0720 -0.0718  0.1957
14211TIP3    H164048   5.875   3.302  11.586  1.8149 -0.5634  2.2073
14211TIP3    H264049   5.806   3.432  11.625 -1.0701 -0.6307 -1.9440
14212TIP3   OH264050   5.604   1.020  13.412 -0.3198  0.2758 -0.5700
14212TIP3    H164051   5.621   1.004  13.319 -1.2485 -0.8363 -0.5723
14212TIP3    H264052   5.581   1.112  13.417 -0.9077  0.2015 -1.5666
14213TIP3   OH264053   2.598   3.139  16.009 -0.8197  0.2851  0.3922
14213TIP3    H164054   2.560   3.131  15.922  0.4600  0.1521 -0.1738
14213TIP3    H264055   2.527   3.114  16.069 -1.6160  0.0765 -0.6202
14214TIP3   OH264056   2.830   5.385  14.796  0.5217 -0.3395  0.2031
14214TIP3    H164057   2.917   5.422  14.812  1.5559 -2.3937 -0.3353
14214TIP3    H264058   2.835   5.296  14.831 -1.4232 -0.4452  0.2856
14215TIP3   OH264059   0.902   1.804  16.964  0.2909 -0.4265 -0.3045
14215TIP3    H164060   0.817   1.764  16.983 -0.7097  0.7965 -1.9668
14215TIP3    H264061   0.941   1.748  16.897 -0.2682  0.2866 -1.2466
14216TIP3   OH264062   2.851   4.156  16.074 -0.3061  0.2526  0.0323
14216TIP3    H164063   2.833   4.103  15.997 -0.9724 -0.3891  0.6094
14216TIP3    H264064   2.935   4.199  16.056 -0.9710  0.9768 -1.4927
14217TIP3   OH264065   2.326   4.228   0.936  0.1603 -0.1902 -0.2070
14217TIP3    H164066   2.272   4.268   0.868  0.9752 -0.3380 -0.9647
14217TIP3    H264067   2.326   4.293   1.007  0.2441  0.4939 -0.8189
14218TIP3   OH264068   6.090   1.801  15.420 -0.3704  0.0560 -0.3920
14218TIP3    H164069   6.106   1.886  15.461 -0.1861  0.4888 -1.3355
14218TIP3    H264070   5.996   1.802  15.399 -0.0905  0.6821 -1.7762
14219TIP3   OH264071   5.207   4.862   2.756  0.1804 -0.4437  0.5587
14219TIP3    H164072   5.112   4.862   2.744  0.2006 -1.1761  0.3746
14219TIP3    H264073   5.241   4.900   2.675  0.0453 -0.1946  0.6183
14220TIP3   OH264074   4.261   5.121   2.051 -0.0907  0.5017  0.1616
14220TIP3    H164075   4.195   5.053   2.065  0.8032 -0.3573  0.2684
14220TIP3    H264076   4.305   5.095   1.969 -0.3074  1.4184 -0.2598
14221TIP3   OH264077   6.292   0.341  11.313 -0.0397  0.7463  0.1235
14221TIP3    H164078   6.293   0.246  11.308  2.0681  0.7450 -0.4611
14221TIP3    H264079   6.277   0.370  11.222  0.4315  0.9645  0.1132
14222TIP3   OH264080   1.260   2.232   1.289 -0.5258 -0.4889 -0.6954
14222TIP3    H164081   1.339   2.217   1.237  0.0943  0.3955 -0.0178
14222TIP3    H264082   1.284   2.207   1.378 -0.8056  0.4185 -0.3628
14223TIP3   OH264083   1.247   1.728   2.684 -0.7961  0.0088 -0.0545
14223TIP3    H164084   1.282   1.758   2.600  0.4829  0.1757  0.5177
14223TIP3    H264085   1.165   1.777   2.695 -0.4699  0.7197 -0.7411
14224TIP3   OH264086   4.081   5.453  16.787  0.4921 -0.1752  0.2473
14224TIP3    H164087   4.020   5.518  16.820  0.1344 -1.0087  1.2775
14224TIP3    H264088   4.083   5.468  16.693 -0.2598  0.7408  0.3589
14225TIP3   OH264089   3.142   5.367  15.344  0.0344  0.3588 -0.3460
14225TIP3    H164090   3.083   5.309  15.393  1.0566 -0.3049  0.1430
14225TIP3    H264091   3.160   5.439  15.403  1.8152 -0.7823  0.6050
14226TIP3   OH264092   5.490   4.339   3.039  0.0197  0.1532 -0.7366
14226TIP3    H164093   5.549   4.264   3.029 -0.3058 -0.3569  0.8819
14226TIP3    H264094   5.408   4.311   2.998  0.3362  0.1775 -1.3955
14227TIP3   OH264095   6.297   2.134  15.872 -0.4709 -0.0338  0.4397
14227TIP3    H164096   6.364   2.200  15.892  0.3304 -0.1517 -1.6644
14227TIP3    H264097   6.229   2.183  15.827  0.5089 -0.6799 -1.9075
14228TIP3   OH264098   6.327   0.222  14.763 -0.0099 -0.5035  0.8451
14228TIP3    H164099   6.395   0.280  14.796 -0.1050 -0.8530  1.6599
14228TIP3    H264100   6.372   0.139  14.746  0.0744 -0.2843 -0.0850
14229TIP3   OH264101   1.754   1.080   2.030  0.1581 -0.0757  0.0067
14229TIP3    H164102   1.797   1.165   2.020 -0.0901  0.1033  0.4356
14229TIP3    H264103   1.697   1.073   1.953  0.7247 -0.1815 -0.4070
14230TIP3   OH264104   3.772   4.364  15.835 -0.7185  0.5475  0.5848
14230TIP3    H164105   3.758   4.278  15.875 -0.8528  1.3053  2.2216
14230TIP3    H264106   3.839   4.349  15.769 -1.1694 -0.9278  0.4142
14231TIP3   OH264107   0.681   1.667  13.847  0.4524  0.2473  0.1606
14231TIP3    H164108   0.598   1.714  13.840  0.2764 -0.2733 -2.7892
14231TIP3    H264109   0.748   1.734  13.831  0.5209  0.4092  1.1099
14232TIP3   OH264110   5.913   2.353   5.094 -0.5596 -0.0168  0.2814
14232TIP3    H164111   5.995   2.396   5.070 -0.2997 -0.2918  0.6623
14232TIP3    H264112   5.845   2.418   5.076 -0.6536 -0.8963 -3.3321
14233TIP3   OH264113   4.759   6.125   3.702  0.2574  0.5107 -0.3219
14233TIP3    H164114   4.706   6.203   3.685  0.1146  0.5731  0.3906
14233TIP3    H264115   4.810   6.114   3.621  0.8471  1.7866 -0.1618
14234TIP3   OH264116   4.438   0.658  15.034 -0.1787  0.3624  0.0352
14234TIP3    H164117   4.469   0.679  14.946 -1.1457  1.3667 -0.0763
14234TIP3    H264118   4.396   0.572  15.025  1.5406 -0.5141 -0.0305
14235TIP3   OH264119   6.548   5.786   4.779 -0.3140  0.2943 -0.3956
14235TIP3    H164120   6.623   5.761   4.725  0.9532  0.1963  1.3276
14235TIP3    H264121   6.579   5.775   4.869 -2.8389 -1.0940  0.4083
14236TIP3   OH264122   4.873   6.643   5.383 -0.5656 -0.2231 -0.0928
14236TIP3    H164123   4.829   6.728   5.388  0.7324  0.4401  0.5523
14236TIP3    H264124   4.892   6.621   5.474  0.2196 -0.5996 -0.3389
14237TIP3   OH264125   2.897   4.120  13.800 -0.8519  0.3193  0.4345
14237TIP3    H164126   2.883   4.043  13.854  0.5105  0.9880  1.7968
14237TIP3    H264127   2.877   4.091  13.711  0.9008 -1.9768  0.7202
14238TIP3   OH264128   0.329   1.553  16.336  0.2913  0.0528  0.1621
14238TIP3    H164129   0.414   1.515  16.354  0.6466  0.7507 -0.0070
14238TIP3    H264130   0.275   1.529  16.411  0.8158  0.1427  0.5702
14239TIP3   OH264131   4.246   5.301   5.689 -0.2013 -0.2748  0.0683
14239TIP3    H164132   4.302   5.234   5.728 -0.6586 -0.4541  0.4197
14239TIP3    H264133   4.171   5.308   5.748 -1.3503 -1.2050 -1.2131
14240TIP3   OH264134   3.039   1.664  16.635 -0.1722  0.0686  0.5692
14240TIP3    H164135   3.057   1.758  16.630 -0.6259  0.1491  0.4313
14240TIP3    H264136   3.117   1.623  16.598 -0.4550  0.4301 -0.4658
14241TIP3   OH264137   5.941   0.817   4.034 -0.2501  0.5586  0.0973
14241TIP3    H164138   5.984   0.857   4.110 -0.1276 -1.3540  1.0997
14241TIP3    H264139   5.867   0.769   4.071  0.6468 -1.6110 -0.7431
14242TIP3   OH264140   5.125   4.344  12.226 -0.0101  0.4179  0.4163
14242TIP3    H164141   5.085   4.429  12.208  0.0367  0.5507  0.9292
14242TIP3    H264142   5.063   4.280  12.190 -1.3143  0.5649  2.2805
14243TIP3   OH264143   6.264   5.408   3.565  0.2829  0.0767 -0.2224
14243TIP3    H164144   6.263   5.438   3.474  1.3670 -0.6700 -0.5088
14243TIP3    H264145   6.179   5.434   3.600 -0.8462 -1.0773 -1.9225
14244TIP3   OH264146   2.885   6.640  13.413 -0.3047  0.2566  0.0974
14244TIP3    H164147   2.874   6.727  13.450 -2.8663  0.3283 -0.6483
14244TIP3    H264148   2.902   6.655  13.320 -0.1697 -0.0369  0.0717
14245TIP3   OH264149   4.971   5.197  16.668  0.0899 -0.7180 -0.1072
14245TIP3    H164150   4.912   5.122  16.664 -0.8104  0.0003 -1.5791
14245TIP3    H264151   4.917   5.267  16.705  0.2358 -0.2493 -0.7601
14246TIP3   OH264152   0.663   3.915  11.165  0.3196  0.1234  0.0986
14246TIP3    H164153   0.659   3.994  11.220  0.7403  0.1965  0.0281
14246TIP3    H264154   0.584   3.866  11.187  1.2793 -0.6550  1.9893
14247TIP3   OH264155   4.210   2.362  12.072  0.0864  0.6520  0.7361
14247TIP3    H164156   4.240   2.303  12.141  0.8754  0.2243  0.0499
14247TIP3    H264157   4.231   2.316  11.991  0.1726  1.6187  0.1960
14248TIP3   OH264158   6.168   0.531  15.956  0.0261 -0.5976 -0.0753
14248TIP3    H164159   6.105   0.587  15.912  1.3096  0.2801 -0.8609
14248TIP3    H264160   6.202   0.474  15.887 -0.9614 -2.1040  0.6290
14249TIP3   OH264161   0.107   2.058  15.009  0.0249 -0.6027  0.0707
14249TIP3    H164162   0.187   2.110  15.017  0.1835 -0.7909 -0.2985
14249TIP3    H264163   0.056   2.081  15.088 -1.4184  2.6401 -1.5943
14250TIP3   OH264164   6.422   5.076   1.831  0.1316 -0.2183  0.4090
14250TIP3    H164165   6.497   5.133   1.814  0.1607 -0.5233 -0.5430
14250TIP3    H264166   6.443   5.032   1.913  1.6359 -1.3240 -0.5251
14251TIP3   OH264167   5.077   2.386  10.467  0.9396  0.2331  0.3467
14251TIP3    H164168   5.078   2.406  10.561 -1.2138 -1.8590  0.9103
14251TIP3    H264169   5.137   2.313  10.457  0.4205 -0.1935  0.2943
14252TIP3   OH264170   4.624   4.318  14.520  0.4237  0.3182  0.0281
14252TIP3    H164171   4.568   4.271  14.459  1.7419 -1.4491  0.0869
14252TIP3    H264172   4.649   4.253  14.585  0.4783  1.7114  1.4612
14253TIP3   OH264173   3.687   1.222   5.967  0.2578  0.3848 -0.4197
14253TIP3    H164174   3.668   1.264   6.051  0.7351 -0.1249 -0.0500
14253TIP3    H264175   3.604   1.186   5.939 -0.2853  1.9730 -0.9835
14254TIP3   OH264176   4.659   6.611  12.137  0.0662 -0.0877  0.4691
14254TIP3    H164177   4.613   6.612  12.221 -0.7953  0.2708  0.0005
14254TIP3    H264178   4.597   6.571  12.075  1.7770 -3.3020  0.5767
14255TIP3   OH264179   5.382   4.602   5.877  0.1757  0.3344 -0.2204
14255TIP3    H164180   5.453   4.542   5.851  0.2573 -0.1147  0.9529
14255TIP3    H264181   5.308   4.577   5.822  0.1776 -0.9560  0.3191
14256TIP3   OH264182   1.575   1.188   2.258  0.0872 -0.0116  0.0326
14256TIP3    H164183   1.576   1.177   2.163  2.5068 -0.6106  0.0597
14256TIP3    H264184   1.494   1.145   2.287 -0.0320 -0.9986 -1.6509
14257TIP3   OH264185   1.392   4.964   1.887 -0.8093  0.2491  0.0134
14257TIP3    H164186   1.443   4.907   1.944  0.3985  1.0556 -0.2261
14257TIP3    H264187   1.336   4.904   1.837  1.4850 -0.9101 -1.3043
14258TIP3   OH264188   3.359   5.048  17.058 -0.1473 -0.3278 -0.4967
14258TIP3    H164189   3.423   5.008  17.117 -0.2991 -0.7809 -0.6390
14258TIP3    H264190   3.409   5.069  16.979  0.2245  0.9356  0.0359
14259TIP3   OH264191   5.827   1.772   1.588 -0.9703  0.4081  0.0634
14259TIP3    H164192   5.854   1.842   1.647  0.8072 -0.2075  0.0327
14259TIP3    H264193   5.736   1.755   1.612 -0.6848  1.0456  1.7578
14260TIP3   OH264194   3.083   4.959  12.418  0.5139 -0.2392 -0.2901
14260TIP3    H164195   3.068   4.987  12.509 -2.3252  0.0588 -0.7334
14260TIP3    H264196   3.173   4.983  12.400  0.8129  0.7447  2.1018
14261TIP3   OH264197   3.585   5.719  14.538  0.4520 -0.2489  0.2049
14261TIP3    H164198   3.519   5.682  14.480  0.6854  0.7080 -0.7118
14261TIP3    H264199   3.611   5.801  14.495  0.9877  0.2413  1.4211
14262TIP3   OH264200   2.807   5.872  17.349  0.1218  0.0239  0.4848
14262TIP3    H164201   2.839   5.952  17.389  0.0837  0.1947  0.1828
14262TIP3    H264202   2.726   5.852  17.396 -0.5259  0.8452 -0.2346
14263TIP3   OH264203   0.512   0.653   4.856 -0.2118 -0.2764 -0.5798
14263TIP3    H164204   0.577   0.640   4.925 -1.4906 -0.0769  0.6907
14263TIP3    H264205   0.551   0.612   4.779  1.2732 -0.4522  0.2334
14264TIP3   OH264206   2.654   1.942  11.082 -0.4309 -0.5058  0.1787
14264TIP3    H164207   2.599   2.016  11.107 -1.2580 -0.6580 -1.0997
14264TIP3    H264208   2.716   1.978  11.019  0.0061 -0.6300  0.5386
14265TIP3   OH264209   6.329   5.984   1.523  0.1225 -0.0471 -0.3142
14265TIP3    H164210   6.386   6.022   1.590  2.1265 -0.8914 -1.4620
14265TIP3    H264211   6.269   5.928   1.572 -0.7355  1.9339  1.0606
14266TIP3   OH264212   1.748   2.653   5.177  0.0472  0.4486 -0.4711
14266TIP3    H164213   1.772   2.743   5.153  0.1494  0.4886 -0.2223
14266TIP3    H264214   1.671   2.663   5.232  0.2015  0.4012 -0.2434
14267TIP3   OH264215   0.257   2.586  12.518 -0.3369 -0.1014  0.5099
14267TIP3    H164216   0.261   2.524  12.445  0.3074 -0.1774  0.6010
14267TIP3    H264217   0.245   2.671  12.477 -0.3233 -0.1861  0.3319
14268TIP3   OH264218   1.700   0.215  15.053 -0.1562  0.0965 -0.5077
14268TIP3    H164219   1.779   0.267  15.069  0.5362 -0.8244 -0.8049
14268TIP3    H264220   1.628   0.272  15.079  0.5667  1.2186 -0.8823
14269TIP3   OH264221   3.817   0.341  11.862 -0.5755  0.9317 -0.5150
14269TIP3    H164222   3.807   0.352  11.957 -1.1310 -0.2181 -0.4235
14269TIP3    H264223   3.904   0.303  11.852 -0.1544  1.8851 -0.5445
14270TIP3   OH264224   4.619   4.537   1.634 -0.2865 -0.1908 -0.0763
14270TIP3    H164225   4.700   4.513   1.680 -0.6461 -1.5528 -0.1100
14270TIP3    H264226   4.640   4.527   1.541  0.0191  1.2158 -0.1919
14271TIP3   OH264227   3.690   2.865  16.574 -0.4472 -0.0703  0.4495
14271TIP3    H164228   3.737   2.877  16.491  0.0851 -0.3949  0.6997
14271TIP3    H264229   3.599   2.887  16.553  0.0827  2.2394  0.3745
14272TIP3   OH264230   1.157   0.253   3.106 -0.0263 -0.1314 -0.4202
14272TIP3    H164231   1.172   0.226   3.197 -0.1013  2.1177  0.3353
14272TIP3    H264232   1.244   0.271   3.071 -0.0958  0.6318 -0.2185
14273TIP3   OH264233   5.278   4.504   2.718 -0.7299 -0.1816  0.1958
14273TIP3    H164234   5.292   4.587   2.763 -1.0044 -0.5085  0.8891
14273TIP3    H264235   5.305   4.438   2.781  0.8822 -0.6007 -0.8596
14274TIP3   OH264236   5.362   4.387   5.535  0.0001  0.6615 -0.2566
14274TIP3    H164237   5.321   4.454   5.590  1.8718  1.2816  0.4561
14274TIP3    H264238   5.370   4.310   5.592 -0.4120  0.4471 -0.4832
14275TIP3   OH264239   2.660   3.147   5.507  0.4205 -0.3828  0.1926
14275TIP3    H164240   2.639   3.159   5.600 -0.9160  0.2904 -0.1729
14275TIP3    H264241   2.643   3.054   5.491 -1.7500 -0.0353  0.0922
14276TIP3   OH264242   4.827   4.613  17.314 -0.6126 -0.2798  0.5641
14276TIP3    H164243   4.834   4.705  17.339  1.3691 -0.1044 -0.4200
14276TIP3    H264244   4.822   4.614  17.218 -0.7953 -1.1900  0.5533
14277TIP3   OH264245   0.807   4.682   4.849 -0.8947 -0.0514  0.2213
14277TIP3    H164246   0.777   4.772   4.834 -1.8066 -0.3718  0.0557
14277TIP3    H264247   0.884   4.692   4.905 -1.5256  0.7924  0.9797
14278TIP3   OH264248   1.665   0.996  14.538  0.0318 -0.0525  0.2466
14278TIP3    H164249   1.618   0.935  14.594  0.5594 -0.3477  0.3789
14278TIP3    H264250   1.621   0.991  14.454  1.1861 -2.0088 -0.2891
14279TIP3   OH264251   5.059   0.524  15.811 -0.2533 -0.3743  0.1815
14279TIP3    H164252   5.121   0.451  15.818 -0.3959 -0.4762  0.3922
14279TIP3    H264253   5.021   0.531  15.898 -1.3774 -1.0620 -0.2344
14280TIP3   OH264254   5.535   6.302   5.148 -0.2277  0.4311 -0.1481
14280TIP3    H164255   5.582   6.385   5.135 -3.6756  2.2807 -2.5657
14280TIP3    H264256   5.524   6.267   5.059 -2.3696 -0.4408  0.4134
14281TIP3   OH264257   5.219   5.683  13.073 -0.1135  0.3736 -0.7681
14281TIP3    H164258   5.269   5.715  13.148  0.0801  4.0034 -2.2088
14281TIP3    H264259   5.130   5.714  13.088 -0.4402 -0.2632 -1.3119
14282TIP3   OH264260   6.080   6.215   3.715 -0.3504  0.5311  0.3272
14282TIP3    H164261   6.017   6.283   3.687  0.7456  1.4834  0.0796
14282TIP3    H264262   6.159   6.235   3.665  0.1863 -0.5899  0.7114
14283TIP3   OH264263   0.191   0.207   2.745  0.0280  0.6018 -0.1865
14283TIP3    H164264   0.203   0.246   2.832 -0.3646 -1.9282  1.1240
14283TIP3    H264265   0.103   0.234   2.719 -1.1457 -1.0379  1.7043
14284TIP3   OH264266   5.231   5.709  14.963 -0.0017  0.0658  0.2376
14284TIP3    H164267   5.138   5.694  14.946  0.4723 -4.5670  0.4668
14284TIP3    H264268   5.234   5.738  15.054 -1.2001  0.5811  0.1372
14285TIP3   OH264269   4.826   1.967  16.241  0.7013  0.3634 -0.4231
14285TIP3    H164270   4.896   1.949  16.304  1.0451 -0.3064 -0.9822
14285TIP3    H264271   4.845   1.909  16.167 -0.6883 -0.1489 -0.4073
14286TIP3   OH264272   2.679   6.683   4.081  0.3391  0.0913 -0.3585
14286TIP3    H164273   2.681   6.723   4.168 -1.0048 -1.6651  0.5501
14286TIP3    H264274   2.759   6.631   4.076 -0.2174 -0.8689  0.4041
14287TIP3   OH264275   3.068   4.696   0.184 -0.3238 -0.2544  0.0279
14287TIP3    H164276   3.065   4.779   0.231  1.2074 -1.0284  1.6407
14287TIP3    H264277   3.012   4.637   0.236  1.4340 -1.1391  1.0040
14288TIP3   OH264278   3.017   2.925  14.129 -0.0510  0.2510  0.1927
14288TIP3    H164279   2.943   2.865  14.121  0.1254  0.2660 -2.9206
14288TIP3    H264280   2.977   3.012  14.135 -0.2917  0.0983  0.8023
14289TIP3   OH264281   5.630   0.357   3.192  0.0476 -0.3040 -0.7703
14289TIP3    H164282   5.538   0.374   3.172  0.1407 -0.9595 -1.8627
14289TIP3    H264283   5.677   0.435   3.162 -0.1897  0.2315  0.2220
14290TIP3   OH264284   6.033   3.785   5.584 -0.0364 -0.3016  0.4655
14290TIP3    H164285   6.082   3.705   5.566  0.9892  0.3447  0.2857
14290TIP3    H264286   6.101   3.851   5.602 -0.7501  1.0481 -1.4721
14291TIP3   OH264287   6.056   3.191  11.164  0.3922 -0.0026 -0.0484
14291TIP3    H164288   6.092   3.105  11.144  1.8804  0.6895 -0.4833
14291TIP3    H264289   6.000   3.212  11.089 -0.4550 -0.8293  0.3402
14292TIP3   OH264290   6.737   3.402  16.215 -0.1423 -0.1762  0.1501
14292TIP3    H164291   6.788   3.366  16.287 -1.4027 -0.7384  0.8058
14292TIP3    H264292   6.747   3.497  16.224  1.2832 -0.2840 -0.1378
14293TIP3   OH264293   3.628   0.057   0.276  0.0103  0.1919  0.1848
14293TIP3    H164294   3.719   0.083   0.287 -0.2938  0.8139  1.3460
14293TIP3    H264295   3.630  -0.038   0.274  0.3970  0.0328  3.3678
14294TIP3   OH264296   3.169   4.839   5.693 -0.4799  0.4255 -0.4296
14294TIP3    H164297   3.167   4.769   5.628 -0.6742  0.3152 -0.3067
14294TIP3    H264298   3.077   4.863   5.705 -0.4656  0.2879 -0.0267
14295TIP3   OH264299   4.564   1.752  15.960 -0.0215  0.5526 -0.6936
14295TIP3    H164300   4.495   1.782  16.019 -1.0997 -1.2781 -0.9382
14295TIP3    H264301   4.542   1.661  15.942 -0.6131  1.3609 -5.0723
14296TIP3   OH264302   3.504   3.896  12.518 -0.1956  0.5122  0.2065
14296TIP3    H164303   3.448   3.862  12.588  1.3996 -0.0571  1.2628
14296TIP3    H264304   3.583   3.925  12.563 -0.0184  2.2672 -1.1111
14297TIP3   OH264305   2.147   4.154  13.536  0.0665 -0.1344  0.3193
14297TIP3    H164306   2.131   4.248  13.526 -2.0334 -0.4273  0.4053
14297TIP3    H264307   2.124   4.117  13.450  1.1650 -0.5438  0.1926
14298TIP3   OH264308   3.916   0.564  14.967  0.3708  0.1677  0.0429
14298TIP3    H164309   3.967   0.485  14.949  0.6791  0.3417  0.1245
14298TIP3    H264310   3.833   0.550  14.923 -0.6372 -1.3479  2.2260
14299TIP3   OH264311   0.591   4.708   5.847 -0.0904 -0.1883  0.0452
14299TIP3    H164312   0.574   4.641   5.913  0.0308 -0.8515 -0.5821
14299TIP3    H264313   0.662   4.761   5.884 -2.7350  2.0901  2.3151
14300TIP3   OH264314   1.135   5.675   2.705  0.0367  0.4330 -0.1831
14300TIP3    H164315   1.171   5.589   2.728  1.5849  1.6243  2.1936
14300TIP3    H264316   1.047   5.676   2.743  0.1378  0.0259  0.0633
14301TIP3   OH264317   4.926   4.415  13.243  0.6016  0.2743 -0.4491
14301TIP3    H164318   4.879   4.497  13.256  0.4959 -0.2411  4.1234
14301TIP3    H264319   4.858   4.349  13.231  0.5021  0.4379 -0.7633
14302TIP3   OH264320   5.183   3.736  10.622 -0.3475 -0.3674  0.2674
14302TIP3    H164321   5.226   3.818  10.596 -1.8328  1.0425  1.9624
14302TIP3    H264322   5.247   3.668  10.601  0.4249  1.0545 -2.4157
14303TIP3   OH264323   6.340   4.760   4.672 -0.0422  0.4226 -0.1613
14303TIP3    H164324   6.266   4.718   4.716 -0.5947  0.3317 -1.1627
14303TIP3    H264325   6.396   4.687   4.645  1.5891  0.5519  2.5262
14304TIP3   OH264326   2.758   0.193   2.048  0.0389 -0.3464  0.2722
14304TIP3    H164327   2.841   0.209   2.093 -0.0663  0.4299  0.2148
14304TIP3    H264328   2.783   0.183   1.956  0.4576 -3.6747  0.6424
14305TIP3   OH264329   6.490   6.527  11.792  0.1970 -0.5386 -0.1083
14305TIP3    H164330   6.525   6.466  11.727  1.7883 -0.3732  0.5520
14305TIP3    H264331   6.532   6.611  11.771  0.6860 -0.4676  1.0608
14306TIP3   OH264332   3.488   4.880  13.920  0.3589  0.0803  0.2510
14306TIP3    H164333   3.547   4.955  13.915  1.2036 -0.6176 -0.6767
14306TIP3    H264334   3.546   4.804  13.927 -0.3529 -0.6966 -1.4749
14307TIP3   OH264335   3.512   0.314   2.970 -0.0307  0.1000  0.1323
14307TIP3    H164336   3.435   0.336   2.918 -1.6058  0.0160  2.3101
14307TIP3    H264337   3.494   0.226   3.003  0.7707  0.2779  1.0855
14308TIP3   OH264338   0.382   3.019   4.526 -0.3436 -0.2815  0.3676
14308TIP3    H164339   0.347   2.978   4.605 -1.2444  1.4973  0.9630
14308TIP3    H264340   0.316   3.001   4.458 -1.0581  0.6671  0.7853
14309TIP3   OH264341   4.802   1.041  13.825 -0.5262  0.2102 -0.1403
14309TIP3    H164342   4.727   1.008  13.874 -0.7748  0.9146 -0.0333
14309TIP3    H264343   4.763   1.094  13.755 -0.1191  1.5773  0.6255
14310TIP3   OH264344   6.500   5.658   4.431  0.3798 -0.4761  0.3050
14310TIP3    H164345   6.410   5.639   4.459  0.3184  0.8121  1.0318
14310TIP3    H264346   6.554   5.623   4.502  0.3991 -0.2075  0.4206
14311TIP3   OH264347   0.975   1.191  11.599 -0.4434  0.0214  0.0104
14311TIP3    H164348   1.058   1.143  11.595  0.1504  1.0292 -0.2260
14311TIP3    H264349   0.922   1.143  11.662  0.9019  0.2170  1.3457
14312TIP3   OH264350   5.234   1.563  12.753 -0.1109 -0.0353  0.1838
14312TIP3    H164351   5.242   1.659  12.750 -2.3318  0.2716  1.6055
14312TIP3    H264352   5.240   1.542  12.846 -0.0649 -1.2419 -0.0811
14313TIP3   OH264353   2.813   4.166  16.461 -0.9358 -0.2007  0.3182
14313TIP3    H164354   2.903   4.145  16.487 -0.8255 -0.5001 -0.2920
14313TIP3    H264355   2.818   4.253  16.424 -0.4738 -1.0476 -1.7505
14314TIP3   OH264356   2.231   0.388  11.682 -0.0481  0.6061  0.2768
14314TIP3    H164357   2.181   0.435  11.616 -2.2747  0.3627  1.6768
14314TIP3    H264358   2.228   0.296  11.654  1.6444  0.8472 -0.8266
14315TIP3   OH264359   5.545   4.857   3.689 -0.3160  0.8759  0.1680
14315TIP3    H164360   5.578   4.869   3.600  0.8255 -0.5908  0.3513
14315TIP3    H264361   5.621   4.870   3.745 -0.2434 -1.2875  0.6820
14316TIP3   OH264362   3.482   4.571  17.360  0.3561  0.1879 -0.3333
14316TIP3    H164363   3.560   4.574  17.417 -0.6955  0.5490  1.1509
14316TIP3    H264364   3.507   4.623  17.283  1.5687  0.3389  0.1300
14317TIP3   OH264365   1.260   1.503  14.780  0.5321  0.1793  0.2473
14317TIP3    H164366   1.333   1.548  14.822  2.6099 -0.8854 -1.9586
14317TIP3    H264367   1.224   1.568  14.719 -0.5324  0.7489  1.4321
14318TIP3   OH264368   1.120   1.560  14.508 -0.4493 -0.1517  0.2213
14318TIP3    H164369   1.037   1.526  14.474 -0.6097  0.5555 -0.1005
14318TIP3    H264370   1.171   1.581  14.430  0.8115 -2.3549  0.3608
14319TIP3   OH264371   5.796   1.639   6.350  0.0212  0.5183 -0.3327
14319TIP3    H164372   5.720   1.657   6.405  0.5458 -0.7614  0.8771
14319TIP3    H264373   5.804   1.715   6.293  0.3215  2.6482  2.3645
14320TIP3   OH264374   5.523   1.899  14.798  0.0285  0.2168 -0.3761
14320TIP3    H164375   5.537   1.856  14.714  0.5341 -0.2799 -0.0419
14320TIP3    H264376   5.549   1.834  14.863 -0.8498  0.4079  0.1865
14321TIP3   OH264377   5.924   0.633  12.059 -0.3073  0.6189  0.3332
14321TIP3    H164378   6.003   0.603  12.104 -0.9182 -0.6634  0.5817
14321TIP3    H264379   5.873   0.678  12.126  1.4443  4.1675 -0.4070
14322TIP3   OH264380   2.628   3.111  14.871  0.2439  0.1804 -0.5207
14322TIP3    H164381   2.534   3.094  14.863  0.0362  1.1728 -0.3478
14322TIP3    H264382   2.643   3.121  14.965  0.1616  1.8569 -0.6621
14323TIP3   OH264383   4.374   1.078   0.670 -0.2942 -0.2752  0.1400
14323TIP3    H164384   4.406   0.990   0.650  0.6002  0.0361  0.1410
14323TIP3    H264385   4.426   1.105   0.747  0.5610  0.8446 -0.7974
14324TIP3   OH264386   4.641   1.877   4.267  0.5458 -0.8664 -0.6386
14324TIP3    H164387   4.630   1.934   4.343 -0.7236 -1.8714 -0.0335
14324TIP3    H264388   4.632   1.936   4.192 -1.9723 -0.4162 -0.0572
14325TIP3   OH264389   3.403   1.535  15.105 -0.2499 -0.1403 -0.1329
14325TIP3    H164390   3.321   1.541  15.055  0.1566 -2.7927 -1.2460
14325TIP3    H264391   3.442   1.452  15.079  1.2849 -0.4523  2.7549
14326TIP3   OH264392   3.484   1.617  10.439 -0.5914  0.0510 -0.1077
14326TIP3    H164393   3.547   1.563  10.392 -1.1228 -0.2668 -0.4633
14326TIP3    H264394   3.486   1.584  10.529  1.0862  1.2446  0.3431
14327TIP3   OH264395   5.282   2.861  11.337  0.2782 -0.2036 -0.2731
14327TIP3    H164396   5.281   2.767  11.354  0.5674 -0.1330  0.1638
14327TIP3    H264397   5.195   2.880  11.303 -0.0232 -0.5160  0.2935
14328TIP3   OH264398   2.372   6.586   2.525 -0.0829  0.1066 -0.2621
14328TIP3    H164399   2.394   6.636   2.603 -0.8088  0.2183 -0.1239
14328TIP3    H264400   2.341   6.502   2.557  2.2266 -0.9376 -0.5206
14329TIP3   OH264401   6.352   0.687  13.132 -0.4308 -0.3695 -0.3123
14329TIP3    H164402   6.383   0.776  13.115  0.4875 -0.6877 -0.3272
14329TIP3    H264403   6.426   0.643  13.172 -0.6122 -1.3733 -1.0502
14330TIP3   OH264404   0.234   4.682   4.908 -0.5542  0.2993  0.3987
14330TIP3    H164405   0.237   4.708   4.816  0.3710  2.7077  1.0233
14330TIP3    H264406   0.306   4.731   4.949 -1.4218 -0.0993  2.5457
14331TIP3   OH264407   6.731   2.395  16.106 -0.1524  0.1501  0.2694
14331TIP3    H164408   6.800   2.443  16.153 -1.0212  0.1509  1.6114
14331TIP3    H264409   6.743   2.304  16.132  0.0452 -0.0202 -0.4083
14332TIP3   OH264410   0.626   5.374   0.330 -0.2697  0.4932 -0.3074
14332TIP3    H164411   0.653   5.298   0.279 -0.4814  0.0275  0.2544
14332TIP3    H264412   0.682   5.445   0.300  0.3566 -0.0341 -0.3954
14333TIP3   OH264413   2.842   1.682  15.007 -0.2035 -0.2700 -0.1957
14333TIP3    H164414   2.828   1.589  15.026 -2.9397  0.1506  0.3512
14333TIP3    H264415   2.797   1.696  14.923  0.2563  0.5337 -0.3142
14334TIP3   OH264416   2.377   6.377  14.313 -0.4664 -0.7926  0.2102
14334TIP3    H164417   2.302   6.394  14.371 -0.3694 -2.8708  1.0387
14334TIP3    H264418   2.453   6.380  14.371  0.1013  0.9004 -0.5578
14335TIP3   OH264419   6.202   3.328   0.649 -0.2691 -0.5303 -0.0096
14335TIP3    H164420   6.144   3.403   0.658  1.0022  0.6023 -0.7521
14335TIP3    H264421   6.179   3.291   0.563 -1.4476 -1.5206  0.7040
14336TIP3   OH264422   2.469   2.496  10.819 -0.4789 -0.0830  0.4149
14336TIP3    H164423   2.556   2.465  10.846  0.9372 -0.0726 -3.5151
14336TIP3    H264424   2.428   2.419  10.780  0.1713  1.1059 -2.9020
14337TIP3   OH264425   3.378   5.005  16.453  0.0599  0.1920 -0.1458
14337TIP3    H164426   3.416   5.042  16.372  0.0203  1.0764  0.2256
14337TIP3    H264427   3.454   4.992  16.510  0.2259 -1.4314 -0.6790
14338TIP3   OH264428   0.039   0.697   1.986  0.1846 -0.1385 -0.3453
14338TIP3    H164429  -0.039   0.719   1.934 -0.6429 -2.0074 -0.0010
14338TIP3    H264430   0.087   0.635   1.931  1.6908  1.3040 -0.7260
14339TIP3   OH264431   6.093   4.883   0.972 -0.5544 -0.7232 -0.1312
14339TIP3    H164432   6.134   4.956   0.924 -0.5069 -0.7983 -0.2059
14339TIP3    H264433   6.009   4.918   1.002 -0.7940 -0.8228 -0.6719
14340TIP3   OH264434   2.486   2.841   4.640  0.1703  0.4882  0.2836
14340TIP3    H164435   2.574   2.853   4.677  0.4871 -1.1543  0.1451
14340TIP3    H264436   2.474   2.916   4.583  1.4452  0.7994  0.3881
14341TIP3   OH264437   1.283   6.721  15.789 -0.6394 -0.2104 -0.6043
14341TIP3    H164438   1.371   6.711  15.752 -1.2771  0.8148 -2.5450
14341TIP3    H264439   1.245   6.633  15.786 -0.0274 -0.4808 -0.6264
14342TIP3   OH264440   1.159   4.121   4.938  0.2613 -0.1077  0.0015
14342TIP3    H164441   1.220   4.071   4.885  1.2741  1.4275 -0.3718
14342TIP3    H264442   1.110   4.174   4.875  2.4972  2.8502  0.5019
14343TIP3   OH264443   2.826   6.484  14.591  0.2286  0.7122 -0.3030
14343TIP3    H164444   2.816   6.567  14.544 -1.1173 -0.1366 -1.5630
14343TIP3    H264445   2.865   6.509  14.675  1.1598  2.4494 -1.1988
14344TIP3   OH264446   4.945   3.725  16.624 -0.3156 -0.6350 -0.0663
14344TIP3    H164447   4.949   3.755  16.715 -0.6866  1.2479 -0.6226
14344TIP3    H264448   5.036   3.704  16.601 -0.2709 -1.4885  0.8221
14345TIP3   OH264449   2.741   3.077  14.400 -0.5027  0.0721 -0.2984
14345TIP3    H164450   2.771   3.086  14.490  2.6342 -1.3172 -1.0664
14345TIP3    H264451   2.667   3.016  14.405  1.5685 -2.5171  1.1258
14346TIP3   OH264452   5.560   1.699   4.162  0.0367 -0.0409 -0.8682
14346TIP3    H164453   5.607   1.780   4.142 -0.9032  0.4025 -1.3673
14346TIP3    H264454   5.551   1.700   4.257  1.4450 -0.3865 -0.7106
14347TIP3   OH264455   4.838   3.338  14.428 -0.1441  0.6022  0.4195
14347TIP3    H164456   4.779   3.414  14.423  0.9963  1.4235 -1.1102
14347TIP3    H264457   4.917   3.365  14.382  0.8783 -1.0127  1.1366
14348TIP3   OH264458   3.594   0.126   2.205 -0.0113  0.4906  0.5099
14348TIP3    H164459   3.593   0.132   2.300 -0.9026  0.2233  0.5260
14348TIP3    H264460   3.512   0.168   2.177  1.1937  2.5074 -0.2789
14349TIP3   OH264461   3.188   4.314  12.041  0.1992 -0.0351  0.3335
14349TIP3    H164462   3.268   4.321  12.094  0.9571 -0.2618 -0.7529
14349TIP3    H264463   3.214   4.346  11.954 -0.9014 -0.0914 -0.0273
14350TIP3   OH264464   2.305   2.265   1.699 -0.3136  0.3953  0.3859
14350TIP3    H164465   2.396   2.293   1.695  0.7150 -1.9705  3.3237
14350TIP3    H264466   2.305   2.176   1.666 -1.0655 -0.3860  2.2962
14351TIP3   OH264467   4.841   1.696  11.673  0.0987 -0.2516  0.3940
14351TIP3    H164468   4.816   1.708  11.765  1.5273  0.6644  0.6909
14351TIP3    H264469   4.890   1.775  11.651  0.8740 -1.0320 -0.7807
14352TIP3   OH264470   3.602   1.160   3.449  0.1909  0.1781  0.2744
14352TIP3    H164471   3.598   1.114   3.533  1.2065 -1.9239 -0.7381
14352TIP3    H264472   3.685   1.208   3.452  0.9186 -0.9913  0.0238
14353TIP3   OH264473   3.007   1.944  13.023 -0.0825 -0.5618 -0.2485
14353TIP3    H164474   2.938   1.972  12.963  1.2190 -0.3683 -1.7149
14353TIP3    H264475   3.088   1.958  12.975  0.9527 -1.5325  1.1245
14354TIP3   OH264476   2.137   6.664   4.233 -0.2185  0.1732  0.1759
14354TIP3    H164477   2.148   6.569   4.232  1.4203  0.2966  1.9826
14354TIP3    H264478   2.062   6.678   4.290 -1.0886 -0.0360 -0.8733
14355TIP3   OH264479   0.334   2.206  14.984 -0.2790  0.0917 -0.3953
14355TIP3    H164480   0.390   2.206  15.062 -2.7100 -3.3460  1.6523
14355TIP3    H264481   0.392   2.177  14.913  1.6607  1.8625  0.3640
14356TIP3   OH264482   2.261   3.958   2.277  0.1746 -0.0153  0.3942
14356TIP3    H164483   2.200   3.980   2.347 -1.1248 -0.2180 -0.6388
14356TIP3    H264484   2.348   3.964   2.318 -0.5309  0.1033  1.9396
14357TIP3   OH264485   4.925   1.878  15.327  0.3934  0.2981  0.2209
14357TIP3    H164486   4.997   1.942  15.338 -0.4569  1.0837  1.5223
14357TIP3    H264487   4.896   1.860  15.416  0.7685 -2.1536 -0.1013
14358TIP3   OH264488   3.106   3.216   5.570 -0.1892 -0.6909  0.1639
14358TIP3    H164489   3.099   3.132   5.616  0.0114  0.1887  1.9133
14358TIP3    H264490   3.036   3.215   5.506 -0.4199 -2.0449  0.4083
14359TIP3   OH264491   4.556   3.636  11.879  0.2374  0.5281  0.1173
14359TIP3    H164492   4.511   3.721  11.882  1.0710  0.9484  1.3824
14359TIP3    H264493   4.649   3.658  11.875  0.4345 -0.3361 -0.2796
14360TIP3   OH264494   2.743   3.930   1.600 -0.4762  0.1323 -0.4408
14360TIP3    H164495   2.655   3.967   1.604 -0.6682 -0.1259 -1.7820
14360TIP3    H264496   2.751   3.896   1.511  0.8026 -0.3033 -0.1863
14361TIP3   OH264497   6.206   6.470  16.523  0.1894  0.4377 -0.0000
14361TIP3    H164498   6.283   6.527  16.530  0.2884  0.2367  0.5929
14361TIP3    H264499   6.165   6.474  16.609  0.8742 -1.3197  0.4588
14362TIP3   OH264500   0.440   2.321   2.985  0.0061 -0.2156 -0.0795
14362TIP3    H164501   0.513   2.375   2.956 -1.0365 -0.1305 -2.8484
14362TIP3    H264502   0.480   2.243   3.023  1.5506 -0.3212 -1.8150
14363TIP3   OH264503   6.272   4.243   2.108 -0.4905 -0.3405  0.8211
14363TIP3    H164504   6.296   4.297   2.184  0.0561 -0.3280  0.6419
14363TIP3    H264505   6.350   4.191   2.090  0.5769  1.9464 -1.7377
14364TIP3   OH264506   0.079   6.581  12.993  0.2145  0.1558 -0.2740
14364TIP3    H164507   0.094   6.581  13.088  0.6715  2.0538 -0.3176
14364TIP3    H264508   0.161   6.551  12.955 -0.0683 -0.9083 -0.0860
14365TIP3   OH264509   3.892   5.389  12.845  0.3357 -0.3864  0.1686
14365TIP3    H164510   3.887   5.299  12.813 -1.8351 -0.0632 -0.5951
14365TIP3    H264511   3.985   5.405  12.858  1.0681 -1.7174 -2.6521
14366TIP3   OH264512   5.644   3.098  11.315 -0.8550  0.2373  0.0987
14366TIP3    H164513   5.658   3.006  11.338  1.2231  0.8531  1.5887
14366TIP3    H264514   5.614   3.095  11.224 -0.4045 -1.8898 -0.0433
14367TIP3   OH264515   2.132   2.890   2.516 -0.5842  0.6421  0.0404
14367TIP3    H164516   2.089   2.964   2.473 -1.0835  0.4593  0.2119
14367TIP3    H264517   2.061   2.829   2.535  0.0100 -0.5768 -1.4424
14368TIP3   OH264518   0.159   4.010   4.224  0.0337  0.5088 -0.4517
14368TIP3    H164519   0.143   4.096   4.263 -0.2676  0.2209  0.0774
14368TIP3    H264520   0.230   3.974   4.276  0.6132  0.7054 -1.1012
14369TIP3   OH264521   4.865   2.989  15.268 -0.1553 -0.3460  0.6915
14369TIP3    H164522   4.843   3.075  15.232  0.7979 -0.7248 -0.9008
14369TIP3    H264523   4.782   2.942  15.270  0.0176 -1.4848 -4.4490
14370TIP3   OH264524   3.959   6.363  14.437  0.0376  0.1459 -0.1658
14370TIP3    H164525   3.938   6.320  14.354 -1.3809  0.9508 -0.2514
14370TIP3    H264526   3.940   6.297  14.504  1.1197 -0.4807 -0.4488
14371TIP3   OH264527   0.384   2.113   0.464 -0.2122  0.4922  0.4356
14371TIP3    H164528   0.417   2.026   0.442 -1.7161  0.6409 -3.1916
14371TIP3    H264529   0.457   2.156   0.509  1.4958 -1.7761  0.0167
14372TIP3   OH264530   5.293   1.946  16.390  0.0778 -0.1346  0.0290
14372TIP3    H164531   5.348   1.972  16.463  2.2525 -0.0320 -1.5515
14372TIP3    H264532   5.325   1.860  16.365 -1.5791 -0.7894  0.0414
14373TIP3   OH264533   1.209   2.171  13.268  0.0083  0.6613 -0.6402
14373TIP3    H164534   1.254   2.181  13.352  0.3412 -0.5583 -0.6568
14373TIP3    H264535   1.119   2.201  13.286 -0.3088 -0.8727  0.5503
14374TIP3   OH264536   1.814   1.456  17.301  0.4290  0.2778 -0.0450
14374TIP3    H164537   1.842   1.375  17.258  2.0811  0.4949  0.5449
14374TIP3    H264538   1.882   1.520  17.279 -0.7210  1.4607 -0.3037
14375TIP3   OH264539   1.156   1.152  13.345  0.2272  0.4418  0.0713
14375TIP3    H164540   1.249   1.169  13.356 -0.0199  2.2551 -0.1790
14375TIP3    H264541   1.114   1.235  13.371 -1.3217 -0.4060  0.3841
14376TIP3   OH264542   3.605   4.796   1.177  0.2713 -0.0223  0.0629
14376TIP3    H164543   3.513   4.820   1.165  0.3022 -0.4308 -1.0911
14376TIP3    H264544   3.644   4.872   1.221 -0.7328 -0.0940  1.1177
14377TIP3   OH264545   2.482   1.516   0.775 -0.3654 -0.7553 -0.8111
14377TIP3    H164546   2.533   1.578   0.828 -1.4471 -0.0242 -0.6071
14377TIP3    H264547   2.392   1.547   0.781 -1.0108 -2.5977 -0.3691
14378TIP3   OH264548   5.272   6.527  15.468 -0.1973 -0.3464 -0.2219
14378TIP3    H164549   5.294   6.620  15.465 -0.6680 -0.2494 -2.0260
14378TIP3    H264550   5.214   6.517  15.543 -1.5588  1.1641 -1.0325
14379TIP3   OH264551   3.518   1.329   4.667  0.1202  0.1541  0.1530
14379TIP3    H164552   3.606   1.321   4.702  0.5205 -0.2938 -0.9194
14379TIP3    H264553   3.518   1.276   4.587 -1.3898 -0.6359  0.6208
14380TIP3   OH264554   6.306   4.369   5.398  0.9188  0.0232 -0.2452
14380TIP3    H164555   6.351   4.435   5.452  0.0407 -0.3493  0.9767
14380TIP3    H264556   6.340   4.285   5.429 -0.5764 -0.2657  0.6998
14381TIP3   OH264557   1.383   2.908  13.204 -0.1571  0.2349 -0.2239
14381TIP3    H164558   1.469   2.933  13.239 -1.0875  1.3220  1.4231
14381TIP3    H264559   1.403   2.860  13.124  2.0372 -0.6418  0.7670
14382TIP3   OH264560   4.600   5.429   5.643 -0.5609  0.5146  0.1025
14382TIP3    H164561   4.625   5.469   5.727  0.2237  0.4113 -0.0759
14382TIP3    H264562   4.626   5.337   5.652 -1.1214  0.3411  0.0014
14383TIP3   OH264563   6.442   0.871   0.516 -0.0265  0.4719 -0.1504
14383TIP3    H164564   6.357   0.902   0.483 -0.0389  1.0968  0.4617
14383TIP3    H264565   6.447   0.905   0.605 -0.5694 -2.2566  1.0300
14384TIP3   OH264566   5.415   5.834   0.226  0.5731  0.3837  0.4661
14384TIP3    H164567   5.437   5.927   0.214  0.6592  0.1870 -1.2309
14384TIP3    H264568   5.489   5.799   0.274 -0.6439  1.6698  3.5061
14385TIP3   OH264569   4.972   5.975   0.680 -0.2837  0.4893  0.3400
14385TIP3    H164570   5.015   6.032   0.744  0.5127 -0.2138  0.4563
14385TIP3    H264571   4.903   6.029   0.642 -1.6058  0.5347  2.6628
14386TIP3   OH264572   4.122   1.546  16.797 -0.3181 -0.2829 -0.9790
14386TIP3    H164573   4.135   1.567  16.705 -0.9821  0.1740 -0.9778
14386TIP3    H264574   4.154   1.624  16.844  1.3122 -1.0642 -0.7430
14387TIP3   OH264575   3.590   0.993   5.725 -0.1539 -0.3257 -0.0342
14387TIP3    H164576   3.674   1.005   5.769  0.5181  1.2434 -1.6197
14387TIP3    H264577   3.526   0.988   5.796  1.2021 -1.0207  1.1877
14388TIP3   OH264578   4.279   3.869   0.912 -0.0567 -0.6492  0.5657
14388TIP3    H164579   4.240   3.932   0.852  0.4842  0.0261  0.9058
14388TIP3    H264580   4.205   3.817   0.944 -0.3289 -1.1506 -0.8135
14389TIP3   OH264581   1.702   3.250   0.941 -0.5057 -0.1421  0.1897
14389TIP3    H164582   1.766   3.185   0.912  0.5374  0.4365  1.1272
14389TIP3    H264583   1.733   3.333   0.903 -1.5325 -0.0838 -0.5650
14390TIP3   OH264584   0.863   6.433  16.236  0.5699 -0.5342  0.0395
14390TIP3    H164585   0.865   6.451  16.330  0.3959 -3.7493  0.7805
14390TIP3    H264586   0.954   6.431  16.209  0.5967  1.1371 -0.0739
14391TIP3   OH264587   6.269   2.942  14.246  0.0274 -0.0777 -0.2989
14391TIP3    H164588   6.349   2.984  14.279 -0.7166  1.5052 -0.4087
14391TIP3    H264589   6.198   2.994  14.283 -0.9644 -1.3488 -0.3556
14392TIP3   OH264590   4.228   4.595   0.981 -0.8967  0.2814  0.2309
14392TIP3    H164591   4.197   4.621   0.895  0.5719 -3.2786 -1.5923
14392TIP3    H264592   4.149   4.575   1.031 -1.7600  0.1230 -1.1456
14393TIP3   OH264593   1.248   1.394  13.988 -0.2764  0.3416 -0.1029
14393TIP3    H164594   1.303   1.442  14.050  1.7261 -1.6956 -0.1590
14393TIP3    H264595   1.160   1.401  14.023  0.0111  3.3884  0.2436
14394TIP3   OH264596   0.423   0.038  15.715  0.8458 -0.1215  0.4161
14394TIP3    H164597   0.453   0.012  15.628 -1.9612  1.4250 -1.1610
14394TIP3    H264598   0.419   0.133  15.712 -2.7750 -0.1061  0.7884
14395TIP3   OH264599   6.251   3.658  16.057 -0.2880 -0.1618  0.0124
14395TIP3    H164600   6.218   3.694  16.140  1.3866 -0.9690  1.0760
14395TIP3    H264601   6.182   3.599  16.028 -1.2344  0.7025  0.4082
14396TIP3   OH264602   0.338   0.857   2.366 -0.0527 -0.4048  0.1540
14396TIP3    H164603   0.336   0.787   2.431 -2.5609 -0.4664  0.1375
14396TIP3    H264604   0.245   0.878   2.352  0.3422 -0.5151 -3.4948
14397TIP3   OH264605   4.895   2.101   1.348  0.0253  0.4711  0.1675
14397TIP3    H164606   4.833   2.109   1.276 -0.0634  0.1639  0.2072
14397TIP3    H264607   4.867   2.023   1.396 -0.1868  0.9200  0.7941
14398TIP3   OH264608   4.175   1.745   6.708  0.0157 -0.0093  0.3404
14398TIP3    H164609   4.222   1.758   6.791 -0.3114 -1.4193  0.7793
14398TIP3    H264610   4.241   1.707   6.649  0.1836  0.7667  0.0132
14399TIP3   OH264611   4.456   5.688   2.200  0.3849 -0.6296  0.3053
14399TIP3    H164612   4.475   5.770   2.153  2.6940 -1.5899 -0.5876
14399TIP3    H264613   4.535   5.672   2.252 -0.6989 -1.4797  1.7651
14400TIP3   OH264614   6.267   5.121   5.059  0.1203  0.2437 -0.2141
14400TIP3    H164615   6.227   5.207   5.069 -0.4889 -0.0594 -0.0035
14400TIP3    H264616   6.270   5.086   5.148 -2.4467 -1.1897 -0.5866
14401TIP3   OH264617   1.644   4.648   5.092  0.3855 -0.0958 -0.2713
14401TIP3    H164618   1.624   4.740   5.111  2.3056  0.6430 -1.6155
14401TIP3    H264619   1.652   4.607   5.179  0.0184  1.1118  0.3552
14402TIP3   OH264620   1.282   1.087   2.989  0.1200  0.3322 -0.1282
14402TIP3    H164621   1.211   1.062   3.047  0.2182 -0.6032 -0.4036
14402TIP3    H264622   1.279   1.024   2.917  1.5559 -0.0906  0.1342
14403TIP3   OH264623   1.546   2.006   1.425 -0.2177  0.7381  0.2815
14403TIP3    H164624   1.536   2.056   1.506  1.0765  2.1663 -0.4076
14403TIP3    H264625   1.462   2.016   1.380 -0.1751  1.7931  0.4261
14404TIP3   OH264626   0.755   5.357   3.811  0.4232 -0.1946  0.1022
14404TIP3    H164627   0.745   5.394   3.723  1.9927  0.4617  0.1828
14404TIP3    H264628   0.798   5.425   3.862 -0.6650 -0.4733  1.4812
14405TIP3   OH264629   5.132   1.806  13.482 -0.1748  0.1196 -0.4578
14405TIP3    H164630   5.219   1.770  13.466  0.3470  0.7837  0.7614
14405TIP3    H264631   5.080   1.731  13.509  0.2015 -0.1659 -0.5147
14406TIP3   OH264632   3.703   3.256   5.200  0.0844 -0.8475  0.1163
14406TIP3    H164633   3.682   3.343   5.232 -1.5350 -1.4091  0.6989
14406TIP3    H264634   3.790   3.237   5.236  0.4992  0.5556 -0.1200
14407TIP3   OH264635   1.729   2.302   4.618 -0.3304 -0.3661  0.1939
14407TIP3    H164636   1.790   2.341   4.680  0.7987 -1.7329 -0.0180
14407TIP3    H264637   1.667   2.373   4.598  0.4040  0.6628  1.3954
14408TIP3   OH264638   6.374   3.581   3.047  0.4495  0.2204  0.1641
14408TIP3    H164639   6.346   3.672   3.036 -0.0321 -0.0319 -0.8841
14408TIP3    H264640   6.292   3.531   3.050  0.7250 -0.2969 -0.5480
14409TIP3   OH264641   6.729   4.656   5.008  0.3102 -0.3783  0.0028
14409TIP3    H164642   6.824   4.661   5.003  0.2374  1.5498 -0.3249
14409TIP3    H264643   6.698   4.732   4.959 -1.3838 -0.4710  0.8347
14410TIP3   OH264644   0.488   2.101   3.165 -0.2946  0.0599  0.8085
14410TIP3    H164645   0.461   2.012   3.143 -1.4001 -0.0961  2.5884
14410TIP3    H264646   0.544   2.092   3.242  1.8325  0.7276 -0.5840
14411TIP3   OH264647   3.225   3.809   1.682  0.4242 -0.1616  0.1574
14411TIP3    H164648   3.256   3.849   1.600  0.5956 -0.4556  0.0795
14411TIP3    H264649   3.136   3.843   1.692  0.3666 -0.1969 -0.2026
14412TIP3   OH264650   4.150   1.930  11.634 -0.0171  0.5619 -0.0681
14412TIP3    H164651   4.120   2.019  11.651  3.2297  1.5687  1.2731
14412TIP3    H264652   4.166   1.928  11.540 -2.5880  0.4464 -0.5685
14413TIP3   OH264653   4.706   1.674   5.433  0.0352  0.0234  0.0686
14413TIP3    H164654   4.779   1.685   5.372  1.9567 -0.5321  2.1406
14413TIP3    H264655   4.665   1.591   5.408 -2.0622  1.8079 -3.1324
14414TIP3   OH264656   3.538   5.139  10.413  0.4225 -0.4480  0.0121
14414TIP3    H164657   3.626   5.107  10.392  0.6232 -0.5644  0.9716
14414TIP3    H264658   3.533   5.134  10.508  0.0697  1.3838  0.1237
14415TIP3   OH264659   2.204   2.213  12.809 -0.7921 -0.0509 -0.0428
14415TIP3    H164660   2.238   2.288  12.761 -1.7097  0.2075 -0.2922
14415TIP3    H264661   2.244   2.137  12.767  0.7080  0.3094  0.6671
14416TIP3   OH264662   5.861   3.928  17.042 -0.2616 -0.0373  0.3204
14416TIP3    H164663   5.924   3.966  17.103 -0.2878 -0.3354  0.5311
14416TIP3    H264664   5.779   3.972  17.062 -0.1972  0.1057  0.2741
14417TIP3   OH264665   4.699   2.382   4.926 -0.3769  0.2837  0.1162
14417TIP3    H164666   4.687   2.474   4.951 -3.3237 -0.1209  0.6203
14417TIP3    H264667   4.616   2.340   4.951  1.5576 -2.9586  1.7397
14418TIP3   OH264668   4.463   5.706   5.863 -0.5912  0.5774  0.6643
14418TIP3    H164669   4.456   5.712   5.958 -0.4232 -2.0536  0.9048
14418TIP3    H264670   4.384   5.659   5.835  0.6144 -1.0716 -0.1483
14419TIP3   OH264671   0.524   6.640   3.117  0.7086  0.2047 -0.3228
14419TIP3    H164672   0.524   6.593   3.033  0.1849  0.0071 -0.2158
14419TIP3    H264673   0.571   6.582   3.177 -0.0376 -0.2572 -0.1611
14420TIP3   OH264674   6.557   2.180   0.895  0.1174  0.2211  0.3836
14420TIP3    H164675   6.495   2.115   0.861 -2.7109  2.5603  0.7268
14420TIP3    H264676   6.614   2.199   0.820 -0.2692 -1.1673 -0.3076
14421TIP3   OH264677   5.781   1.222   5.268 -0.1151  0.0718  0.0543
14421TIP3    H164678   5.797   1.132   5.240  0.0844  0.5907 -1.6318
14421TIP3    H264679   5.776   1.272   5.186 -0.6399  1.5275  0.9363
14422TIP3   OH264680   5.067   2.604   4.884 -0.3164 -0.1860 -0.2975
14422TIP3    H164681   4.984   2.640   4.916 -0.3829  1.4217 -2.0290
14422TIP3    H264682   5.062   2.616   4.789  2.1222  0.4869 -0.4000
14423TIP3   OH264683   5.316   4.916   2.411  1.0494  0.3344  0.5607
14423TIP3    H164684   5.380   4.900   2.481  1.0639 -0.1665  0.4352
14423TIP3    H264685   5.274   4.998   2.436 -0.2925 -0.7824  2.2034
14424TIP3   OH264686   6.627   4.629   0.375  0.3604  0.6872  0.0984
14424TIP3    H164687   6.716   4.601   0.352  0.0654 -0.5380  0.3778
14424TIP3    H264688   6.570   4.583   0.314 -0.2733 -0.9692  1.8103
14425TIP3   OH264689   4.467   4.613  15.587 -0.1850  0.6042 -0.7273
14425TIP3    H164690   4.483   4.588  15.496 -2.3134 -1.1860 -0.6957
14425TIP3    H264691   4.500   4.539  15.639 -1.4709  0.3405 -0.2450
14426TIP3   OH264692   2.924   5.148  16.217  0.0249 -0.5751 -0.4766
14426TIP3    H164693   2.893   5.064  16.252  0.1349  0.0582  1.2433
14426TIP3    H264694   3.007   5.163  16.262  0.6854 -0.1866 -1.7956
14427TIP3   OH264695   1.554   4.095  17.248  0.2831 -0.4058  0.2591
14427TIP3    H164696   1.622   4.028  17.249  0.2131 -0.5385  2.5859
14427TIP3    H264697   1.602   4.178  17.252  0.3604 -0.4833  1.3249
14428TIP3   OH264698   1.332   3.866  11.829  0.1917 -0.7409  0.4577
14428TIP3    H164699   1.266   3.935  11.829 -0.2206 -1.1337  0.1837
14428TIP3    H264700   1.407   3.905  11.876  0.7350  0.6097 -1.4235
14429TIP3   OH264701   6.515   2.466   0.857  0.3723  0.4684  0.4549
14429TIP3    H164702   6.567   2.414   0.796  0.2382 -0.2450  0.9330
14429TIP3    H264703   6.540   2.557   0.839  1.0160  0.2059 -0.0189
14430TIP3   OH264704   5.459   1.069   5.048  0.3963  0.1179  0.3039
14430TIP3    H164705   5.479   1.162   5.060  2.2959 -0.2896  0.5354
14430TIP3    H264706   5.385   1.069   4.987  1.4158  1.7643 -1.0501
14431TIP3   OH264707   3.747   4.810  11.673  0.1228 -0.4297  0.2624
14431TIP3    H164708   3.737   4.739  11.735  2.5388 -1.3713 -0.2997
14431TIP3    H264709   3.778   4.884  11.726  3.0807 -1.4894  0.1954
14432TIP3   OH264710   6.651   3.633  11.530  0.0582 -0.2935 -0.2798
14432TIP3    H164711   6.692   3.548  11.512 -0.0588 -0.5138  0.4326
14432TIP3    H264712   6.615   3.623  11.619 -2.4816 -0.4791 -1.2453
14433TIP3   OH264713   4.025   0.453  11.001  0.0571 -0.0201  0.3667
14433TIP3    H164714   3.973   0.429  10.924  3.5096 -0.4476 -2.0502
14433TIP3    H264715   4.029   0.374  11.054  0.2200 -0.6845 -0.6268
14434TIP3   OH264716   5.146   5.090   0.286 -0.1496  0.0359  0.2021
14434TIP3    H164717   5.199   5.163   0.317  0.2075 -0.6660  1.3111
14434TIP3    H264718   5.203   5.014   0.294 -1.7597 -1.0352  3.0599
14435TIP3   OH264719   4.505   5.404  13.856 -0.0997 -0.0555  0.2163
14435TIP3    H164720   4.517   5.309  13.849 -1.2290 -0.1851 -0.1154
14435TIP3    H264721   4.483   5.432  13.767 -1.2410  0.2806  0.5823
14436TIP3   OH264722   0.840   3.493   2.336  0.1004  0.5183 -0.4091
14436TIP3    H164723   0.921   3.533   2.305  0.7267 -0.0301  0.4983
14436TIP3    H264724   0.867   3.409   2.374 -0.8501  0.4506  0.1538
14437TIP3   OH264725   0.466   5.061  13.038  0.3916 -0.1884  0.0365
14437TIP3    H164726   0.436   5.042  12.950  1.1322  1.4588 -0.6107
14437TIP3    H264727   0.529   5.132  13.027 -1.2123  1.6926  2.1114
14438TIP3   OH264728   1.166   5.150   5.179  0.6088  0.3272 -0.2922
14438TIP3    H164729   1.121   5.231   5.202 -0.4146 -0.0210 -0.9813
14438TIP3    H264730   1.255   5.160   5.214  0.3422  1.5210  0.0681
14439TIP3   OH264731   6.157   1.374   2.383  0.6117  0.3570  0.2362
14439TIP3    H164732   6.200   1.335   2.458  0.0469 -3.1132 -1.0398
14439TIP3    H264733   6.070   1.400   2.415  1.5614  2.1725  1.4892
14440TIP3   OH264734   3.010   1.534   2.380 -0.1731  0.0351 -0.2251
14440TIP3    H164735   3.047   1.574   2.458 -0.9013 -0.8972  0.6242
14440TIP3    H264736   3.034   1.442   2.386 -0.9989 -0.2149 -0.6337
14441TIP3   OH264737   4.329   6.448   3.681  0.2788 -0.1091 -0.3327
14441TIP3    H164738   4.367   6.427   3.766  0.9616  1.0837 -0.3254
14441TIP3    H264739   4.273   6.524   3.697 -0.0232 -0.2153 -0.8461
14442TIP3   OH264740   2.462   3.911  13.150  0.6064 -0.3572  0.2356
14442TIP3    H164741   2.461   3.999  13.186 -0.3079 -1.0151  1.8984
14442TIP3    H264742   2.387   3.908  13.090  0.4475 -0.1017  0.4218
14443TIP3   OH264743   6.174   5.662   1.229 -0.4445 -0.4173 -0.0500
14443TIP3    H164744   6.238   5.599   1.262 -0.6115 -1.1081 -1.0272
14443TIP3    H264745   6.180   5.656   1.134 -2.7970 -1.3811 -0.2054
14444TIP3   OH264746   2.877   3.745  15.772  0.5562  0.0655  0.1749
14444TIP3    H164747   2.934   3.747  15.695  0.1043  1.5977 -0.1613
14444TIP3    H264748   2.791   3.720  15.737  0.1756  1.5140  0.0304
14445TIP3   OH264749   4.371   4.637   1.989  0.6210 -0.3064 -0.1477
14445TIP3    H164750   4.463   4.638   1.960  0.4906  2.2531 -0.7392
14445TIP3    H264751   4.326   4.690   1.923 -1.1754 -0.9645  0.5165
14446TIP3   OH264752   3.816   3.771  17.155  0.0508  0.0891 -0.4661
14446TIP3    H164753   3.779   3.841  17.209  1.8328  0.1091  0.8088
14446TIP3    H264754   3.765   3.775  17.074 -2.9275 -0.1219  1.2286
14447TIP3   OH264755   0.521   4.078   4.210 -0.3378 -0.6359  0.1215
14447TIP3    H164756   0.568   3.998   4.232  0.8311  0.3507  1.3613
14447TIP3    H264757   0.554   4.144   4.271 -1.3635  0.7761 -0.7646
14448TIP3   OH264758   1.080   0.470   5.093  0.5474 -0.2120 -0.1576
14448TIP3    H164759   1.174   0.481   5.083  0.5746  0.4479  0.7570
14448TIP3    H264760   1.048   0.555   5.122 -0.3560 -0.3874 -0.5964
14449TIP3   OH264761   5.843   3.454  15.005 -0.2779  0.4107 -0.1605
14449TIP3    H164762   5.768   3.463  15.065  0.4280  0.0984  0.7897
14449TIP3    H264763   5.817   3.505  14.928 -1.1799  0.8969  0.4348
14450TIP3   OH264764   5.277   3.524  15.627  0.2539  0.7434  0.4596
14450TIP3    H164765   5.251   3.600  15.575  0.0577  0.0202 -0.5431
14450TIP3    H264766   5.340   3.478  15.571 -1.3088 -1.0267  0.0361
14451TIP3   OH264767   1.485   0.631  15.168  0.3496  0.1438  0.2512
14451TIP3    H164768   1.514   0.697  15.104  0.1197  0.0197  0.0162
14451TIP3    H264769   1.435   0.680  15.232  1.2676  0.4005  0.7901
14452TIP3   OH264770   2.905   2.313   5.664 -0.9185  0.0973  0.2556
14452TIP3    H164771   3.000   2.321   5.659 -0.8533  0.9022  1.9995
14452TIP3    H264772   2.888   2.220   5.648  0.3200 -0.3880  1.5459
14453TIP3   OH264773   1.036   0.604  15.437 -0.4644  0.5289 -0.5614
14453TIP3    H164774   1.041   0.509  15.427 -2.3198  0.2743  0.3354
14453TIP3    H264775   1.065   0.639  15.352 -0.3390 -0.8520 -1.1162
14454TIP3   OH264776   0.192   1.645   0.091 -0.3314  0.2637  0.0268
14454TIP3    H164777   0.191   1.569   0.150  0.8169  0.0436 -0.1949
14454TIP3    H264778   0.172   1.608   0.005 -2.6200  0.6768  0.3178
14455TIP3   OH264779   3.013   5.097   3.718  0.3079 -0.3134  0.1538
14455TIP3    H164780   3.065   5.074   3.795  0.2740  1.1702  0.6398
14455TIP3    H264781   3.048   5.041   3.648  0.3973 -1.6119  1.2068
14456TIP3   OH264782   3.227   1.420  14.473 -0.4159  0.5742  0.1308
14456TIP3    H164783   3.161   1.477  14.514 -1.0279  0.2482 -0.3808
14456TIP3    H264784   3.260   1.367  14.545  0.6017  1.9710  0.7311
14457TIP3   OH264785   0.153   0.551  14.660 -0.1174  0.4798 -0.0562
14457TIP3    H164786   0.182   0.639  14.633  1.0899  0.2156  0.3172
14457TIP3    H264787   0.058   0.560  14.671  0.0539  1.9073  0.5809
14458TIP3   OH264788   0.993   2.733  16.646 -0.2564 -0.4749 -0.6219
14458TIP3    H164789   1.021   2.676  16.717 -1.1795 -0.1644  0.0163
14458TIP3    H264790   1.015   2.821  16.676 -1.3289 -0.2771 -0.3702
14459TIP3   OH264791   1.851   4.074  15.163  0.6682  0.2152  0.2942
14459TIP3    H164792   1.809   4.002  15.117 -0.6939  0.8165  0.5714
14459TIP3    H264793   1.938   4.040  15.185  0.6488 -0.7471 -1.0070
14460TIP3   OH264794   1.091   3.520  14.672 -0.0652 -0.0813  0.2161
14460TIP3    H164795   1.000   3.534  14.700  0.8711 -0.7301  4.1876
14460TIP3    H264796   1.097   3.425  14.661  0.6133 -0.3624  2.4517
14461TIP3   OH264797   3.601   0.922  12.250 -0.3734  0.0343 -0.0825
14461TIP3    H164798   3.530   0.947  12.191 -0.6968 -0.4848  0.0801
14461TIP3    H264799   3.602   0.990  12.317 -0.3386  0.3540 -0.4107
14462TIP3   OH264800   3.905   3.620   0.273 -0.1481 -0.1527  0.4194
14462TIP3    H164801   3.892   3.561   0.348 -0.0824 -1.3701 -0.5021
14462TIP3    H264802   3.989   3.662   0.291 -0.9978  0.9924  1.9455
14463TIP3   OH264803   4.608   6.298   0.767 -0.7174  0.4152 -0.2533
14463TIP3    H164804   4.645   6.368   0.822 -0.9593 -1.0965  1.9488
14463TIP3    H264805   4.566   6.345   0.694 -0.7721  2.5674  1.0681
14464TIP3   OH264806   0.818   4.636  14.717 -0.0638  0.0761 -0.3094
14464TIP3    H164807   0.813   4.612  14.625  2.6406 -0.5376 -0.3766
14464TIP3    H264808   0.752   4.582  14.760  0.7737 -1.9722 -1.4866
14465TIP3   OH264809   3.924   1.582  14.950  0.0578 -0.5490  0.1919
14465TIP3    H164810   3.934   1.667  14.994  2.7017 -1.1043  0.8616
14465TIP3    H264811   3.982   1.586  14.875 -2.6954 -0.4678 -2.1127
14466TIP3   OH264812   5.140   1.574   4.487  0.6397 -0.4747 -0.2514
14466TIP3    H164813   5.076   1.552   4.555  0.1749  0.9731 -0.1915
14466TIP3    H264814   5.089   1.582   4.407  0.4891  1.9494  0.0263
14467TIP3   OH264815   2.850   2.073   3.543 -0.2193 -0.4112  0.3694
14467TIP3    H164816   2.831   2.165   3.523  0.2794 -0.3554  0.1615
14467TIP3    H264817   2.882   2.075   3.633 -0.5427 -0.4279  0.4886
14468TIP3   OH264818   3.522   2.893  12.320 -0.0485  0.0785  0.6798
14468TIP3    H164819   3.587   2.842  12.271  1.7596  1.6049  1.3738
14468TIP3    H264820   3.444   2.839  12.319  1.8626 -2.9347  1.7463
14469TIP3   OH264821   4.194   3.033   6.363  0.0248 -0.5235  0.4717
14469TIP3    H164822   4.121   3.092   6.383  0.4652 -0.0075  0.5872
14469TIP3    H264823   4.198   3.032   6.268 -2.2686 -3.2228  0.2802
14470TIP3   OH264824   5.029   2.313   3.763  0.6388  0.1948  0.3858
14470TIP3    H164825   5.002   2.297   3.673  1.0977 -1.1352  0.4620
14470TIP3    H264826   4.995   2.238   3.812  0.3930  0.9030  1.3201
14471TIP3   OH264827   3.189   5.121  15.638 -0.1344 -0.1162 -0.3535
14471TIP3    H164828   3.247   5.060  15.594  0.1059  0.6261 -1.0965
14471TIP3    H264829   3.104   5.109  15.596 -0.7219 -1.6796  1.1887
14472TIP3   OH264830   5.761   5.623  14.259 -0.5210  0.5918  0.2208
14472TIP3    H164831   5.822   5.556  14.288 -1.4682 -0.3205  0.1461
14472TIP3    H264832   5.808   5.671  14.191  0.9490  1.4052  1.7227
14473TIP3   OH264833   0.630   0.422   1.196 -0.0244  0.3179  0.0282
14473TIP3    H164834   0.608   0.479   1.269  2.2353 -0.0967  1.1043
14473TIP3    H264835   0.651   0.338   1.237  0.5114 -0.1495 -1.1600
14474TIP3   OH264836   1.503   5.943  17.409  0.2734 -0.7426 -0.3094
14474TIP3    H164837   1.429   5.887  17.432  0.0877  0.1079  1.3242
14474TIP3    H264838   1.462   6.025  17.379  0.4279  0.5307  2.5965
14475TIP3   OH264839   3.071   3.509   5.557 -0.0936 -0.5777  0.0421
14475TIP3    H164840   3.035   3.501   5.646  0.6578  0.1305  0.4280
14475TIP3    H264841   3.017   3.451   5.504 -1.1770 -0.2756  0.7799
14476TIP3   OH264842   5.364   3.075  10.562 -0.8226  0.2322  0.2899
14476TIP3    H164843   5.385   2.986  10.533  0.5457 -0.0677  2.0247
14476TIP3    H264844   5.407   3.132  10.498  0.5171 -0.3948  0.5921
14477TIP3   OH264845   5.787   3.889   0.594  0.3356 -0.5791 -0.2756
14477TIP3    H164846   5.758   3.829   0.663 -2.5676  0.6698 -0.2473
14477TIP3    H264847   5.840   3.954   0.639 -2.0129  0.5675  1.0303
14478TIP3   OH264848   3.818   1.134   4.201  0.5771  0.1240 -0.1387
14478TIP3    H164849   3.799   1.188   4.278 -0.6595 -0.6351  0.1109
14478TIP3    H264850   3.901   1.168   4.168  2.7138 -1.3795  3.2125
14479TIP3   OH264851   0.214   4.476  14.340 -0.6283  0.5445  0.1949
14479TIP3    H164852   0.182   4.408  14.400 -1.3978  1.1462  0.4872
14479TIP3    H264853   0.186   4.558  14.380  0.6562  1.0730  0.0665
14480TIP3   OH264854   1.046   0.107   2.758  0.1825  0.4606  0.4760
14480TIP3    H164855   1.031   0.191   2.800  2.2019  1.4063 -0.5905
14480TIP3    H264856   1.083   0.129   2.673 -0.7626 -1.4851 -0.5051
14481TIP3   OH264857   3.298   2.730  12.299 -0.8360 -0.1988  0.0408
14481TIP3    H164858   3.239   2.795  12.261  0.6569  0.9222 -0.4486
14481TIP3    H264859   3.307   2.664  12.230 -1.1595 -0.1450 -0.0571
14482TIP3   OH264860   1.095   3.141   2.119 -0.5631 -0.3374 -0.3943
14482TIP3    H164861   1.064   3.135   2.210  0.4212  1.7222  0.1477
14482TIP3    H264862   1.016   3.155   2.068 -0.9026  1.4766  0.5484
14483TIP3   OH264863   0.529   0.229   0.137  0.2539  0.2188 -0.2727
14483TIP3    H164864   0.625   0.229   0.133  0.5058  1.1308  2.7897
14483TIP3    H264865   0.505   0.321   0.149 -0.8960 -0.1346  0.2836
14484TIP3   OH264866   5.670   1.229   3.630 -0.2781 -0.0400 -0.5356
14484TIP3    H164867   5.762   1.208   3.643  0.2904 -0.2265 -4.0411
14484TIP3    H264868   5.623   1.153   3.665  0.7862  0.2201  1.6331
14485TIP3   OH264869   1.839   6.177  16.999 -0.3429  0.2564  0.1328
14485TIP3    H164870   1.858   6.268  16.979 -1.2309  0.6890  1.1226
14485TIP3    H264871   1.916   6.128  16.969 -0.3687  1.1685 -1.5236
14486TIP3   OH264872   2.679   4.577  11.529 -0.2840  0.3212 -0.1037
14486TIP3    H164873   2.637   4.664  11.530 -0.2744  0.3796 -1.8263
14486TIP3    H264874   2.606   4.516  11.539 -0.4144  0.5053  0.0923
14487TIP3   OH264875   3.578   2.310  17.128  0.0403 -0.3891  0.3351
14487TIP3    H164876   3.639   2.332  17.057 -0.4902 -2.0971 -0.7226
14487TIP3    H264877   3.633   2.305  17.206  1.1064 -0.9828 -0.4235
14488TIP3   OH264878   3.545   6.705  10.726 -0.4260 -0.1081  0.4709
14488TIP3    H164879   3.483   6.772  10.696 -0.7781 -0.4839  0.3470
14488TIP3    H264880   3.509   6.675  10.810 -0.3601 -0.2614  0.4441
14489TIP3   OH264881   3.899   1.165  11.478  0.8522  0.0193 -0.2378
14489TIP3    H164882   3.875   1.161  11.571 -1.0993 -0.8844 -0.7227
14489TIP3    H264883   3.968   1.099  11.469  2.5572  1.5260  0.8974
14490TIP3   OH264884   6.449   4.909  15.323 -0.0444 -0.2812 -0.2903
14490TIP3    H164885   6.508   4.934  15.253 -0.3143 -0.7260 -0.6786
14490TIP3    H264886   6.504   4.906  15.401 -0.3490  3.8422  0.3290
14491TIP3   OH264887   1.284   1.337  11.247 -0.2680 -0.1370  0.5274
14491TIP3    H164888   1.375   1.365  11.260 -0.2220  0.7661 -1.4285
14491TIP3    H264889   1.236   1.381  11.317  0.5450  0.8149  0.5092
14492TIP3   OH264890   2.788   1.188   1.188 -0.5366  0.0611 -0.0908
14492TIP3    H164891   2.734   1.235   1.124  0.1939  0.2224 -0.6081
14492TIP3    H264892   2.852   1.253   1.217  1.0274 -0.8057 -1.4382
14493TIP3   OH264893   2.469   5.741  12.028 -0.3034  0.1127 -0.6756
14493TIP3    H164894   2.447   5.654  11.995 -2.1974 -0.0351  0.7958
14493TIP3    H264895   2.546   5.767  11.978  0.6774 -2.6429 -0.7709
14494TIP3   OH264896   0.256   6.340   5.590  0.0347 -0.5736  0.0434
14494TIP3    H164897   0.183   6.296   5.546 -2.1922  3.2053 -0.5720
14494TIP3    H264898   0.233   6.337   5.683 -0.3959 -0.3433 -0.0496
14495TIP3   OH264899   2.746   3.432   5.184  0.0094 -0.3339 -0.1281
14495TIP3    H164900   2.732   3.347   5.142 -0.1717 -0.5029  0.2709
14495TIP3    H264901   2.764   3.492   5.111  0.5352 -0.7917 -0.3783
14496TIP3   OH264902   3.174   0.537  11.991 -0.2649  0.2717  0.0897
14496TIP3    H164903   3.114   0.524  12.064 -2.6617 -2.3741 -2.1149
14496TIP3    H264904   3.245   0.474  12.007 -0.9709 -0.5697 -0.0026
14497TIP3   OH264905   3.237   0.106  12.476 -0.2543  0.0307  0.1213
14497TIP3    H164906   3.304   0.124  12.542  0.3552 -0.0762 -0.4618
14497TIP3    H264907   3.282   0.056  12.409 -0.2853  1.9353 -1.4222
14498TIP3   OH264908   0.682   0.114   1.784  0.0515 -0.3354 -0.0203
14498TIP3    H164909   0.614   0.055   1.816  1.3080 -0.5078  2.5832
14498TIP3    H264910   0.658   0.199   1.820  0.3248 -0.0498 -0.5069
14499TIP3   OH264911   3.955   4.412   0.370 -0.4798 -0.4264 -0.1198
14499TIP3    H164912   3.993   4.378   0.451  1.7667 -0.5559 -1.1546
14499TIP3    H264913   4.029   4.452   0.324 -1.7175 -0.2643 -2.0710
14500TIP3   OH264914   6.156   3.774  16.570 -0.5184  0.3988  0.2440
14500TIP3    H164915   6.190   3.862  16.584 -3.0413  1.5358 -0.0994
14500TIP3    H264916   6.197   3.721  16.638  1.0386  1.8228  0.4807
14501TIP3   OH264917   4.373   4.693  15.022 -0.3212  0.2231  0.7271
14501TIP3    H164918   4.380   4.783  14.990  1.3296  0.3068  1.2294
14501TIP3    H264919   4.341   4.643  14.946 -3.5166  1.5178  1.0438
14502TIP3   OH264920   5.852   0.961  17.372 -0.2809 -0.0978 -0.4465
14502TIP3    H164921   5.926   1.015  17.399 -1.5700  1.2642  0.5648
14502TIP3    H264922   5.833   0.906  17.448 -1.5446  1.0300  0.1027
14503TIP3   OH264923   1.418   3.131  15.954  0.4360  0.2461 -0.0506
14503TIP3    H164924   1.418   3.221  15.987 -2.2709 -0.1337  1.2474
14503TIP3    H264925   1.380   3.080  16.026  1.1458 -1.8195 -1.0779
14504TIP3   OH264926   1.933   4.918  13.267  0.1427 -0.2885 -0.0131
14504TIP3    H164927   1.902   4.980  13.202  0.0453 -0.0094  0.2987
14504TIP3    H264928   1.990   4.858  13.218  3.4497  2.3048  0.2772
14505TIP3   OH264929   2.814   2.948  13.470 -0.0520 -0.4092  0.4876
14505TIP3    H164930   2.774   2.864  13.449 -0.0238 -0.7413  1.6845
14505TIP3    H264931   2.810   2.954  13.565  0.5499  0.6496  0.4701
14506TIP3   OH264932   5.661   5.410  10.972  0.0505  0.1515 -0.4476
14506TIP3    H164933   5.717   5.335  10.995 -0.2098 -0.1619 -0.8091
14506TIP3    H264934   5.721   5.484  10.967  0.0792  0.3072  1.5143
14507TIP3   OH264935   4.186   1.982  17.158 -0.1492 -0.0259 -0.0292
14507TIP3    H164936   4.125   1.936  17.102  1.6179 -1.3931 -0.9162
14507TIP3    H264937   4.226   2.048  17.101 -0.1324  0.2544  0.3025
14508TIP3   OH264938   1.831   4.307  11.457 -0.3182  0.3078 -0.2144
14508TIP3    H164939   1.843   4.287  11.364  1.8293  1.6675 -0.3169
14508TIP3    H264940   1.859   4.228  11.503 -0.7429 -0.1332 -0.7019
14509TIP3   OH264941   5.487   0.980  11.688  0.1715 -0.0271  0.2874
14509TIP3    H164942   5.541   0.958  11.612 -0.5473  0.2351 -0.3090
14509TIP3    H264943   5.486   0.900  11.740 -0.4402 -0.6548 -0.6553
14510TIP3   OH264944   0.433   6.062  16.709  0.7382  0.0592 -0.6096
14510TIP3    H164945   0.527   6.047  16.713  0.5023 -1.2250  0.9791
14510TIP3    H264946   0.394   5.981  16.743 -0.9471  0.5370 -1.3058
14511TIP3   OH264947   5.660   3.916   1.534  0.4469 -0.0239  0.1162
14511TIP3    H164948   5.599   3.855   1.493  1.2444 -1.2982  0.7517
14511TIP3    H264949   5.704   3.864   1.601  1.5084  1.1317  0.3513
14512TIP3   OH264950   1.565   3.899   2.407  0.2326 -0.4569  0.1919
14512TIP3    H164951   1.518   3.936   2.482  0.7623  0.4660  0.0891
14512TIP3    H264952   1.565   3.805   2.423 -0.4539 -0.3493  0.8832
14513TIP3   OH264953   5.808   0.555  14.768  0.8088  0.3254 -0.3488
14513TIP3    H164954   5.888   0.595  14.735  1.1503 -0.0118  0.0592
14513TIP3    H264955   5.805   0.581  14.860  0.8260 -0.2582 -0.1818
14514TIP3   OH264956   4.263   1.773  13.830  0.2571 -0.0879 -0.2779
14514TIP3    H164957   4.242   1.682  13.848  0.6039  0.1437  1.4701
14514TIP3    H264958   4.332   1.795  13.892  0.8912  1.0887 -1.3553
14515TIP3   OH264959   1.503   0.463   2.760 -0.2846 -0.1715  0.0479
14515TIP3    H164960   1.444   0.444   2.687  0.0172  1.0479 -0.5356
14515TIP3    H264961   1.446   0.488   2.832 -0.5011  2.4376 -0.9342
14516TIP3   OH264962   1.068   5.643   0.301  0.1017 -0.2896  0.3386
14516TIP3    H164963   1.138   5.609   0.356 -1.3536 -0.7507  2.0378
14516TIP3    H264964   1.060   5.735   0.327 -0.1611 -0.3417  0.4540
14517TIP3   OH264965   2.628   3.621  10.671  0.0160 -0.1294  0.0535
14517TIP3    H164966   2.651   3.685  10.603 -2.1558 -1.4065 -2.0739
14517TIP3    H264967   2.532   3.626  10.676  0.0156 -1.2322  1.8761
14518TIP3   OH264968   3.212   5.496  16.749  0.7865 -0.3190 -0.0864
14518TIP3    H164969   3.170   5.410  16.744 -1.7637  0.8041  0.2500
14518TIP3    H264970   3.144   5.553  16.784  2.3194  1.9125 -0.5651
14519TIP3   OH264971   5.763   4.428  14.174 -0.1973  0.3079  0.6273
14519TIP3    H164972   5.852   4.452  14.147 -0.6223  0.3197 -0.8714
14519TIP3    H264973   5.710   4.445  14.097 -1.1263 -2.0018  0.6671
14520TIP3   OH264974   3.030   6.728  15.014  0.3771  0.9219  0.4031
14520TIP3    H164975   3.010   6.767  15.099 -2.9231  0.5552 -0.0778
14520TIP3    H264976   3.076   6.797  14.967  0.8799  1.6935  1.9512
14521TIP3   OH264977   5.258   1.785   6.283 -0.4513 -0.1006 -0.0170
14521TIP3    H164978   5.178   1.752   6.242  0.5420 -3.1327  0.2384
14521TIP3    H264979   5.245   1.770   6.377  0.4873 -0.8416  0.0073
14522TIP3   OH264980   6.373   3.890   3.014 -0.0018  0.5609 -0.1709
14522TIP3    H164981   6.347   3.977   2.984 -0.7575  0.4964  0.2782
14522TIP3    H264982   6.357   3.891   3.108  0.0371 -0.0467 -0.1527
14523TIP3   OH264983   3.672   1.258  15.749  0.2768  0.4654  0.2288
14523TIP3    H164984   3.623   1.323  15.798 -0.9370  0.6549 -1.1498
14523TIP3    H264985   3.662   1.285  15.657  2.0027 -0.1642 -0.1740
14524TIP3   OH264986   4.520   3.623   0.928  0.5025  0.3005 -0.5662
14524TIP3    H164987   4.578   3.578   0.867 -0.1901 -0.0204 -1.0097
14524TIP3    H264988   4.518   3.568   1.006  0.6624  0.2250 -0.6170
14525TIP3   OH264989   3.621   6.193  13.812 -0.5015  0.6831  0.2700
14525TIP3    H164990   3.595   6.258  13.747  0.3970 -0.3134 -1.1262
14525TIP3    H264991   3.704   6.225  13.847 -0.1056  0.3556 -0.3514
14526TIP3   OH264992   6.521   6.207   5.294  0.0346  0.2312 -0.8528
14526TIP3    H164993   6.486   6.146   5.359  0.9338 -2.9396 -3.0622
14526TIP3    H264994   6.602   6.165   5.264 -1.1501  0.5778 -5.1323
14527TIP3   OH264995   0.159   4.148  15.302  0.5725  0.2833  0.1687
14527TIP3    H164996   0.200   4.179  15.221 -1.4004  0.4766 -0.8263
14527TIP3    H264997   0.167   4.221  15.363  0.8804  0.6575 -0.3105
14528TIP3   OH264998   0.619   6.229   3.792  0.0624 -0.3089 -0.4903
14528TIP3    H164999   0.681   6.180   3.846  1.6867  0.3766 -1.6545
14528TIP3    H265000   0.554   6.263   3.854 -1.4197 -4.1729  0.3566
14529TIP3   OH265001   1.440   3.844   4.017  0.0765 -0.0598 -0.4887
14529TIP3    H165002   1.396   3.862   4.100 -1.2817  2.8914 -1.7088
14529TIP3    H265003   1.390   3.893   3.952  1.8536 -1.2224 -2.8742
14530TIP3   OH265004   1.642   5.969  14.342 -0.0322  0.3251  0.3719
14530TIP3    H165005   1.588   5.983  14.419 -0.6186 -1.5981  0.3470
14530TIP3    H265006   1.713   5.911  14.372  0.6344  0.8427 -0.1708
14531TIP3   OH265007   6.519   4.909   3.163 -0.2907  0.2502 -0.6852
14531TIP3    H165008   6.519   4.859   3.244  1.3881  0.8538 -0.2697
14531TIP3    H265009   6.432   4.895   3.126 -1.6343  1.0534  1.8810
14532TIP3   OH265010   5.712   6.495   5.063  0.7647  0.6714  0.2086
14532TIP3    H165011   5.731   6.503   4.969 -3.3903 -2.3716 -1.1899
14532TIP3    H265012   5.785   6.445   5.098  1.7397  0.6378 -1.7244
14533TIP3   OH265013   5.734   0.803   5.358  0.1847 -0.3460 -0.5268
14533TIP3    H165014   5.776   0.724   5.392 -0.1958 -0.1944  0.3148
14533TIP3    H265015   5.768   0.874   5.412 -0.9225 -0.1819 -0.0181
14534TIP3   OH265016   1.459   1.049  13.045  0.5208  0.0039  0.2168
14534TIP3    H165017   1.450   1.142  13.068  0.0786 -0.3471  1.5808
14534TIP3    H265018   1.551   1.038  13.022  0.8268  0.5534  1.1530
14535TIP3   OH265019   1.800   5.405  13.623  0.2185  0.3814 -0.0013
14535TIP3    H165020   1.862   5.468  13.661  1.8191 -0.4766 -1.1297
14535TIP3    H265021   1.820   5.322  13.666  0.0904  0.0103 -0.6552
14536TIP3   OH265022   0.086   2.382  16.663 -0.1698  0.0690 -0.1062
14536TIP3    H165023   0.039   2.448  16.714 -1.7693 -0.4867 -0.7922
14536TIP3    H265024   0.156   2.431  16.620  0.0374  0.8892  1.1007
14537TIP3   OH265025   2.688   3.012   4.757  0.4670  0.3277 -0.0676
14537TIP3    H165026   2.734   3.023   4.673 -1.7916  0.0294 -1.4153
14537TIP3    H265027   2.685   3.101   4.794 -0.1423  0.8205 -1.2368
14538TIP3   OH265028   1.314   5.595   5.616  0.3506  0.3693 -0.0124
14538TIP3    H165029   1.357   5.585   5.531 -0.1690 -0.2662 -0.2030
14538TIP3    H265030   1.381   5.570   5.680  0.0575 -1.3941 -0.3404
14539TIP3   OH265031   5.855   2.397   4.641  0.0893  0.1398 -0.1566
14539TIP3    H165032   5.767   2.359   4.634  0.7268 -1.4688 -0.0040
14539TIP3    H265033   5.913   2.327   4.611  1.4067  0.7393  0.8969
14540TIP3   OH265034   4.572   5.308  14.277  0.0854 -0.5278 -0.6437
14540TIP3    H165035   4.626   5.308  14.356  0.1842 -0.3675 -0.7106
14540TIP3    H265036   4.559   5.216  14.256 -1.4687 -0.6482  0.5970
14541TIP3   OH265037   0.799   6.548  14.379 -0.2702  0.2325  0.5264
14541TIP3    H165038   0.813   6.610  14.308 -1.8665  1.3152  1.1099
14541TIP3    H265039   0.733   6.487  14.346  0.5498 -0.5820  0.3329
14542TIP3   OH265040   5.046   5.841   1.861 -0.8786 -0.0791 -0.2270
14542TIP3    H165041   5.010   5.759   1.829  0.0228 -0.7763  0.4621
14542TIP3    H265042   5.124   5.814   1.912 -0.6721  1.1791  0.1522
14543TIP3   OH265043   4.124   4.754  17.323 -0.0243  0.0643  0.2829
14543TIP3    H165044   4.089   4.669  17.297 -0.5524  0.4579 -0.3163
14543TIP3    H265045   4.059   4.789  17.383 -0.2602  0.4408 -0.1891
14544TIP3   OH265046   4.277   4.205   5.513  0.0906 -0.2461  0.0897
14544TIP3    H165047   4.200   4.177   5.464 -0.0350 -1.1098  0.7460
14544TIP3    H265048   4.249   4.282   5.561  0.6613  1.6125 -2.3585
14545TIP3   OH265049   4.265   3.147   0.387 -0.0281 -0.4784  0.4258
14545TIP3    H165050   4.287   3.238   0.368  1.8386 -1.5295 -3.6784
14545TIP3    H265051   4.189   3.129   0.333 -0.4673 -1.3575  1.3037
14546TIP3   OH265052   3.791   0.720  16.475 -0.2004  0.1737 -0.1690
14546TIP3    H165053   3.763   0.811  16.470 -0.0202  0.2504  0.2252
14546TIP3    H265054   3.812   0.697  16.384 -0.2261  0.5302 -0.2678
14547TIP3   OH265055   0.749   1.829   5.623 -1.0890 -0.3086 -0.4473
14547TIP3    H165056   0.737   1.803   5.714  1.6295  1.8117  0.6345
14547TIP3    H265057   0.783   1.751   5.580 -1.5245 -1.0756  0.5614
14548TIP3   OH265058   4.921   2.924   5.100 -0.5587  0.5944  0.1555
14548TIP3    H165059   4.899   2.883   5.016 -0.5206  1.4562 -0.2923
14548TIP3    H265060   4.908   2.855   5.165  0.2137 -0.3402 -0.6467
14549TIP3   OH265061   5.766   2.861  16.158 -0.0496 -0.0001  0.1725
14549TIP3    H165062   5.750   2.938  16.105  0.8508  0.1780  0.1497
14549TIP3    H265063   5.681   2.842  16.199 -0.8525 -0.3243 -1.5391
14550TIP3   OH265064   3.085   5.838   1.785 -0.1460  0.0341  0.3465
14550TIP3    H165065   3.107   5.930   1.773  0.1144  0.2022  1.9577
14550TIP3    H265066   3.153   5.791   1.736  0.5522  0.6651  0.6958
14551TIP3   OH265067   1.728   6.001  15.997 -0.5839 -0.0582 -0.2478
14551TIP3    H165068   1.785   6.024  15.924 -1.0055  0.8757 -0.3044
14551TIP3    H265069   1.785   5.959  16.061 -0.3932 -1.7939 -1.5085
14552TIP3   OH265070   0.311   3.381   2.533  0.3417  0.6268  1.2062
14552TIP3    H165071   0.312   3.470   2.569  1.4709  0.6936  1.0666
14552TIP3    H265072   0.254   3.332   2.591 -0.6369  1.5360  1.0459
14553TIP3   OH265073   4.984   3.361   3.962 -0.3921 -0.2300  0.3467
14553TIP3    H165074   5.011   3.425   3.896  0.8842 -1.2450 -0.1694
14553TIP3    H265075   5.008   3.401   4.046  0.2882  0.0199  0.0388
14554TIP3   OH265076   2.118   1.482  15.792 -0.6348  0.3076 -0.0156
14554TIP3    H165077   2.086   1.413  15.850 -0.1960  1.0052  1.0857
14554TIP3    H265078   2.039   1.527  15.762 -0.9820 -1.0396 -1.2763
14555TIP3   OH265079   5.490   4.235   1.208  0.4802  0.2614  0.0579
14555TIP3    H165080   5.459   4.148   1.183 -0.9308  0.6305  0.4147
14555TIP3    H265081   5.584   4.233   1.192  0.7867 -1.9173  1.7630
14556TIP3   OH265082   3.106   6.364  11.680  0.7953  0.6132 -0.5463
14556TIP3    H165083   3.092   6.270  11.693  2.4350  0.2275 -1.2997
14556TIP3    H265084   3.041   6.389  11.615  0.9109 -0.1953 -0.9847
14557TIP3   OH265085   3.375   2.122  17.059 -0.1827  0.0949 -0.5223
14557TIP3    H165086   3.429   2.177  17.116 -1.9067  1.6382 -0.2994
14557TIP3    H265087   3.336   2.183  16.997  0.9363 -1.4299 -2.8583
14558TIP3   OH265088   3.867   0.071  12.588 -0.0818 -0.2730 -0.0217
14558TIP3    H165089   3.962   0.071  12.578  0.0501 -0.5647  1.0339
14558TIP3    H265090   3.839  -0.015  12.557 -0.3177  0.6461 -2.6092
14559TIP3   OH265091   3.674   3.832  13.038  0.0540 -0.0923 -0.1126
14559TIP3    H165092   3.698   3.776  12.964 -0.1906 -0.5599  0.1637
14559TIP3    H265093   3.627   3.905  12.998  3.0988  1.6403 -0.8734
14560TIP3   OH265094   5.591   3.993  13.102  0.0288  0.0758 -0.1929
14560TIP3    H165095   5.637   4.014  13.183 -0.5066  0.6959 -0.0384
14560TIP3    H265096   5.555   3.906  13.117  0.1364  0.0857  0.1419
14561TIP3   OH265097   4.020   4.100  14.910 -0.8076  0.2181 -0.7153
14561TIP3    H165098   4.077   4.176  14.900  0.9206 -0.7446  1.0409
14561TIP3    H265099   3.933   4.132  14.888 -0.1714  2.7628  0.1451
14562TIP3   OH265100   3.788   0.298  15.978 -0.1594 -0.1718  0.0825
14562TIP3    H165101   3.759   0.218  16.020 -1.0199 -0.0434 -0.2522
14562TIP3    H265102   3.790   0.277  15.885 -0.7016  0.2874 -0.0353
14563TIP3   OH265103   4.248   1.235  16.592  0.1983 -0.0412 -0.3086
14563TIP3    H165104   4.268   1.145  16.620  2.0566  0.8785  1.5818
14563TIP3    H265105   4.229   1.282  16.673 -1.6040  1.1169 -1.3477
14564TIP3   OH265106   2.127   4.261   5.722  0.3155  0.3275  0.3924
14564TIP3    H165107   2.064   4.332   5.717 -1.3377 -1.0816  0.3107
14564TIP3    H265108   2.089   4.199   5.783  0.5135 -1.5885 -1.3208
14565TIP3   OH265109   3.536   2.315  11.377  0.2087  0.2047 -0.0184
14565TIP3    H165110   3.445   2.343  11.375  0.7103  2.0835  1.2451
14565TIP3    H265111   3.585   2.388  11.341  1.3069 -0.3806  0.2401
14566TIP3   OH265112   2.395   2.675   1.590 -0.2126 -0.0827 -0.8650
14566TIP3    H165113   2.457   2.739   1.555  1.3903 -0.8934  0.3556
14566TIP3    H265114   2.363   2.714   1.672 -1.0137  0.1414 -1.2741
14567TIP3   OH265115   0.615   3.239  12.376 -0.7222  0.1228  0.0144
14567TIP3    H165116   0.523   3.266  12.371 -1.5811 -2.1631  1.6753
14567TIP3    H265117   0.634   3.201  12.291 -1.5119  0.0424 -0.1286
14568TIP3   OH265118   6.051   6.001   2.583 -0.1569  0.1302  0.4199
14568TIP3    H165119   6.127   5.990   2.640 -0.1255  0.1486  0.3811
14568TIP3    H265120   6.088   6.023   2.497 -0.0448 -2.8597 -0.4189
14569TIP3   OH265121   0.131   2.594  10.595  0.3638 -0.0337  0.7224
14569TIP3    H165122   0.177   2.596  10.511  2.0667 -0.2159  1.6043
14569TIP3    H265123   0.139   2.684  10.628  0.8810 -0.2743  1.2721
14570TIP3   OH265124   1.337   3.794   5.634 -0.0401  0.5992 -0.4139
14570TIP3    H165125   1.319   3.805   5.727 -0.4296 -0.0226 -0.4101
14570TIP3    H265126   1.418   3.844   5.620 -0.8594  2.0621 -0.1026
14571TIP3   OH265127   6.764   1.813  14.474 -0.8800  0.1789  0.3731
14571TIP3    H165128   6.801   1.788  14.559  3.4336  0.0270 -1.2864
14571TIP3    H265129   6.801   1.899  14.457 -1.2136 -0.0332 -1.5633
14572TIP3   OH265130   3.697   5.111   2.663 -0.5699 -0.3924  0.1842
14572TIP3    H165131   3.742   5.178   2.612 -1.3196  1.5887  1.9299
14572TIP3    H265132   3.605   5.139   2.662 -0.4265  0.8281  3.8946
14573TIP3   OH265133   1.698   6.095  16.442  0.1996  0.1748  0.4520
14573TIP3    H165134   1.696   6.125  16.533 -0.5620 -0.8683  0.7838
14573TIP3    H265135   1.612   6.056  16.426  1.5363 -3.1325  0.5020
14574TIP3   OH265136   4.401   4.640   2.269  0.4280 -0.5287 -0.6791
14574TIP3    H165137   4.437   4.552   2.279  2.7640  0.4667  0.4367
14574TIP3    H265138   4.373   4.645   2.177  2.1269 -1.7901 -1.3096
14575TIP3   OH265139   3.863   5.990   0.804  0.3429  0.3690 -0.0510
14575TIP3    H165140   3.933   6.024   0.749  0.6287 -0.7499 -0.4085
14575TIP3    H265141   3.886   5.897   0.817 -1.1483 -0.0582 -0.2989
14576TIP3   OH265142   5.564   2.361   4.584 -0.2338  0.0735 -0.1164
14576TIP3    H165143   5.525   2.274   4.592 -0.9241  0.2644 -1.2109
14576TIP3    H265144   5.553   2.400   4.671 -0.0422 -0.8653  0.3455
14577TIP3   OH265145   3.432   4.529   0.693  0.0656  0.6276 -0.2066
14577TIP3    H165146   3.380   4.546   0.614 -0.0313 -0.3931 -0.3735
14577TIP3    H265147   3.368   4.527   0.764  0.2442  2.3862  0.0532
14578TIP3   OH265148   6.580   1.771   2.804  0.7185  0.0050 -0.8273
14578TIP3    H165149   6.543   1.796   2.889  0.0094 -1.6213 -0.6063
14578TIP3    H265150   6.562   1.845   2.747  1.9679  1.5000  0.6233
14579TIP3   OH265151   5.693   1.866   0.686 -0.2141  0.0426 -0.6133
14579TIP3    H165152   5.628   1.898   0.623 -1.1693  0.8615  0.7176
14579TIP3    H265153   5.646   1.864   0.769  1.4085  0.4460  0.3630
14580TIP3   OH265154   4.930   3.227   1.308 -0.1723 -0.4011  0.0150
14580TIP3    H165155   4.906   3.135   1.295 -3.8507  0.1495  1.7232
14580TIP3    H265156   4.970   3.229   1.396 -1.1014 -0.2493  0.4430
14581TIP3   OH265157   1.130   2.381   3.050 -0.3732 -0.5292 -0.3516
14581TIP3    H165158   1.132   2.477   3.050  0.2257 -0.5279  0.3591
14581TIP3    H265159   1.156   2.357   3.139  0.0191 -1.3529 -0.6765
14582TIP3   OH265160   3.502   2.254   0.917 -0.1437 -0.2021 -0.4850
14582TIP3    H165161   3.464   2.326   0.867  0.0534  0.4954  0.3291
14582TIP3    H265162   3.523   2.293   1.002  1.4774 -0.8000 -0.5645
14583TIP3   OH265163   0.722   6.566   4.880  0.0310  0.5192  0.1507
14583TIP3    H165164   0.636   6.572   4.840 -0.0654  2.3938  0.5215
14583TIP3    H265165   0.714   6.497   4.946 -0.0585 -1.9797 -2.3078
14584TIP3   OH265166   2.636   3.594  15.983  0.1401  0.1512  0.4134
14584TIP3    H165167   2.564   3.584  15.921  2.2107  0.3922 -2.2610
14584TIP3    H265168   2.605   3.658  16.047 -1.3879  1.6661 -1.6985
14585TIP3   OH265169   3.774   3.090   3.377  0.0862  0.2353 -0.4292
14585TIP3    H165170   3.801   3.152   3.445  0.6486 -0.9247  0.4321
14585TIP3    H265171   3.683   3.114   3.358 -0.2255  0.3200  1.0519
14586TIP3   OH265172   5.597   5.391   4.808  0.4882 -0.0758 -0.0486
14586TIP3    H165173   5.575   5.404   4.715 -1.1769 -1.2092  0.1421
14586TIP3    H265174   5.690   5.414   4.814  0.7614 -0.4337 -2.0906
14587TIP3   OH265175   6.534   5.257  16.224  0.1998 -0.1541  0.7345
14587TIP3    H165176   6.513   5.294  16.138  0.4134  0.3357  0.8949
14587TIP3    H265177   6.468   5.188  16.236 -1.0600  1.0414  1.0137
14588TIP3   OH265178   5.074   0.384   4.517  0.1356 -0.0181 -0.2816
14588TIP3    H165179   5.017   0.429   4.455 -0.4577 -0.2281  0.1058
14588TIP3    H265180   5.051   0.421   4.602 -0.1288 -0.8054 -0.0003
14589TIP3   OH265181   5.561   3.171   4.704  0.0118  0.0571 -0.1706
14589TIP3    H165182   5.606   3.242   4.750  1.6943 -1.5415  0.7373
14589TIP3    H265183   5.505   3.131   4.770 -1.4250  0.8464 -0.8373
14590TIP3   OH265184   3.569   1.901   2.509  0.2161 -0.3925 -0.3574
14590TIP3    H165185   3.532   1.836   2.450  1.0318 -2.5471  1.3606
14590TIP3    H265186   3.494   1.934   2.559  0.1220 -2.4854  0.9993
14591TIP3   OH265187   0.450   1.486   1.548 -0.2121  0.6338 -0.0287
14591TIP3    H165188   0.448   1.478   1.644 -1.6790  2.2402  0.1411
14591TIP3    H265189   0.360   1.507   1.525  0.0318 -0.1592 -1.8424
14592TIP3   OH265190   3.489   0.109  12.628  0.1300  0.8028  0.2320
14592TIP3    H165191   3.498   0.045  12.699  1.8500  2.0376  1.1952
14592TIP3    H265192   3.552   0.177  12.649 -0.6232  2.1216 -1.5444
14593TIP3   OH265193   2.588   2.573  15.233  0.3386 -0.1043  0.1290
14593TIP3    H165194   2.682   2.589  15.238  0.7484 -2.4779  1.3176
14593TIP3    H265195   2.573   2.552  15.141  1.3228 -1.4497  0.2545
14594TIP3   OH265196   4.943   5.106  12.305  0.0239 -0.1479 -0.1189
14594TIP3    H165197   4.919   5.095  12.397  0.7233  0.4101  0.1433
14594TIP3    H265198   4.986   5.192  12.302 -1.0871  0.3954 -1.1952
14595TIP3   OH265199   4.772   2.353  10.518  0.3093 -0.2380 -0.0992
14595TIP3    H165200   4.781   2.352  10.422 -1.2519  0.3902 -0.2793
14595TIP3    H265201   4.705   2.287  10.536  2.2492 -2.1013  0.8218
14596TIP3   OH265202   5.336   0.503  13.367 -1.0338  0.2386  0.0185
14596TIP3    H165203   5.427   0.479  13.385 -0.8900 -0.7517 -1.8436
14596TIP3    H265204   5.334   0.598  13.380  0.1090  0.2002  0.6415
14597TIP3   OH265205   4.294   5.756   3.077 -0.1208 -0.0349  0.5927
14597TIP3    H165206   4.258   5.677   3.117  1.7218 -0.3063  1.8531
14597TIP3    H265207   4.327   5.807   3.151  1.6781  0.3485 -0.3943
14598TIP3   OH265208   1.891   5.197   1.771 -0.0507 -0.2106  0.1406
14598TIP3    H165209   1.855   5.208   1.859 -0.1225 -1.6551  0.3081
14598TIP3    H265210   1.917   5.105   1.767  2.5789  0.4662 -0.3513
14599TIP3   OH265211   5.766   5.174  14.440 -0.4325 -0.4807 -0.0349
14599TIP3    H165212   5.696   5.169  14.506 -1.2703  2.1100 -0.6278
14599TIP3    H265213   5.734   5.121  14.367 -0.3806 -1.7634  0.8373
14600TIP3   OH265214   1.833   1.252   5.751 -0.3053  0.2093  0.0617
14600TIP3    H165215   1.892   1.267   5.678  0.0359 -1.0830  0.0427
14600TIP3    H265216   1.888   1.261   5.829 -0.6994  1.7337  0.1962
14601TIP3   OH265217   3.828   0.466  10.810  0.4148 -0.7264  0.5101
14601TIP3    H165218   3.809   0.499  10.722 -0.3349 -1.7368  0.2713
14601TIP3    H265219   3.774   0.519  10.868  0.8918 -0.0750  0.3698
14602TIP3   OH265220   5.009   5.102  13.103  0.0794  0.0894  0.1861
14602TIP3    H165221   5.084   5.043  13.100  1.6746  2.0141 -0.1888
14602TIP3    H265222   5.047   5.189  13.114 -1.9159  1.4732 -2.4444
14603TIP3   OH265223   2.544   4.204   3.220 -0.1161  0.4454  0.7372
14603TIP3    H165224   2.589   4.208   3.305 -0.0376  0.9914  0.6769
14603TIP3    H265225   2.597   4.259   3.162  0.4376 -0.8043  0.0377
14604TIP3   OH265226   1.030   6.122  12.335  0.0727  0.7874 -0.4965
14604TIP3    H165227   0.939   6.110  12.361  0.6749 -1.1949  0.8992
14604TIP3    H265228   1.030   6.205  12.286 -2.5490  0.5665 -1.0229
14605TIP3   OH265229   3.980   6.121   1.916  0.3254  0.3990  0.3606
14605TIP3    H165230   3.995   6.045   1.974 -0.0443  1.1935  1.5405
14605TIP3    H265231   3.968   6.083   1.829 -1.3595 -1.0427  1.1598
14606TIP3   OH265232   5.913   5.960  13.148  0.1373  0.3162  0.2716
14606TIP3    H165233   5.822   5.959  13.118  0.6065 -0.5531 -1.1840
14606TIP3    H265234   5.913   6.025  13.219 -1.3416  1.2952 -0.5628
14607TIP3   OH265235   0.690   0.721  11.125  0.5768 -0.1119  0.2198
14607TIP3    H165236   0.713   0.791  11.064  0.2737 -0.6906 -0.5734
14607TIP3    H265237   0.641   0.764  11.194  0.4046  0.4583 -0.2529
14608TIP3   OH265238   1.490   2.939   1.633 -0.5764  0.7970  0.3241
14608TIP3    H165239   1.522   2.973   1.550  0.0743  0.5622  0.4725
14608TIP3    H265240   1.556   2.874   1.660 -1.2673  0.1759  0.5497
14609TIP3   OH265241   6.518   3.259   1.351  0.3952  0.6723 -0.5216
14609TIP3    H165242   6.580   3.197   1.389 -1.6396 -0.5236  1.1142
14609TIP3    H265243   6.479   3.211   1.277  0.7371  1.0540 -0.9512
14610TIP3   OH265244   0.347   4.005  16.196  0.2959 -0.2615 -0.0595
14610TIP3    H165245   0.399   3.925  16.196  0.9798  0.1560 -1.6649
14610TIP3    H265246   0.329   4.022  16.104 -0.3791  1.0953  0.3035
14611TIP3   OH265247   2.930   4.390  13.076 -0.0341 -0.7401  0.0803
14611TIP3    H165248   2.868   4.318  13.062 -0.4888 -0.1590 -0.9772
14611TIP3    H265249   2.893   4.439  13.149 -0.0954 -1.1578  0.3391
14612TIP3   OH265250   2.149   5.156  14.255  0.1696  0.5893 -0.1260
14612TIP3    H165251   2.124   5.135  14.346  2.0497 -4.7840 -0.4620
14612TIP3    H265252   2.091   5.100  14.202  2.4394 -0.3194 -1.7876
14613TIP3   OH265253   1.524   3.088   2.759  0.1861  0.9792 -0.2696
14613TIP3    H165254   1.454   3.111   2.820  0.8297 -1.4983  1.5551
14613TIP3    H265255   1.500   3.001   2.727  0.2709  1.8861 -3.0655
14614TIP3   OH265256   2.758   5.359   3.158 -0.0903 -0.4256  0.5663
14614TIP3    H165257   2.767   5.448   3.191  0.4142 -0.3103  0.1305
14614TIP3    H265258   2.785   5.365   3.066  1.2272 -1.2863  0.8746
14615TIP3   OH265259   3.507   5.242   1.163  0.2429  0.3779  0.6788
14615TIP3    H165260   3.425   5.277   1.198  0.5892  2.2110 -0.2001
14615TIP3    H265261   3.492   5.237   1.068  0.3727 -1.5150  0.7291
14616TIP3   OH265262   1.392   4.948   6.193  0.2137  0.0327  0.2452
14616TIP3    H165263   1.302   4.968   6.165  0.0951  0.7453  1.0725
14616TIP3    H265264   1.388   4.953   6.289  1.1325  0.0438  0.2891
14617TIP3   OH265265   3.314   4.013   1.103  0.0950  0.1755  0.9993
14617TIP3    H165266   3.222   4.011   1.076  1.2256  1.8092 -3.8902
14617TIP3    H265267   3.343   3.922   1.094  0.1017  0.4251 -2.9188
14618TIP3   OH265268   1.449   5.883  13.635  0.5567 -0.3706  0.1531
14618TIP3    H165269   1.514   5.814  13.653  0.1533 -2.3986 -4.5336
14618TIP3    H265270   1.365   5.841  13.652  0.3480 -0.6805 -1.4793
14619TIP3   OH265271   6.209   0.050   5.521 -0.1469  0.3436  0.4313
14619TIP3    H165272   6.216   0.141   5.493  1.0357  0.7956  2.0547
14619TIP3    H265273   6.285   0.006   5.481 -1.3154 -0.2504 -1.2765
14620TIP3   OH265274   4.949   2.014   2.207  0.3450  0.2661 -0.2014
14620TIP3    H165275   4.885   2.052   2.147  1.2936  1.4535 -0.5179
14620TIP3    H265276   4.951   2.075   2.281  0.5495 -0.1734  0.1579
14621TIP3   OH265277   4.438   0.124   4.317  0.4801  0.0050  0.4963
14621TIP3    H165278   4.489   0.202   4.339 -0.9642  0.4162  2.7646
14621TIP3    H265279   4.430   0.077   4.400  1.2489 -2.5921 -0.7909
14622TIP3   OH265280   0.449   0.849  15.744 -0.3140 -0.6083 -0.0533
14622TIP3    H165281   0.453   0.917  15.810  0.1209  1.1923 -1.8192
14622TIP3    H265282   0.418   0.771  15.790  2.6826 -0.2792  2.8601
14623TIP3   OH265283   0.358   4.748  11.017  0.7489 -0.0677 -0.0482
14623TIP3    H165284   0.341   4.655  11.026  0.6263 -0.0605 -0.1973
14623TIP3    H265285   0.300   4.777  10.947  0.1186  0.3080  0.6201
14624TIP3   OH265286   3.687   6.762  15.771 -0.5308 -0.2121 -0.1252
14624TIP3    H165287   3.616   6.820  15.797 -0.1682  0.5498 -0.8073
14624TIP3    H265288   3.686   6.763  15.676  0.2576 -0.3683 -0.1472
14625TIP3   OH265289   5.928   0.186   1.667  0.2396  0.0351  0.1850
14625TIP3    H165290   5.859   0.235   1.712  0.9036 -0.6468  2.0423
14625TIP3    H265291   5.978   0.145   1.738  2.2383  0.0772 -1.1348
14626TIP3   OH265292   1.107   1.327  12.515  0.3093  0.4602 -0.3583
14626TIP3    H165293   1.013   1.326  12.497  0.0482 -1.1901  0.8083
14626TIP3    H265294   1.138   1.408  12.475 -1.7365  1.4627 -0.0702
14627TIP3   OH265295   4.983   5.055  15.044  0.0841 -0.1212 -0.2236
14627TIP3    H165296   5.015   5.127  14.990 -0.9107  1.3802  1.0861
14627TIP3    H265297   4.887   5.058  15.033 -0.0723 -0.2683  1.0005
14628TIP3   OH265298   1.395   5.230  16.523 -0.5518 -0.3555 -0.0572
14628TIP3    H165299   1.461   5.191  16.579  0.4801 -2.2181 -2.3739
14628TIP3    H265300   1.408   5.325  16.531  0.5584 -0.6233  1.5722
14629TIP3   OH265301   3.810   5.376  15.601  0.1384  0.2008  0.2944
14629TIP3    H165302   3.739   5.312  15.614 -0.6878  1.2785  1.3693
14629TIP3    H265303   3.861   5.372  15.682 -1.3832  2.5867  1.4920
14630TIP3   OH265304   6.207   6.014   3.393  0.2983 -0.1164  0.0949
14630TIP3    H165305   6.266   6.020   3.468  0.3038 -1.2024  0.1875
14630TIP3    H265306   6.172   5.925   3.397 -1.2816  0.4665  0.0026
14631TIP3   OH265307   5.782   5.117  17.304  0.4918  0.3633  0.4007
14631TIP3    H165308   5.869   5.137  17.338  0.2695  1.8912  0.1808
14631TIP3    H265309   5.799   5.069  17.223  1.1205  0.2458  0.5936
14632TIP3   OH265310   4.368   1.414   1.699  0.2818  0.0267  0.2643
14632TIP3    H165311   4.401   1.403   1.788 -0.3506 -2.8619  0.2481
14632TIP3    H265312   4.299   1.480   1.707 -1.0130 -1.4548  2.3234
14633TIP3   OH265313   0.868   2.195  12.363  0.0407 -0.0866 -0.3939
14633TIP3    H165314   0.908   2.109  12.379  0.2992  0.1490  0.2806
14633TIP3    H265315   0.942   2.252  12.343 -0.2967 -0.4858 -3.2455
14634TIP3   OH265316   2.856   4.029  16.965 -0.8936  0.4978  0.1360
14634TIP3    H165317   2.909   3.963  16.919 -0.4723  1.7314 -1.2301
14634TIP3    H265318   2.777   3.982  16.991 -0.9520 -0.3723 -1.4885
14635TIP3   OH265319   5.553   2.299   1.646 -0.1480 -0.5219 -0.5054
14635TIP3    H165320   5.615   2.291   1.573  0.4295  2.1967 -0.4272
14635TIP3    H265321   5.581   2.378   1.693 -2.6756 -0.1345  0.5232
14636TIP3   OH265322   4.876   6.666   1.721 -0.3619  0.3778 -0.3835
14636TIP3    H165323   4.781   6.668   1.737 -0.1234  0.4176  1.2138
14636TIP3    H265324   4.909   6.605   1.787  0.7497  0.4770 -0.8355
14637TIP3   OH265325   6.348   2.235   2.743  0.2193  0.0922  0.0085
14637TIP3    H165326   6.279   2.297   2.719 -0.6046 -1.0042 -0.5407
14637TIP3    H265327   6.390   2.274   2.820 -2.7206 -0.4338  2.0103
14638TIP3   OH265328   0.730   0.330  16.756  0.2338  0.0841 -0.6738
14638TIP3    H165329   0.821   0.333  16.726  0.3170 -1.0328 -0.5714
14638TIP3    H265330   0.727   0.392  16.829  0.5588  1.1783 -1.5783
14639TIP3   OH265331   1.629   3.526   4.224  0.3838 -0.1828 -0.3875
14639TIP3    H165332   1.536   3.507   4.230  0.2521  0.6032  0.2231
14639TIP3    H265333   1.653   3.557   4.311  1.3157 -0.7934 -0.4097
14640TIP3   OH265334   0.766   5.042   1.386  0.0567  0.3112 -0.3940
14640TIP3    H165335   0.798   5.128   1.360  1.5625 -0.0304  0.2270
14640TIP3    H265336   0.745   4.999   1.303 -0.5102  1.1899 -0.7181
14641TIP3   OH265337   5.843   2.673  17.068  0.2898  0.2372 -0.1615
14641TIP3    H165338   5.752   2.678  17.040  0.5396  1.5255 -0.8188
14641TIP3    H265339   5.892   2.652  16.989  0.6044 -0.0547  0.1090
14642TIP3   OH265340   0.527   5.269   0.042 -0.1472 -0.1705 -0.0205
14642TIP3    H165341   0.564   5.232  -0.038 -2.4654 -1.9037 -0.4020
14642TIP3    H265342   0.564   5.216   0.113 -1.5070 -1.6817 -0.3731
14643TIP3   OH265343   3.711   6.002  15.846  0.8568 -0.0173 -0.1099
14643TIP3    H165344   3.657   5.940  15.895  1.4706 -1.1689 -0.8305
14643TIP3    H265345   3.649   6.064  15.808 -0.0785 -1.6977 -1.4635
14644TIP3   OH265346   4.456   3.937   4.620 -0.2707  0.0034 -0.0386
14644TIP3    H165347   4.542   3.896   4.628  0.3740  1.3622  0.1568
14644TIP3    H265348   4.419   3.933   4.708 -0.0937  0.0996  0.0400
14645TIP3   OH265349   0.195   2.766  16.385  0.3463 -0.0986 -0.2721
14645TIP3    H165350   0.252   2.782  16.309  0.1432 -1.0066 -0.6196
14645TIP3    H265351   0.123   2.828  16.374 -0.4513 -1.2192 -1.6238
14646TIP3   OH265352   6.323   1.812  12.256 -0.1983 -0.2633 -0.1805
14646TIP3    H165353   6.392   1.757  12.216 -0.0096  0.3179 -0.6699
14646TIP3    H265354   6.261   1.827  12.184 -1.0405 -1.1005  0.3590
14647TIP3   OH265355   5.395   3.549  16.401  0.2544 -1.0245  0.0999
14647TIP3    H165356   5.480   3.507  16.388  0.3569 -0.9236  0.4376
14647TIP3    H265357   5.347   3.531  16.320  0.7490 -0.7152 -0.2738
14648TIP3   OH265358   2.303   5.576  15.767  0.1060 -0.3948  0.4052
14648TIP3    H165359   2.388   5.604  15.733 -0.3127  0.6964  0.1916
14648TIP3    H265360   2.247   5.653  15.756 -0.3457 -0.3438  2.5675
14649TIP3   OH265361   6.276   4.230   4.807 -0.5945  0.1760 -0.2593
14649TIP3    H165362   6.233   4.295   4.752  0.3626  0.1426 -1.0826
14649TIP3    H265363   6.350   4.277   4.847  0.1721 -0.4139 -0.9503
14650TIP3   OH265364   0.372   2.408   4.586 -0.3670 -0.4487 -0.7810
14650TIP3    H165365   0.295   2.396   4.531  0.5145 -1.6012 -1.8429
14650TIP3    H265366   0.346   2.377   4.672 -1.6666  1.0445 -0.5900
14651TIP3   OH265367   3.782   6.524  13.668 -0.6295 -0.5097 -0.3461
14651TIP3    H165368   3.725   6.601  13.676  1.0458  0.8682 -0.9886
14651TIP3    H265369   3.771   6.478  13.751 -2.3483 -0.0944 -0.2965
14652TIP3   OH265370   0.574   2.486  15.789  0.4942 -0.4413 -0.1700
14652TIP3    H165371   0.545   2.456  15.703  0.4697 -0.3924 -0.1792
14652TIP3    H265372   0.634   2.558  15.771 -1.5877  1.4148 -0.0841
14653TIP3   OH265373   1.273   3.168  13.072  0.5007  0.4739  0.1141
14653TIP3    H165374   1.360   3.126  13.069  0.4220  0.2273  0.8859
14653TIP3    H265375   1.221   3.118  13.009  1.2739  1.5094 -1.4065
14654TIP3   OH265376   3.203   0.683   1.803 -0.7911  0.2477 -0.3705
14654TIP3    H165377   3.172   0.742   1.734 -1.6103 -2.3031 -2.3712
14654TIP3    H265378   3.295   0.667   1.780 -0.7811  0.1909 -0.2891
14655TIP3   OH265379   6.031   3.860   0.461  0.5770  0.1623  0.8795
14655TIP3    H165380   5.943   3.858   0.501  0.3232 -2.8797  0.3463
14655TIP3    H265381   6.019   3.822   0.375  2.0745  1.9058 -0.1587
14656TIP3   OH265382   2.514   2.626   2.113 -0.2935  0.0247 -0.2117
14656TIP3    H165383   2.488   2.552   2.057  0.2462 -0.8794  0.7032
14656TIP3    H265384   2.460   2.616   2.191 -0.5616  0.8997 -0.2792
14657TIP3   OH265385   5.595   0.851  16.467 -0.1705 -0.0497  0.3268
14657TIP3    H165386   5.559   0.839  16.379 -1.0551 -1.7750  0.8814
14657TIP3    H265387   5.685   0.821  16.460 -0.0253  0.4888 -0.1482
14658TIP3   OH265388   3.382   3.722  14.918  0.1070 -0.2351  1.0083
14658TIP3    H165389   3.476   3.738  14.907  0.0994 -1.4337 -1.4445
14658TIP3    H265390   3.340   3.804  14.894  0.4829 -0.2399  0.3086
14659TIP3   OH265391   3.027   3.690  11.961  0.1091 -0.5458  0.0238
14659TIP3    H165392   3.043   3.715  11.870  2.0781 -2.4604 -0.2522
14659TIP3    H265393   3.105   3.721  12.008  0.2278 -1.6487  0.5804
14660TIP3   OH265394   4.212   0.763   4.418  0.0440 -0.1699  0.4984
14660TIP3    H165395   4.165   0.841   4.387  0.7890 -0.1705 -0.7110
14660TIP3    H265396   4.297   0.768   4.374 -0.0912 -1.9440 -0.0392
14661TIP3   OH265397   4.047   5.927  11.726 -0.0209  0.3062  0.2471
14661TIP3    H165398   3.980   5.871  11.687  0.8874 -0.0774 -0.8297
14661TIP3    H265399   4.022   5.935  11.818  0.2073 -2.4734  0.6358
14662TIP3   OH265400   5.164   6.150  11.734  0.4135  0.1114 -0.2551
14662TIP3    H165401   5.090   6.210  11.747  0.5397  0.2930 -0.3662
14662TIP3    H265402   5.147   6.109  11.649  0.5570  0.3259 -0.3905
14663TIP3   OH265403   0.192   2.642   2.279  0.0419  0.4071  0.1791
14663TIP3    H165404   0.197   2.723   2.330 -0.1247  0.7166 -0.2871
14663TIP3    H265405   0.110   2.601   2.305 -1.5765  2.0415 -1.9691
14664TIP3   OH265406   3.259   0.580   3.083 -0.0807 -0.0384 -0.4285
14664TIP3    H165407   3.250   0.660   3.031 -0.6526 -0.3661 -0.8515
14664TIP3    H265408   3.170   0.560   3.112  0.2485  0.1854  0.7654
14665TIP3   OH265409   6.701   6.698  16.750 -0.7060  0.0253  0.5096
14665TIP3    H165410   6.775   6.759  16.741 -0.4246 -0.5117 -1.1933
14665TIP3    H265411   6.732   6.633  16.813  0.4548 -0.3840 -0.4301
14666TIP3   OH265412   0.495   0.414   3.370  0.2349  0.1923 -0.3430
14666TIP3    H165413   0.536   0.332   3.398  0.4624  1.0619  2.0267
14666TIP3    H265414   0.568   0.476   3.364 -0.4407  1.3616  2.4196
14667TIP3   OH265415   3.087   3.538  14.856 -0.1036 -0.2876 -0.3096
14667TIP3    H165416   3.008   3.491  14.886  0.9861 -1.7692  0.3665
14667TIP3    H265417   3.065   3.631  14.868 -2.5202 -0.5139 -2.1204
14668TIP3   OH265418   3.378   6.677  16.762  0.3970 -0.2845 -0.5094
14668TIP3    H165419   3.473   6.677  16.773  0.4678  0.0671 -1.0560
14668TIP3    H265420   3.352   6.767  16.784  0.4686  0.2563 -2.4807
14669TIP3   OH265421   3.058   5.256  13.264  0.2796  0.4743 -0.6283
14669TIP3    H165422   3.145   5.272  13.229  1.2893 -1.2547  0.9009
14669TIP3    H265423   3.058   5.299  13.350  0.6436 -1.6964  0.5394
14670TIP3   OH265424   1.737   0.755   2.033  0.1322 -0.0385 -0.2860
14670TIP3    H165425   1.771   0.821   1.973  0.7298 -0.3020 -0.2494
14670TIP3    H265426   1.813   0.731   2.086 -0.3476  0.0672  0.4582
14671TIP3   OH265427   3.816   2.122   1.279  0.0279  0.0130 -0.4883
14671TIP3    H165428   3.858   2.087   1.358 -1.0081 -0.4557 -0.1366
14671TIP3    H265429   3.723   2.105   1.292 -0.1484 -0.0986 -1.8328
14672TIP3   OH265430   5.299   0.001  14.125  0.2280  0.0644 -0.3044
14672TIP3    H165431   5.319   0.073  14.184  2.2879 -1.4577  0.9774
14672TIP3    H265432   5.340   0.025  14.042  1.5932  0.0600  0.3457
14673TIP3   OH265433   2.242   5.355   3.062  0.0408 -0.2186  0.2964
14673TIP3    H165434   2.208   5.443   3.073  1.8996  0.9844 -2.5203
14673TIP3    H265435   2.222   5.332   2.971  0.7412 -2.1765  0.5837
14674TIP3   OH265436   0.009   0.616  15.877 -0.0897  0.2319 -0.2789
14674TIP3    H165437  -0.044   0.661  15.811 -1.7076  1.6828  1.8746
14674TIP3    H265438  -0.013   0.660  15.959  2.1420 -1.2257  1.2002
14675TIP3   OH265439   5.088   4.545   2.124 -0.2584 -0.2764 -0.1206
14675TIP3    H165440   5.059   4.636   2.117  0.8535  0.0489 -0.7314
14675TIP3    H265441   5.118   4.523   2.035  0.1797 -0.9925  0.1951
14676TIP3   OH265442   5.436   0.728  14.167 -0.3168 -0.0608  0.1076
14676TIP3    H165443   5.454   0.636  14.188 -3.1799 -1.6863 -3.4224
14676TIP3    H265444   5.350   0.745  14.206 -0.2463  0.7833 -0.0888
14677TIP3   OH265445   5.156   3.977   2.912  0.5422 -0.1733  0.0275
14677TIP3    H165446   5.181   3.931   2.832 -0.6613 -0.8478  0.0156
14677TIP3    H265447   5.113   3.911   2.966  0.1228  0.5863  0.6517
14678TIP3   OH265448   5.182   0.643   0.835  0.3042 -1.0201  0.3455
14678TIP3    H165449   5.223   0.573   0.784 -0.3910 -0.7723 -0.5813
14678TIP3    H265450   5.102   0.603   0.870  0.5270 -1.0398  0.8521
14679TIP3   OH265451   3.016   3.592   2.383 -0.3178  0.0647 -0.1982
14679TIP3    H165452   3.002   3.646   2.461 -2.2158 -0.0943 -0.3769
14679TIP3    H265453   3.035   3.505   2.419  0.9203  0.4399  0.0821
14680TIP3   OH265454   3.774   3.791   1.501  0.4621 -0.0670  1.1359
14680TIP3    H165455   3.868   3.773   1.497  0.6000  0.8052 -2.2729
14680TIP3    H265456   3.734   3.707   1.522  1.8975 -0.9850  0.3414
14681TIP3   OH265457   1.934   3.092   4.241  0.4255  0.4251 -0.2815
14681TIP3    H165458   1.963   3.013   4.286  1.7138  1.3455  0.5564
14681TIP3    H265459   1.844   3.072   4.214  0.7983 -1.4090 -0.3173
14682TIP3   OH265460   4.828   5.605  15.417  0.0695  0.0796 -0.6870
14682TIP3    H165461   4.749   5.615  15.364  1.7620  1.4817 -3.0858
14682TIP3    H265462   4.823   5.515  15.450 -2.6542  0.2322 -0.4477
14683TIP3   OH265463   2.476   2.638   2.706  0.1856  0.1052 -0.3904
14683TIP3    H165464   2.385   2.622   2.731 -0.0811 -0.0811 -1.4162
14683TIP3    H265465   2.501   2.717   2.755 -0.9470  0.9081 -1.0517
14684TIP3   OH265466   0.584   5.794   0.308 -0.0118 -0.0953 -0.1713
14684TIP3    H165467   0.506   5.739   0.315  0.6930 -1.2021 -0.6264
14684TIP3    H265468   0.652   5.734   0.276  1.2970  0.5726  1.2239
14685TIP3   OH265469   3.309   6.193  13.256  0.6744  0.1640  0.0959
14685TIP3    H165470   3.289   6.142  13.335  1.3911 -0.6854 -0.2533
14685TIP3    H265471   3.248   6.160  13.190 -0.6754  1.6307  0.5465
14686TIP3   OH265472   5.558   0.824  14.980  0.0347 -0.4710  0.2820
14686TIP3    H165473   5.490   0.768  14.942  0.3472 -1.0592  0.5770
14686TIP3    H265474   5.632   0.765  14.995  0.0237 -0.1832  1.5238
14687TIP3   OH265475   0.159   3.647   4.882 -0.1650 -0.1184 -0.1324
14687TIP3    H165476   0.150   3.706   4.806  0.0696  1.1733  0.8117
14687TIP3    H265477   0.162   3.559   4.843 -1.2804  0.4106 -1.5422
14688TIP3   OH265478   6.150   6.264   4.616 -0.0137  0.2366 -0.3435
14688TIP3    H165479   6.222   6.262   4.678 -0.2041  0.1054 -0.1235
14688TIP3    H265480   6.091   6.194   4.645 -1.1548  1.5224  0.6047
14689TIP3   OH265481   4.809   5.414  14.966 -0.4577  0.2496 -0.0624
14689TIP3    H165482   4.721   5.451  14.958 -0.8084 -0.0968  1.7534
14689TIP3    H265483   4.806   5.363  15.047  1.2731 -0.1880 -0.2421
14690TIP3   OH265484   4.726   2.288  15.249 -0.1202 -0.2286  0.0183
14690TIP3    H165485   4.785   2.264  15.178 -0.2446  0.3637 -0.2852
14690TIP3    H265486   4.657   2.221  15.247  1.5468 -2.1292  1.6460
14691TIP3   OH265487   1.600   3.121   4.396  0.3599  0.4710  0.2505
14691TIP3    H165488   1.538   3.071   4.449 -0.4644  1.7576  0.5622
14691TIP3    H265489   1.674   3.136   4.455  0.3104  0.2112  0.3821
14692TIP3   OH265490   1.060   4.408   0.128  0.2696  0.0634 -0.7051
14692TIP3    H165491   1.014   4.397   0.211  0.4692  1.4326 -0.3996
14692TIP3    H265492   1.143   4.362   0.141  0.1098 -0.1222 -0.3161
14693TIP3   OH265493   4.280   1.597  10.952  0.0226  0.3798  0.5921
14693TIP3    H165494   4.193   1.591  10.913  0.5482  0.8738 -0.7076
14693TIP3    H265495   4.301   1.507  10.977 -0.1697 -0.0343 -0.6656
14694TIP3   OH265496   6.206   2.135   0.507  0.1807 -0.0581  0.1515
14694TIP3    H165497   6.275   2.072   0.486  1.1032  0.0802  2.4815
14694TIP3    H265498   6.149   2.089   0.568 -1.3442  0.1525 -1.0356
14695TIP3   OH265499   1.056   4.831  16.750 -0.0747  0.4002  0.0409
14695TIP3    H165500   1.071   4.924  16.766 -1.1288  1.0540 -2.3700
14695TIP3    H265501   0.969   4.814  16.786 -0.9905  1.0318 -1.7703
14696TIP3   OH265502   5.682   1.271   4.320  0.8309  0.1830  0.2795
14696TIP3    H165503   5.762   1.226   4.347  0.6920  0.0687  0.4975
14696TIP3    H265504   5.712   1.333   4.253  0.8006 -1.3420 -1.2247
14697TIP3   OH265505   5.825   4.737  16.963  0.0059  0.3868  0.8195
14697TIP3    H165506   5.748   4.718  16.909 -0.8536  1.8709  1.4583
14697TIP3    H265507   5.895   4.752  16.900 -0.3784 -0.2987  0.2064
14698TIP3   OH265508   0.136   5.295  16.511  0.6734 -0.1879  0.5678
14698TIP3    H165509   0.072   5.295  16.440  1.9441  2.5050 -0.7234
14698TIP3    H265510   0.102   5.359  16.574  0.2988 -1.4840  1.7464
14699TIP3   OH265511   1.601   0.446   4.440 -0.3030  0.3963  0.3993
14699TIP3    H165512   1.552   0.464   4.520 -0.3465  1.4642  0.1388
14699TIP3    H265513   1.671   0.511   4.439 -0.8875  1.0513 -0.9207
14700TIP3   OH265514   3.707   3.756  11.415  0.5221  0.1815 -0.9392
14700TIP3    H165515   3.744   3.767  11.502  0.1420 -0.1109 -0.7380
14700TIP3    H265516   3.728   3.838  11.369  0.7456  0.3234 -0.5851
14701TIP3   OH265517   3.091   2.241  15.153  0.1455 -0.4520  0.5631
14701TIP3    H165518   3.129   2.157  15.179  0.7740 -0.5713 -0.6840
14701TIP3    H265519   3.088   2.238  15.058 -1.4141  0.2688  0.5603
14702TIP3   OH265520   5.247   3.036   1.858 -0.2913 -0.3033 -0.4065
14702TIP3    H165521   5.304   2.974   1.812 -0.2802 -0.9410  0.4194
14702TIP3    H265522   5.221   2.988   1.938 -0.4024  0.7079  0.1748
14703TIP3   OH265523   3.204   4.189   0.238  0.0140  0.5015  0.0384
14703TIP3    H165524   3.243   4.126   0.177 -2.9678 -1.6876  0.1887
14703TIP3    H265525   3.235   4.160   0.324 -1.0046 -0.6131  0.0683
14704TIP3   OH265526   0.684   2.996  17.066 -0.4760 -0.7490 -0.0706
14704TIP3    H165527   0.779   2.990  17.081  0.3674  0.7036 -3.8590
14704TIP3    H265528   0.666   3.090  17.066 -1.3985 -0.8959 -1.8200
14705TIP3   OH265529   5.187   5.286   4.544 -0.3118 -0.4033 -1.1254
14705TIP3    H165530   5.250   5.227   4.502 -0.5448 -0.8521 -0.8466
14705TIP3    H265531   5.113   5.230   4.567  0.6794 -0.6772  1.8653
14706TIP3   OH265532   0.381   1.058  11.437 -0.4869 -0.4617  0.4109
14706TIP3    H165533   0.435   1.098  11.505 -0.6977  1.7039 -0.5796
14706TIP3    H265534   0.444   1.025  11.373 -0.3083 -1.1513  0.9385
14707TIP3   OH265535   3.273   1.801   2.541  0.1526  0.0320  0.1548
14707TIP3    H165536   3.217   1.730   2.572  1.8136 -0.5117  2.1923
14707TIP3    H265537   3.341   1.756   2.490 -0.4899  0.5339 -1.1731
14708TIP3   OH265538   5.569   2.820  11.359  0.0903  0.1289 -0.0433
14708TIP3    H165539   5.504   2.853  11.296 -0.2403  2.4279  1.3860
14708TIP3    H265540   5.524   2.748  11.403  0.4934 -1.8674 -2.6483
14709TIP3   OH265541   4.675   2.393  14.775  0.4752 -0.1053  0.4657
14709TIP3    H165542   4.743   2.326  14.771  0.2332 -0.3245 -0.1029
14709TIP3    H265543   4.722   2.476  14.777  0.7672 -0.2751  0.7761
14710TIP3   OH265544   2.471   3.089   2.071  0.3566  0.4171 -0.3671
14710TIP3    H165545   2.375   3.095   2.074  0.2199 -1.4020 -0.0571
14710TIP3    H265546   2.498   3.088   2.163  0.5555 -0.3326 -0.4251
14711TIP3   OH265547   3.311   3.032  11.116 -0.1424  0.2280 -0.6280
14711TIP3    H165548   3.248   3.105  11.119  1.4050  1.5993 -0.2244
14711TIP3    H265549   3.265   2.964  11.067 -3.0709  0.0210  2.0833
14712TIP3   OH265550   2.203   0.352   1.980  0.4758  0.0070 -0.6018
14712TIP3    H165551   2.139   0.360   1.909  1.0339  1.6451 -0.9798
14712TIP3    H265552   2.164   0.290   2.041 -0.7252 -0.2627 -1.6057
14713TIP3   OH265553   5.532   5.743  15.379 -0.3659 -0.0577 -0.0400
14713TIP3    H165554   5.542   5.678  15.449 -1.8085 -1.7482 -1.3167
14713TIP3    H265555   5.532   5.827  15.425 -0.2055 -1.0453  1.8864
14714TIP3   OH265556   0.190   5.093   2.665  0.1151  0.4941  0.0946
14714TIP3    H165557   0.203   5.028   2.596  0.2093 -0.5034  1.0224
14714TIP3    H265558   0.209   5.045   2.746 -1.1732  1.3012  0.9027
14715TIP3   OH265559   6.091   1.355   1.895  0.1081 -0.2182  0.0074
14715TIP3    H165560   6.059   1.265   1.894 -0.3614 -0.0834 -1.8201
14715TIP3    H265561   6.037   1.400   1.830  1.8473  0.8153 -0.8136
14716TIP3   OH265562   5.477   3.069  12.228 -0.4110 -0.0440  0.2994
14716TIP3    H165563   5.440   3.136  12.170 -2.1484 -0.9800  0.2356
14716TIP3    H265564   5.536   3.019  12.172  0.1800  0.8396  0.1128
14717TIP3   OH265565   1.607   3.802  14.178 -0.1203 -0.2802 -0.0039
14717TIP3    H165566   1.648   3.772  14.097  0.3581  2.1898 -0.7522
14717TIP3    H265567   1.671   3.860  14.219 -0.8297 -0.5218  1.5564
14718TIP3   OH265568   1.284   6.681  13.096 -0.0066 -0.4796  0.4857
14718TIP3    H165569   1.354   6.697  13.159  1.5520 -2.0641 -0.7444
14718TIP3    H265570   1.327   6.684  13.011 -1.2978 -2.1243 -0.2836
14719TIP3   OH265571   5.671   5.465  13.262 -0.3401  0.3643 -0.2032
14719TIP3    H165572   5.647   5.497  13.175 -1.4604  0.6101  0.1829
14719TIP3    H265573   5.590   5.431  13.299  0.5217 -1.7276 -0.0655
14720TIP3   OH265574   3.424   4.327  15.186  0.1291  0.4275 -0.3440
14720TIP3    H165575   3.380   4.259  15.237 -1.4735  1.2115 -0.6199
14720TIP3    H265576   3.457   4.281  15.109 -1.0879 -0.0245 -0.6163
14721TIP3   OH265577   5.496   2.727  15.728  0.2994  0.2798  0.2940
14721TIP3    H165578   5.429   2.699  15.666  0.3936  2.0165 -0.6630
14721TIP3    H265579   5.460   2.806  15.768  1.3611  0.6680  0.5127
14722TIP3   OH265580   1.220   0.336  11.223 -0.1883 -0.0576 -0.3404
14722TIP3    H165581   1.199   0.266  11.162  0.1575  0.3965 -0.9897
14722TIP3    H265582   1.207   0.416  11.173  0.9386  0.2909 -0.0970
14723TIP3   OH265583   2.990   1.857  15.830 -0.4052 -1.0490  0.1656
14723TIP3    H165584   3.078   1.822  15.814  0.3588 -0.2378  2.2808
14723TIP3    H265585   2.998   1.951  15.814 -0.7317 -0.8947  0.8802
14724TIP3   OH265586   6.097   1.426   4.316 -0.2366 -0.3667  0.3700
14724TIP3    H165587   6.168   1.407   4.377  1.6303  0.1070 -1.5711
14724TIP3    H265588   6.020   1.438   4.373  0.8154 -2.5253  2.4159
14725TIP3   OH265589   1.907   3.679  11.983 -0.4787 -0.0583 -0.1860
14725TIP3    H165590   1.972   3.749  11.973 -0.9287  0.4270  0.1891
14725TIP3    H265591   1.957   3.605  12.016 -0.0586  0.2144 -0.1999
14726TIP3   OH265592   6.585   2.446  16.961  0.0563  0.6748 -0.7345
14726TIP3    H165593   6.661   2.482  16.915  0.5271 -0.6042 -0.9958
14726TIP3    H265594   6.622   2.381  17.021 -0.7391  0.8654 -0.0172
14727TIP3   OH265595   2.915   3.255  12.264  0.2314 -0.0595  0.2848
14727TIP3    H165596   2.928   3.303  12.182 -0.3712 -1.2546 -0.5460
14727TIP3    H265597   2.833   3.208  12.251 -0.0582  0.0037  1.7345
14728TIP3   OH265598   1.380   6.117  16.246 -0.1302 -0.4329 -0.0999
14728TIP3    H165599   1.371   6.052  16.176 -0.7854  1.5486 -1.9623
14728TIP3    H265600   1.412   6.196  16.201  1.0978  0.4201  2.1489
14729TIP3   OH265601   2.010   5.754   1.801  0.2724 -0.3443  0.5091
14729TIP3    H165602   1.934   5.696   1.807 -0.9507  1.1253 -0.0675
14729TIP3    H265603   2.065   5.715   1.733 -1.0799 -0.2628 -0.6863
14730TIP3   OH265604   1.015   4.833   2.013 -0.0500  0.1876  0.1799
14730TIP3    H165605   0.969   4.848   1.931 -1.3321 -2.7565  0.2263
14730TIP3    H265606   1.082   4.768   1.992 -1.1918 -1.5483  1.6012
14731TIP3   OH265607   3.406   3.211   1.739 -0.4713 -0.4505 -0.2363
14731TIP3    H165608   3.480   3.156   1.765 -0.1756  0.2390  0.3898
14731TIP3    H265609   3.410   3.212   1.643  0.3900 -0.3459 -0.2057
14732TIP3   OH265610   2.607   4.828   3.933  0.7841  0.6140  0.3844
14732TIP3    H165611   2.528   4.825   3.987  1.0153  2.3093  0.8778
14732TIP3    H265612   2.656   4.749   3.957  0.1253  0.5227  1.4717
14733TIP3   OH265613   4.663   3.711  14.760 -0.4192  0.6223 -0.0627
14733TIP3    H165614   4.653   3.770  14.835  1.7377 -0.8606  1.5018
14733TIP3    H265615   4.727   3.755  14.703  2.0904 -0.5896  1.6662
14734TIP3   OH265616   6.594   2.072  12.892  0.6207 -0.5881  0.2717
14734TIP3    H165617   6.616   1.979  12.879  0.2105 -0.6988  0.3344
14734TIP3    H265618   6.612   2.113  12.807  2.8522 -0.2919  0.8420
14735TIP3   OH265619   6.662   2.584  10.805  0.0402  0.6924 -0.0513
14735TIP3    H165620   6.628   2.536  10.881  1.3908 -0.3759 -0.0952
14735TIP3    H265621   6.732   2.638  10.841  0.7396  0.1239 -0.5331
14736TIP3   OH265622   2.529   2.413  16.666  0.3994 -0.5015 -0.3674
14736TIP3    H165623   2.562   2.478  16.728 -0.4233  0.0706 -0.5113
14736TIP3    H265624   2.444   2.448  16.638  0.4423 -1.0992 -1.2806
14737TIP3   OH265625   3.844   4.537  16.990  0.4786 -0.0979 -0.0960
14737TIP3    H165626   3.866   4.449  16.959 -0.0286 -0.1333 -0.3806
14737TIP3    H265627   3.925   4.587  16.981  0.7341 -0.5005 -0.0658
14738TIP3   OH265628   4.039   1.522   5.573 -0.3636  0.8031  0.2202
14738TIP3    H165629   4.018   1.477   5.491 -0.6192  1.0490  0.1499
14738TIP3    H265630   4.116   1.475   5.607 -0.7338  0.2074  0.2378
14739TIP3   OH265631   1.367   6.404   2.764 -0.1065  0.0160  0.3162
14739TIP3    H165632   1.437   6.427   2.703  0.2230  0.0365  0.6934
14739TIP3    H265633   1.290   6.392   2.709  0.7340 -2.5762 -0.4407
14740TIP3   OH265634   0.616   0.195   0.453  0.4763  0.2153 -0.3493
14740TIP3    H165635   0.636   0.176   0.361  1.7481  1.0868 -0.2684
14740TIP3    H265636   0.524   0.221   0.452  0.8808  1.7540 -1.6412
14741TIP3   OH265637   6.129   2.256   6.004  0.2286 -0.2038 -0.3970
14741TIP3    H165638   6.176   2.173   6.008 -1.0408 -0.8843  2.1811
14741TIP3    H265639   6.064   2.244   5.935  1.3976 -0.5439 -1.4829
14742TIP3   OH265640   1.324   4.684   0.643  0.2884 -0.0382  0.2841
14742TIP3    H165641   1.249   4.739   0.623  1.1301  0.4553 -1.8140
14742TIP3    H265642   1.341   4.636   0.562  2.6169  0.3799  0.4432
14743TIP3   OH265643   3.240   4.732   1.505 -0.4521  0.1778  0.0840
14743TIP3    H165644   3.236   4.711   1.412 -1.5154  3.3920 -0.7275
14743TIP3    H265645   3.153   4.709   1.538  0.1589 -1.6651  0.5417
14744TIP3   OH265646   3.645   1.729   4.349  0.2445 -0.6711  0.5358
14744TIP3    H165647   3.557   1.698   4.327  0.7913 -0.9765 -1.3896
14744TIP3    H265648   3.631   1.800   4.411 -1.4967  0.4791 -1.0693
14745TIP3   OH265649   6.620   1.865   6.396  0.5970  0.2257  0.3020
14745TIP3    H165650   6.667   1.947   6.381  0.6297  0.4716  1.6808
14745TIP3    H265651   6.530   1.890   6.412  0.5156 -0.0428  0.2802
14746TIP3   OH265652   5.661   6.000  15.265 -0.3759 -0.6526 -0.3903
14746TIP3    H165653   5.683   6.092  15.281  0.8325 -1.1284  0.8132
14746TIP3    H265654   5.570   6.003  15.235  0.1557  1.0815 -2.0822
14747TIP3   OH265655   2.841   4.910   3.221 -0.1111 -0.0933 -0.1637
14747TIP3    H165656   2.758   4.899   3.175 -0.7710  1.3129  0.6372
14747TIP3    H265657   2.847   4.833   3.278 -1.1509  0.0590  0.1688
14748TIP3   OH265658   4.441   4.706   0.603 -0.0405  0.6002  0.2739
14748TIP3    H165659   4.358   4.752   0.600  0.0103  0.6517 -0.4224
14748TIP3    H265660   4.419   4.619   0.637 -0.4266  0.5237 -0.1594
14749TIP3   OH265661   6.429   0.697  15.618  0.3212  0.0427  0.2534
14749TIP3    H165662   6.403   0.633  15.685  0.2592 -1.4386 -1.1503
14749TIP3    H265663   6.505   0.740  15.656 -0.6187  0.3368  1.9360
14750TIP3   OH265664   5.137   3.630   0.673 -0.6889 -0.9709 -0.3002
14750TIP3    H165665   5.189   3.560   0.712  1.2105 -0.5578 -1.9339
14750TIP3    H265666   5.138   3.700   0.738  2.1548 -0.3977 -0.8160
14751TIP3   OH265667   1.551   3.879  11.274  0.1573  0.2741 -0.4921
14751TIP3    H165668   1.630   3.826  11.263  0.2256  0.5469 -1.3459
14751TIP3    H265669   1.516   3.888  11.186  0.0451  1.4971 -0.3360
14752TIP3   OH265670   6.408   0.743   1.232  0.9234  0.1846  0.3046
14752TIP3    H165671   6.479   0.720   1.171  0.0103 -0.1610 -0.6508
14752TIP3    H265672   6.380   0.830   1.204 -1.0525 -0.8791 -1.3480
14753TIP3   OH265673   1.986   1.810  11.857  0.1573 -0.2018 -0.0366
14753TIP3    H165674   2.010   1.822  11.949 -2.0264 -0.4952  0.6182
14753TIP3    H265675   1.940   1.891  11.834  0.8109 -0.0683 -0.9521
14754TIP3   OH265676   1.650   2.495  12.826  0.0168  1.2126 -0.2027
14754TIP3    H165677   1.731   2.463  12.867 -0.0798  1.4360  0.1761
14754TIP3    H265678   1.667   2.589  12.813 -0.1393  1.2361 -0.2298
14755TIP3   OH265679   5.445   1.961  10.965  0.3296  0.2282 -0.1144
14755TIP3    H165680   5.511   1.994  10.904  1.7436  0.4561  1.4774
14755TIP3    H265681   5.474   1.872  10.985 -1.3970 -0.7129 -1.4778
14756TIP3   OH265682   2.350   5.200  16.106 -0.1903 -0.2452  0.3342
14756TIP3    H165683   2.322   5.284  16.069 -0.4918 -0.8418 -0.8324
14756TIP3    H265684   2.437   5.218  16.143 -0.9252  0.9514  1.5356
14757TIP3   OH265685   2.209   1.584   0.493  0.9125  0.4505 -0.0932
14757TIP3    H165686   2.212   1.617   0.404 -1.1101  1.9528  0.3112
14757TIP3    H265687   2.274   1.636   0.540  2.7521 -1.0698 -0.8282
14758TIP3   OH265688   4.400   2.013   4.665  0.0637 -0.0413  0.1716
14758TIP3    H165689   4.356   2.066   4.599  0.9348 -0.9445 -1.1902
14758TIP3    H265690   4.485   1.991   4.626  1.7029  1.4958  2.6185
14759TIP3   OH265691   6.717   5.424   3.777  0.6490  0.0729  0.3291
14759TIP3    H165692   6.793   5.403   3.723  1.6354 -1.6029  2.2274
14759TIP3    H265693   6.724   5.519   3.792  1.8756  0.0858 -0.1975
14760TIP3   OH265694   4.475   1.280   0.228 -0.1314  0.2699 -0.1196
14760TIP3    H165695   4.538   1.220   0.268 -1.3651 -1.1214 -0.2032
14760TIP3    H265696   4.394   1.266   0.277 -1.4127 -0.7230 -2.3765
14761TIP3   OH265697   1.794   3.311   5.320  0.2161 -0.4177 -0.7909
14761TIP3    H165698   1.757   3.399   5.317  0.1944 -0.4342 -0.9693
14761TIP3    H265699   1.842   3.302   5.238  0.6154 -0.3972 -0.5646
14762TIP3   OH265700   4.772   4.330   0.144  0.4947 -0.0787 -0.6191
14762TIP3    H165701   4.731   4.334   0.058  1.8897 -0.3019 -1.3225
14762TIP3    H265702   4.821   4.413   0.151  0.3267 -0.0282 -0.0123
14763TIP3   OH265703   5.943   0.114   4.138 -0.0003 -0.2965  0.1774
14763TIP3    H165704   5.914   0.101   4.048 -0.0529  0.2639  0.1146
14763TIP3    H265705   6.039   0.114   4.132  0.0517  2.3535 -0.2858
14764TIP3   OH265706   6.426   3.647   3.782 -0.2053 -0.3542  0.3906
14764TIP3    H165707   6.335   3.645   3.810 -0.2031 -0.2115  0.4050
14764TIP3    H265708   6.470   3.706   3.843 -0.1996 -0.0517  0.0991
14765TIP3   OH265709   4.440   3.153   2.724  0.3348 -0.0343  0.2344
14765TIP3    H165710   4.414   3.139   2.816  0.3043 -0.7439  0.1219
14765TIP3    H265711   4.532   3.129   2.721  0.8189  1.6512  0.4390
14766TIP3   OH265712   1.333   3.956   2.574 -0.0576  0.6896  0.0574
14766TIP3    H165713   1.282   3.877   2.556 -1.0215  1.2002  0.5043
14766TIP3    H265714   1.269   4.026   2.577  0.7799  1.4935 -0.2513
14767TIP3   OH265715   0.610   5.359  14.319  0.2413  0.6122  0.2304
14767TIP3    H165716   0.592   5.285  14.261 -1.1193  0.7508  0.4314
14767TIP3    H265717   0.562   5.432  14.279  0.1784  0.9655  0.9486
14768TIP3   OH265718   1.437   1.183   0.238  0.0730  0.2557  0.0989
14768TIP3    H165719   1.426   1.218   0.150 -0.6237 -0.3106 -0.0503
14768TIP3    H265720   1.503   1.239   0.279  2.1210 -0.8525 -1.5370
14769TIP3   OH265721   4.115   0.765  14.040 -0.5316  0.1084 -0.0263
14769TIP3    H165722   4.082   0.791  13.954 -0.0187  0.4688 -0.1131
14769TIP3    H265723   4.036   0.740  14.088 -1.0171  1.5535 -0.0291
14770TIP3   OH265724   6.122   3.283  12.725 -0.1032  0.6764 -0.1773
14770TIP3    H165725   6.161   3.232  12.796  1.2052  1.6594 -0.1500
14770TIP3    H265726   6.108   3.370  12.763 -3.0000  0.2216  0.0114
14771TIP3   OH265727   3.670   5.755   0.352 -0.1337 -0.1448 -0.1882
14771TIP3    H165728   3.671   5.660   0.354  1.2162 -0.1458 -0.5073
14771TIP3    H265729   3.681   5.781   0.443 -1.3426 -0.2779  0.0121
14772TIP3   OH265730   5.806   5.937   4.887 -0.2952  0.1146 -0.1728
14772TIP3    H165731   5.852   5.967   4.966 -0.9661 -0.5638  0.4959
14772TIP3    H265732   5.779   5.847   4.907 -1.2403  0.2286 -0.8338
14773TIP3   OH265733   5.391   2.432  16.637  0.2086  0.2163  0.0236
14773TIP3    H165734   5.470   2.477  16.609  1.6187 -1.7388  0.6588
14773TIP3    H265735   5.329   2.445  16.565  2.1062 -0.6697 -1.8861
14774TIP3   OH265736   5.505   3.549  13.389 -0.3345  0.4891 -0.3620
14774TIP3    H165737   5.498   3.457  13.363 -0.9840  0.4875 -0.1908
14774TIP3    H265738   5.432   3.592  13.344 -0.8096  0.6872  0.5890
14775TIP3   OH265739   3.693   6.227   1.382  0.0823 -0.3010 -0.3771
14775TIP3    H165740   3.641   6.308   1.384 -0.2648 -0.5117 -0.6698
14775TIP3    H265741   3.775   6.250   1.426 -1.0582 -0.5282  2.0050
14776TIP3   OH265742   3.590   0.095  13.074 -0.0921  0.1896 -0.2921
14776TIP3    H165743   3.644   0.111  13.152  0.3162 -0.6201 -0.3997
14776TIP3    H265744   3.522   0.163  13.077 -0.8315 -0.5863  1.4322
14777TIP3   OH265745   3.811   1.332   3.447 -0.9759 -0.4174  0.1920
14777TIP3    H165746   3.781   1.386   3.374  0.2554  0.9163  0.6319
14777TIP3    H265747   3.870   1.388   3.496 -1.5319 -1.3856  2.0697
14778TIP3   OH265748   1.199   6.028   1.210  0.3178  0.2330  0.7003
14778TIP3    H165749   1.179   6.103   1.266  1.5259  0.9210  0.2371
14778TIP3    H265750   1.186   6.060   1.121  0.3991 -0.2541  0.5112
14779TIP3   OH265751   6.414   6.166  16.112  0.1046  0.1444 -0.5409
14779TIP3    H165752   6.497   6.208  16.132 -0.2309  0.9100 -0.7324
14779TIP3    H265753   6.348   6.221  16.155 -0.2429 -0.9408  0.3647
14780TIP3   OH265754   1.020   3.057  16.459  0.4833 -0.0685  0.2758
14780TIP3    H165755   1.010   2.968  16.426  0.6896 -0.3579  0.9785
14780TIP3    H265756   1.038   3.046  16.552  0.6712  0.7036  0.3355
14781TIP3   OH265757   6.374   3.032   5.254 -0.1796  0.2106 -0.6275
14781TIP3    H165758   6.423   3.003   5.177  2.4959 -1.9522  1.6299
14781TIP3    H265759   6.317   2.958   5.276 -0.9239  0.8064 -0.5086
14782TIP3   OH265760   6.469   4.113   0.967  0.3679  0.4969  0.0238
14782TIP3    H165761   6.396   4.094   0.907  2.0253  1.0416 -2.2949
14782TIP3    H265762   6.534   4.045   0.948  1.4698  1.4533  0.2460
14783TIP3   OH265763   1.186   6.687  11.968 -0.0646  0.7086 -0.5483
14783TIP3    H165764   1.126   6.622  11.933  0.9264 -0.6333  0.1195
14783TIP3    H265765   1.271   6.665  11.930  0.8393 -0.1599  1.7556
14784TIP3   OH265766   2.810   2.772  14.178  0.3300  0.2344 -0.2358
14784TIP3    H165767   2.838   2.684  14.153 -0.3714 -0.2205  0.5314
14784TIP3    H265768   2.717   2.763  14.198 -0.2415  1.5669 -2.0605
14785TIP3   OH265769   6.364   2.837  15.661  0.0209  0.0011 -0.0534
14785TIP3    H165770   6.371   2.811  15.570  1.6886  0.3613 -0.0642
14785TIP3    H265771   6.358   2.933  15.658 -0.5585 -0.0244  0.1930
14786TIP3   OH265772   0.731   3.611   4.237 -0.1586 -0.0148  0.2124
14786TIP3    H165773   0.655   3.596   4.294 -1.2027  0.5601 -0.9716
14786TIP3    H265774   0.717   3.552   4.163 -1.0793  2.1812 -1.4795
14787TIP3   OH265775   1.267   4.598  15.920  0.1697 -0.1042  0.2481
14787TIP3    H165776   1.190   4.640  15.960  0.5010 -0.7598  1.6418
14787TIP3    H265777   1.290   4.654  15.846 -2.1138 -0.2990 -0.6959
14788TIP3   OH265778   6.261   1.415   4.996 -0.1522  0.3510 -0.1169
14788TIP3    H165779   6.347   1.415   4.954 -0.3077 -3.2430 -0.7102
14788TIP3    H265780   6.275   1.373   5.080 -1.4511 -1.3166 -0.6843
14789TIP3   OH265781   2.197   5.206   3.854  0.1634 -0.0949 -0.3363
14789TIP3    H165782   2.199   5.210   3.759  0.4442  0.7308 -0.3064
14789TIP3    H265783   2.127   5.267   3.879  0.6091  0.2894  0.0042
14790TIP3   OH265784   3.816   5.026   2.325  0.5291  0.1926  0.0384
14790TIP3    H165785   3.895   5.038   2.378  2.1033  0.3040 -2.1534
14790TIP3    H265786   3.785   4.938   2.346  2.1697 -0.4679 -0.1716
14791TIP3   OH265787   0.277   0.629  15.824  0.1860 -0.0461  0.0665
14791TIP3    H165788   0.280   0.585  15.739 -1.3359 -0.9025  0.4018
14791TIP3    H265789   0.184   0.626  15.849  0.2984  1.8459  0.9174
14792TIP3   OH265790   6.124   4.542   1.858 -0.5769 -0.7897 -0.1727
14792TIP3    H165791   6.131   4.447   1.859 -2.2638 -0.9456 -0.9161
14792TIP3    H265792   6.038   4.561   1.895  0.4674  0.5813  1.7976
14793TIP3   OH265793   5.740   4.185   1.472  0.1367  0.1263 -0.1203
14793TIP3    H165794   5.736   4.089   1.470 -0.5683  0.1533 -0.7185
14793TIP3    H265795   5.734   4.208   1.564  0.3090 -0.4126  0.0271
14794TIP3   OH265796   2.506   6.376  11.899 -0.6120 -0.5158 -0.4118
14794TIP3    H165797   2.564   6.436  11.946  0.3992 -2.0816  0.4531
14794TIP3    H265798   2.499   6.412  11.811 -1.6911  1.9449  0.6025
14795TIP3   OH265799   1.301   5.292  16.255 -0.1963 -0.0653  0.2025
14795TIP3    H165800   1.342   5.261  16.336 -0.1354  2.1600  1.1122
14795TIP3    H265801   1.230   5.231  16.239 -0.3166 -0.4679  2.0547
14796TIP3   OH265802   2.178   2.256   0.550  0.3504  0.1182  0.1673
14796TIP3    H165803   2.129   2.186   0.593  3.1295 -0.6639  2.3707
14796TIP3    H265804   2.243   2.211   0.497  0.2639  1.0877 -0.7900
14797TIP3   OH265805   3.943   3.060   4.137 -0.6928 -0.2493 -0.3246
14797TIP3    H165806   3.982   3.103   4.213 -0.6810 -1.8351  0.6188
14797TIP3    H265807   4.016   3.045   4.078 -0.2901 -0.9287  0.3210
14798TIP3   OH265808   5.724   1.745  13.529 -0.2985 -0.0033  0.0840
14798TIP3    H165809   5.741   1.808  13.459 -0.7533 -0.0192 -0.0495
14798TIP3    H265810   5.761   1.785  13.608 -1.8144  1.1135  0.2782
14799TIP3   OH265811   0.722   0.498  14.567 -0.0355  0.2548  0.2337
14799TIP3    H165812   0.709   0.495  14.472  0.5452  0.7616  0.1303
14799TIP3    H265813   0.757   0.411  14.589  0.7877  0.4679 -0.1746
14800TIP3   OH265814   2.875   3.029  12.833 -0.2419 -0.2165  0.4741
14800TIP3    H165815   2.966   3.050  12.814 -0.3646 -1.5384 -1.9937
14800TIP3    H265816   2.837   3.112  12.863  0.9730  1.2932 -1.8389
14801TIP3   OH265817   3.610   5.691   1.853  0.6106 -0.4486  0.0731
14801TIP3    H165818   3.633   5.777   1.888  0.1678 -0.3877  0.2132
14801TIP3    H265819   3.536   5.662   1.906  0.1381 -0.4946 -0.6043
14802TIP3   OH265820   6.499   2.884   5.011 -0.0861 -0.1306  0.3412
14802TIP3    H165821   6.450   2.803   4.998  0.2183 -0.2960  0.1994
14802TIP3    H265822   6.590   2.855   5.021 -0.1895  0.0192  2.1732
14803TIP3   OH265823   1.419   3.983   0.599  0.0819  0.2633  0.0007
14803TIP3    H165824   1.402   3.940   0.683 -1.1633 -0.0477 -0.3717
14803TIP3    H265825   1.469   3.918   0.549  0.5291  0.3145  0.3771
14804TIP3   OH265826   2.201   1.653   0.188  0.0857  0.2659  0.1391
14804TIP3    H165827   2.182   1.605   0.108 -0.1721  0.7837 -0.1173
14804TIP3    H265828   2.262   1.722   0.161  1.5219 -0.7252  0.7552
14805TIP3   OH265829   5.809   5.399  12.800 -0.3301 -0.3472  0.1726
14805TIP3    H165830   5.766   5.316  12.780  0.5919 -0.5114 -1.2396
14805TIP3    H265831   5.898   5.374  12.827 -0.6336  0.0731  1.6507
14806TIP3   OH265832   0.187   4.362   5.328  0.0834  0.1269  0.0727
14806TIP3    H165833   0.221   4.279   5.295  1.3078  0.0307  1.4921
14806TIP3    H265834   0.100   4.341   5.361  0.8414 -0.8987  1.5205
14807TIP3   OH265835   3.073   6.180  17.402  0.1365  0.1560  1.1743
14807TIP3    H165836   3.137   6.120  17.366 -1.7694 -2.1273  1.3704
14807TIP3    H265837   3.111   6.207  17.486  2.4011  1.7483 -0.2572
14808TIP3   OH265838   0.747   6.433  10.974 -0.3014  0.0437 -0.4066
14808TIP3    H165839   0.668   6.486  10.984 -1.3003 -1.3636 -0.3625
14808TIP3    H265840   0.779   6.453  10.886 -2.3747 -1.4120 -1.5902
14809TIP3   OH265841   5.268   0.588  15.194  0.1637  0.4113  0.4222
14809TIP3    H165842   5.192   0.631  15.234  0.2899  0.7198  0.3352
14809TIP3    H265843   5.302   0.531  15.263 -0.2350  0.1593  0.4128
14810TIP3   OH265844   3.278   3.453   4.259  0.0234 -0.2653  0.0496
14810TIP3    H165845   3.200   3.467   4.313 -1.0278 -2.1526 -0.9048
14810TIP3    H265846   3.316   3.541   4.250 -1.5446  0.5846  1.1603
14811TIP3   OH265847   2.550   5.723   5.736  0.2680 -0.4329 -0.4489
14811TIP3    H165848   2.501   5.804   5.748 -0.6189 -0.9144 -0.8058
14811TIP3    H265849   2.583   5.702   5.824  2.4987  1.5298 -0.7057
14812TIP3   OH265850   4.658   4.089  14.700 -0.1800  0.0937 -0.5273
14812TIP3    H165851   4.614   4.113  14.782  1.0069  0.2577  0.0849
14812TIP3    H265852   4.591   4.042  14.650 -1.8306  2.4904 -0.7233
14813TIP3   OH265853   2.080   1.962  10.651 -0.4282  0.3583 -0.6886
14813TIP3    H165854   2.079   2.038  10.709  1.6846 -0.4335  0.4878
14813TIP3    H265855   2.085   1.998  10.563  2.3326  1.6750 -0.1058
14814TIP3   OH265856   5.907   4.439  16.724  0.1705 -0.3870 -0.1758
14814TIP3    H165857   5.948   4.397  16.648  1.9795 -2.8715  2.0081
14814TIP3    H265858   5.834   4.382  16.747  1.2038 -1.1497  1.4106
14815TIP3   OH265859   5.036   2.164   0.925 -0.9233  0.1216 -0.2776
14815TIP3    H165860   4.961   2.174   0.866 -0.7039  0.9339 -0.4349
14815TIP3    H265861   4.998   2.159   1.012 -1.4340 -3.2048 -0.5297
14816TIP3   OH265862   0.776   6.397  12.603 -0.3349 -0.1850 -0.2222
14816TIP3    H165863   0.690   6.433  12.625 -0.6635 -1.1167  0.0336
14816TIP3    H265864   0.760   6.304  12.586  0.4382 -0.1498 -1.2527
14817TIP3   OH265865   5.146   5.583  10.775 -0.4737 -0.6530  0.1242
14817TIP3    H165866   5.225   5.619  10.815 -0.4667 -0.9409  0.3748
14817TIP3    H265867   5.112   5.654  10.720 -0.5203 -0.2265  0.6912
14818TIP3   OH265868   0.176   0.940  14.151  0.3592  0.5692  0.0447
14818TIP3    H165869   0.101   0.985  14.190  1.1985  1.9045  0.1628
14818TIP3    H265870   0.164   0.848  14.176 -1.0764  0.8095  0.3050
14819TIP3   OH265871   6.148   1.946  13.138  0.1917  0.0704 -0.3397
14819TIP3    H165872   6.168   2.004  13.212  0.7171  0.7275 -0.9788
14819TIP3    H265873   6.124   1.863  13.178  1.1624  0.1999  0.5635
14820TIP3   OH265874   2.997   0.187   0.800 -0.4607  0.3448 -0.2512
14820TIP3    H165875   2.988   0.278   0.826 -0.1527  0.8587 -1.8320
14820TIP3    H265876   2.907   0.157   0.785 -0.6025  0.1951  0.7995
14821TIP3   OH265877   0.431   1.733  11.831  0.0989 -0.0570  0.1066
14821TIP3    H165878   0.474   1.713  11.914 -1.3456 -0.3264  0.8332
14821TIP3    H265879   0.491   1.702  11.764  0.6019 -1.2852  1.0931
14822TIP3   OH265880   5.176   4.738  12.871 -0.3933  0.2778  0.5331
14822TIP3    H165881   5.233   4.702  12.803 -1.3007  0.1916 -0.2213
14822TIP3    H265882   5.146   4.662  12.920 -1.0361  0.1413 -0.0405
14823TIP3   OH265883   1.363   3.822  11.017 -0.1167 -0.6172 -0.2904
14823TIP3    H165884   1.342   3.900  10.965  2.2505 -0.1279 -0.6362
14823TIP3    H265885   1.400   3.761  10.953 -0.9924 -1.6441  0.1612
14824TIP3   OH265886   6.565   3.130  11.604 -0.1512 -0.3171 -0.1278
14824TIP3    H165887   6.566   3.125  11.509  0.3030  0.9872 -0.2216
14824TIP3    H265888   6.658   3.134  11.629 -0.2589  1.9059  0.1450
14825TIP3   OH265889   0.472   4.497  16.309  0.6333  0.0004  0.1358
14825TIP3    H165890   0.508   4.536  16.388  0.0730  2.8803 -0.9168
14825TIP3    H265891   0.384   4.468  16.334  0.3655  1.1096  0.5379
14826TIP3   OH265892   1.821   6.454  11.529  0.4632 -0.5583  0.0442
14826TIP3    H165893   1.728   6.457  11.552  0.1441 -1.1595 -1.0984
14826TIP3    H265894   1.829   6.512  11.453  0.5691 -2.1289 -1.2190
14827TIP3   OH265895   3.504   4.384   0.355  0.3346 -0.6534 -0.0966
14827TIP3    H165896   3.498   4.289   0.350  1.3790 -0.7624  0.5310
14827TIP3    H265897   3.415   4.415   0.334 -0.1464 -1.7754  0.2369
14828TIP3   OH265898   1.869   2.725  11.373 -0.4144 -0.1474 -0.7744
14828TIP3    H165899   1.866   2.710  11.278 -0.2652 -1.1115 -0.6349
14828TIP3    H265900   1.944   2.675  11.403  0.7952  1.7943 -0.4028
14829TIP3   OH265901   4.380   2.830   6.286 -0.3008 -0.5654  0.0719
14829TIP3    H165902   4.322   2.874   6.348 -0.5557  0.2959 -0.7546
14829TIP3    H265903   4.321   2.776   6.233 -0.4213  0.5948 -1.0100
14830TIP3   OH265904   2.168   0.550  13.546 -0.5787  0.0867  0.5386
14830TIP3    H165905   2.133   0.637  13.524  3.0216  1.7408  0.5427
14830TIP3    H265906   2.197   0.559  13.637  0.4102 -0.8995  0.3308
14831TIP3   OH265907   4.950   6.558   0.849  0.1773 -0.3811 -0.1636
14831TIP3    H165908   5.029   6.532   0.896  0.0484  0.9019  0.8108
14831TIP3    H265909   4.878   6.540   0.910 -0.3851 -2.0904 -1.2553
14832TIP3   OH265910   1.945   1.850  12.486 -0.6302 -0.1369 -0.2534
14832TIP3    H165911   2.033   1.816  12.498 -1.1837 -1.4782  0.2883
14832TIP3    H265912   1.895   1.812  12.559 -1.0981  2.7109  1.0433
14833TIP3   OH265913   0.167   0.932   1.174  0.3780 -0.2478  0.3918
14833TIP3    H165914   0.149   0.911   1.083 -3.6821  1.0708  0.7135
14833TIP3    H265915   0.168   0.848   1.219 -0.2271 -0.7379 -0.4913
14834TIP3   OH265916   6.621   0.080  14.202 -0.3092 -0.5315 -0.0194
14834TIP3    H165917   6.709   0.051  14.229 -1.3703 -2.2502  1.9409
14834TIP3    H265918   6.630   0.174  14.188  1.9848 -0.7733 -0.5565
14835TIP3   OH265919   2.856   4.962  15.730 -0.3144  0.7584  0.0901
14835TIP3    H165920   2.912   4.924  15.663  2.0635  3.1382  0.5480
14835TIP3    H265921   2.803   5.027  15.684 -1.0338  0.1798  0.0652
14836TIP3   OH265922   4.932   3.751  17.213 -0.0118 -0.4252  0.3591
14836TIP3    H165923   4.989   3.707  17.151  0.2273  1.5013 -0.8653
14836TIP3    H265924   4.988   3.773  17.287  0.5644  0.3499 -0.2920
14837TIP3   OH265925   0.279   3.029  12.175 -0.0399 -0.3305  0.2663
14837TIP3    H165926   0.299   2.938  12.154  0.1763 -0.4516  0.9781
14837TIP3    H265927   0.346   3.054  12.239  1.7231  1.2261 -2.0071
14838TIP3   OH265928   6.753   1.029   3.512 -0.7067 -0.0436  0.3903
14838TIP3    H165929   6.770   1.072   3.596  0.5969  0.4040 -0.0822
14838TIP3    H265930   6.790   0.942   3.520 -0.5505  0.0112  0.2627
14839TIP3   OH265931   3.516   1.880  10.711  0.0989 -0.5561 -0.7397
14839TIP3    H165932   3.547   1.922  10.630 -2.0167  0.7700 -0.9535
14839TIP3    H265933   3.592   1.880  10.769  0.8176  1.5319 -1.5777
14840TIP3   OH265934   6.287   6.306  15.639  0.3918 -0.2203  0.3310
14840TIP3    H165935   6.218   6.278  15.700 -0.3629  0.9325  0.0422
14840TIP3    H265936   6.365   6.314  15.693  0.0016 -0.3213  0.9249
14841TIP3   OH265937   6.492   5.046  10.948 -0.6356 -0.1885  0.5439
14841TIP3    H165938   6.526   5.129  10.914  1.1124 -1.0887 -0.0079
14841TIP3    H265939   6.480   5.063  11.042 -1.5009  1.0480  0.2369
14842TIP3   OH265940   1.529   6.617  14.678  0.0555  0.2498 -0.1914
14842TIP3    H165941   1.462   6.627  14.610 -0.7327 -1.5616  0.2554
14842TIP3    H265942   1.605   6.664  14.643 -0.3423 -0.5580 -2.3030
14843TIP3   OH265943   5.098   5.475  17.176 -0.4034  0.0021  0.4733
14843TIP3    H165944   5.083   5.474  17.270 -0.9084  1.8432  0.4564
14843TIP3    H265945   5.074   5.564  17.149  2.3061  0.4209 -0.9515
14844TIP3   OH265946   4.633   3.922  16.687  0.2652 -0.1117 -0.3692
14844TIP3    H165947   4.718   3.888  16.714  0.9106  2.6257  1.4501
14844TIP3    H265948   4.629   4.009  16.726 -2.2243  0.9591 -2.7162
14845TIP3   OH265949   5.764   5.087   1.932  0.0691 -0.5132  0.4737
14845TIP3    H165950   5.750   5.104   2.025 -0.2043 -1.5932  0.6434
14845TIP3    H265951   5.806   5.001   1.930 -1.1800 -1.1317 -0.4618
14846TIP3   OH265952   3.235   4.139   0.660  0.0236  0.4138  0.1114
14846TIP3    H165953   3.147   4.102   0.664 -0.0277  0.5166 -0.0691
14846TIP3    H265954   3.276   4.094   0.586  0.4154 -0.2721  0.7321
14847TIP3   OH265955   1.040   2.505  14.567  0.5447  0.1889  0.8827
14847TIP3    H165956   0.984   2.575  14.535 -2.0558 -1.4485  1.5301
14847TIP3    H265957   1.075   2.537  14.650 -0.3161  0.8615  0.9943
14848TIP3   OH265958   4.989   5.702   0.141  0.1008  0.6045 -0.2138
14848TIP3    H165959   4.948   5.758   0.206 -1.6332  1.1261 -1.6676
14848TIP3    H265960   4.919   5.682   0.079  1.9076  1.1743 -2.6018
14849TIP3   OH265961   1.346   2.144   1.525 -0.6578 -0.2135 -0.3760
14849TIP3    H165962   1.278   2.076   1.525 -1.2847  0.3989  0.5544
14849TIP3    H265963   1.335   2.190   1.608  2.7518 -1.9030  1.2069
14850TIP3   OH265964   5.692   4.212   5.153 -0.0212  0.4803 -0.0951
14850TIP3    H165965   5.667   4.223   5.061 -0.8154  3.1598  0.3373
14850TIP3    H265966   5.620   4.252   5.202 -0.3368 -2.1989  1.8272
14851TIP3   OH265967   5.578   3.934   1.895  0.4399  0.2192  0.1987
14851TIP3    H165968   5.616   3.908   1.979  0.0492  0.0002  0.3116
14851TIP3    H265969   5.549   3.852   1.855  1.9772  0.1478 -0.8444
14852TIP3   OH265970   0.710   1.665   2.999 -0.2618  0.5714 -0.3362
14852TIP3    H165971   0.766   1.711   3.061  0.4737  1.3790 -1.5404
14852TIP3    H265972   0.768   1.646   2.925 -0.9265 -0.9745 -0.5124
14853TIP3   OH265973   6.170   4.172   4.131 -0.0293 -0.2706 -0.2468
14853TIP3    H165974   6.257   4.142   4.156  0.0407 -0.2502 -0.4618
14853TIP3    H265975   6.125   4.188   4.214  0.2467 -0.0680 -0.1327
14854TIP3   OH265976   6.467   5.418  15.765 -0.0335 -0.4810 -0.0916
14854TIP3    H165977   6.448   5.330  15.734 -0.1235 -0.2264 -0.7938
14854TIP3    H265978   6.533   5.451  15.703 -0.7166  0.2851 -0.4317
14855TIP3   OH265979   5.280   3.239  14.510 -0.2579 -0.4030  0.1907
14855TIP3    H165980   5.307   3.150  14.488 -1.9525 -1.0267  0.5112
14855TIP3    H265981   5.277   3.284  14.425  0.2405 -0.7330 -0.0144
14856TIP3   OH265982   4.224   5.613  13.354  0.5849  0.4595  0.0919
14856TIP3    H165983   4.310   5.616  13.311  1.2522 -1.9238  1.1362
14856TIP3    H265984   4.224   5.689  13.413  0.9069  1.9384 -1.7067
14857TIP3   OH265985   5.642   5.376   3.835  0.1724  0.3719  0.5543
14857TIP3    H165986   5.676   5.309   3.895 -0.1614 -1.0920 -0.8310
14857TIP3    H265987   5.666   5.345   3.748 -0.0733  2.0369 -0.1454
14858TIP3   OH265988   1.822   4.149  12.649 -0.1467 -0.1237 -0.4260
14858TIP3    H165989   1.884   4.121  12.581  1.9625 -0.1675  1.3795
14858TIP3    H265990   1.878   4.185  12.718 -2.1674 -0.4038  1.4505
14859TIP3   OH265991   6.001   3.645  10.112 -0.5236  0.1727  0.3261
14859TIP3    H165992   6.024   3.650  10.205  0.6937  1.4373  0.0037
14859TIP3    H265993   6.081   3.613  10.070 -0.6299  0.8738 -0.4248
14860TIP3   OH265994   6.306   3.210  13.341 -0.6612  0.2403 -0.3303
14860TIP3    H165995   6.387   3.260  13.348  0.3193 -1.5107  2.4608
14860TIP3    H265996   6.290   3.177  13.430 -3.5044 -0.9248 -1.1561
14861TIP3   OH265997   6.564   2.935  11.892  0.2342 -0.2431  0.4122
14861TIP3    H165998   6.539   2.981  11.812 -0.2567 -0.4159  0.4635
14861TIP3    H265999   6.660   2.932  11.889  0.2001 -1.5807 -0.9428
14862TIP3   OH266000   4.570   6.527  14.483 -0.2313 -0.3099  0.1885
14862TIP3    H166001   4.596   6.609  14.441 -1.2575 -0.2802 -0.4060
14862TIP3    H266002   4.525   6.554  14.562 -0.9243 -0.2774 -0.2100
14863TIP3   OH266003   6.118   5.449  14.628 -0.3160 -0.2651 -0.2253
14863TIP3    H166004   6.031   5.410  14.637 -0.9977  1.1102 -0.6385
14863TIP3    H266005   6.102   5.541  14.606  1.2221 -0.3167 -1.8261
14864TIP3   OH266006   4.739   6.255  11.531 -0.1966  0.0044 -0.1566
14864TIP3    H166007   4.824   6.220  11.503 -1.1432 -1.1054 -1.8352
14864TIP3    H266008   4.735   6.342  11.493 -0.4143 -0.5316 -1.4097
14865TIP3   OH266009   3.864   4.451  10.905 -0.1583  0.4732 -0.5798
14865TIP3    H166010   3.888   4.474  10.995  1.1850  0.0568 -0.8124
14865TIP3    H266011   3.840   4.358  10.910  1.9246 -0.1269 -0.9847
14866TIP3   OH266012   6.668   0.361  14.225  0.1809  0.3258 -0.6449
14866TIP3    H166013   6.684   0.455  14.242 -0.0213  0.6195 -2.0092
14866TIP3    H266014   6.715   0.343  14.144  2.5464 -1.4524  0.9713
14867TIP3   OH266015   3.827   2.092  15.258  0.1466 -0.2463 -0.4569
14867TIP3    H166016   3.797   2.182  15.244 -1.0545 -0.5512  0.0923
14867TIP3    H266017   3.922   2.100  15.265  0.1365  0.8701 -1.2323
14868TIP3   OH266018   6.239   1.654  14.290 -0.0250  0.7726  0.7468
14868TIP3    H166019   6.202   1.725  14.237 -1.3747  0.6726  1.5273
14868TIP3    H266020   6.333   1.658  14.272 -0.3154  1.4353 -0.8048
14869TIP3   OH266021   6.511   1.609  14.577  0.6616 -0.0779 -0.0914
14869TIP3    H166022   6.584   1.594  14.637  0.0097 -0.4463  0.6314
14869TIP3    H266023   6.460   1.528  14.580  1.1556 -0.5040 -1.9502
14870TIP3   OH266024   4.531   2.133  13.562 -0.2158 -0.3756  0.8967
14870TIP3    H166025   4.531   2.133  13.466  0.6783 -1.0191  0.8867
14870TIP3    H266026   4.441   2.110  13.586  0.0364 -2.3383  0.1742
14871TIP3   OH266027   3.232   1.008   3.539  0.2608  0.1686 -0.2215
14871TIP3    H166028   3.287   1.043   3.609  0.2339 -2.8278  1.4860
14871TIP3    H266029   3.294   0.968   3.478  0.1338 -0.6281  0.1611
14872TIP3   OH266030   4.194   4.245   3.567 -0.4203  0.2139 -0.7052
14872TIP3    H166031   4.115   4.298   3.566 -0.4809  0.1984  0.7996
14872TIP3    H266032   4.265   4.306   3.547 -0.6111  0.6165 -0.1427
14873TIP3   OH266033   5.024   6.167   0.298  0.2500 -0.0772 -0.0862
14873TIP3    H166034   5.099   6.112   0.324  2.4534  2.6197 -0.2701
14873TIP3    H266035   5.054   6.211   0.219 -2.5918 -0.7412 -1.6535
14874TIP3   OH266036   4.197   6.118   9.987 -0.2937  0.3239  0.1585
14874TIP3    H166037   4.238   6.057  10.049 -0.4459 -1.0323 -1.0122
14874TIP3    H266038   4.114   6.075   9.963 -0.3971  0.9773 -0.7112
14875TIP3   OH266039   5.291   3.761  16.220 -0.1195  0.2461  0.1451
14875TIP3    H166040   5.198   3.766  16.199 -0.4913  0.7086  1.7726
14875TIP3    H266041   5.324   3.690  16.164 -0.8802  1.6839 -2.2879
14876TIP3   OH266042   3.663   6.419  12.742  0.5499 -0.5869 -0.1571
14876TIP3    H166043   3.569   6.437  12.739  0.3750 -1.5983 -1.8855
14876TIP3    H266044   3.680   6.397  12.833 -0.9920 -0.8829  0.0857
14877TIP3   OH266045   3.515   1.121   1.269 -0.3941  0.1144  0.1510
14877TIP3    H166046   3.451   1.136   1.200 -1.0524 -0.1150  0.7012
14877TIP3    H266047   3.486   1.174   1.342  1.0941  1.4890 -0.1937
14878TIP3   OH266048   6.248   0.119  12.444 -0.1185 -0.2751  0.3167
14878TIP3    H166049   6.189   0.079  12.508 -3.2080  0.5378 -1.7889
14878TIP3    H266050   6.234   0.213  12.454  1.6026 -0.0053  0.3875
14879TIP3   OH266051   1.210   6.682   1.344  0.3890 -0.1320 -0.2001
14879TIP3    H166052   1.161   6.762   1.364  0.5834  0.4085 -1.6760
14879TIP3    H266053   1.249   6.700   1.258  0.4487 -1.8148 -0.5580
14880TIP3   OH266054   2.047   0.600  12.443 -0.7599 -0.7745 -1.0477
14880TIP3    H166055   2.051   0.637  12.531 -0.8574  0.1388 -1.4258
14880TIP3    H266056   2.020   0.672  12.387 -1.6098 -1.5696 -1.7047
14881TIP3   OH266057   4.124   6.632   1.599  0.3212 -0.3186  0.6153
14881TIP3    H166058   4.107   6.654   1.690 -0.9564  0.1335  0.2884
14881TIP3    H266059   4.205   6.678   1.578 -0.6858  1.6570  0.8183
14882TIP3   OH266060   0.609   0.102   4.292 -0.0905  0.0448 -0.4360
14882TIP3    H166061   0.616   0.011   4.264  0.1112 -0.3389  0.7836
14882TIP3    H266062   0.695   0.124   4.326 -0.9793 -0.4213  2.3696
14883TIP3   OH266063   6.015   3.410  15.874 -1.0020  0.8781  0.1443
14883TIP3    H166064   5.999   3.436  15.964  0.0011 -0.1275  0.6441
14883TIP3    H266065   5.979   3.481  15.821  0.1999  2.4753  1.3740
14884TIP3   OH266066   2.263   3.701   0.663  0.0049 -0.0543  0.0281
14884TIP3    H166067   2.243   3.612   0.691  3.5917 -1.7093 -1.9517
14884TIP3    H266068   2.330   3.731   0.724 -1.7419  1.7425  1.1840
14885TIP3   OH266069   5.514   4.494   1.677 -0.2503 -0.1199 -0.3064
14885TIP3    H166070   5.528   4.588   1.664 -0.7454 -0.3341 -3.0775
14885TIP3    H266071   5.508   4.459   1.588 -1.1569 -2.6206  0.6689
14886TIP3   OH266072   5.350   0.413   4.587 -0.2180  0.4855  0.3498
14886TIP3    H166073   5.376   0.342   4.528  0.9327  0.6176  0.6720
14886TIP3    H266074   5.255   0.404   4.596  0.0609 -1.8514  1.4646
14887TIP3   OH266075   5.086   1.108   0.775  0.0160  0.0205  0.5262
14887TIP3    H166076   5.132   1.028   0.800 -1.6488 -2.0777 -2.3739
14887TIP3    H266077   5.011   1.112   0.834 -0.3918 -1.1511  0.1189
14888TIP3   OH266078   3.853   1.825   1.871  0.4872  0.0718  0.3696
14888TIP3    H166079   3.923   1.793   1.814  0.9379  1.3847  0.1714
14888TIP3    H266080   3.802   1.884   1.817 -0.9777 -1.0838  0.4306
14889TIP3   OH266081   1.396   5.004  17.253  0.0655  0.3661  0.2244
14889TIP3    H166082   1.447   4.975  17.177  1.1275 -1.7071  1.6166
14889TIP3    H266083   1.378   4.923  17.302 -2.2201  1.4007  1.2281
14890TIP3   OH266084   0.810   5.871   2.737 -0.0755 -0.4137 -0.3404
14890TIP3    H166085   0.770   5.849   2.820  1.5552 -1.0494  0.3249
14890TIP3    H266086   0.737   5.895   2.680 -1.2597 -0.4596  1.1099
14891TIP3   OH266087   0.778   0.019  12.105  0.2289  0.1199 -0.7931
14891TIP3    H166088   0.771   0.104  12.063 -2.4527  0.3150 -0.0741
14891TIP3    H266089   0.857   0.025  12.159  0.5419  1.8040 -1.3907
14892TIP3   OH266090   0.511   1.524  13.165  0.1069 -0.4321  0.6600
14892TIP3    H166091   0.595   1.568  13.157  0.2052 -0.8643 -1.1717
14892TIP3    H266092   0.527   1.435  13.133 -1.2809 -0.1851 -0.8387
14893TIP3   OH266093   3.025   1.392  14.002  0.3894 -0.3011  0.5154
14893TIP3    H166094   3.061   1.356  14.084 -0.2874  0.8322  1.3449
14893TIP3    H266095   3.100   1.431  13.958  0.9758 -1.8827  0.0149
14894TIP3   OH266096   3.116   5.174  12.604  0.5789 -0.7522 -0.2581
14894TIP3    H166097   3.059   5.246  12.633  0.9382  0.1875 -1.7486
14894TIP3    H266098   3.189   5.175  12.666  1.4840  1.4080 -1.2237
14895TIP3   OH266099   6.132   5.791   4.970 -0.2049  0.0776  0.1204
14895TIP3    H166100   6.114   5.878   5.005 -2.0833 -0.8290  1.6052
14895TIP3    H266101   6.177   5.745   5.041  1.2181 -0.0659 -0.8258
14896TIP3   OH266102   0.110   3.346  10.213  0.0003  0.6481 -0.0524
14896TIP3    H166103   0.198   3.348  10.176  0.3811  1.5500  0.8390
14896TIP3    H266104   0.061   3.411  10.163 -0.1968  0.0868 -0.6032
14897TIP3   OH266105   2.557   5.636   1.145  0.0279  0.2135 -0.4389
14897TIP3    H166106   2.577   5.715   1.194 -2.3581  0.5637  0.0689
14897TIP3    H266107   2.559   5.663   1.053 -1.9217  1.1945 -0.2255
14898TIP3   OH266108   3.322   5.918  12.873 -0.0781 -0.0650 -0.0732
14898TIP3    H166109   3.299   5.908  12.781  0.2811 -0.9000 -0.0861
14898TIP3    H266110   3.357   6.007  12.880  0.1677 -0.0961 -0.8035
14899TIP3   OH266111   1.725   6.704  16.542 -0.0546 -0.1492  0.4218
14899TIP3    H166112   1.634   6.708  16.514  0.5956 -2.5531 -2.6328
14899TIP3    H266113   1.731   6.621  16.590  0.2653  0.6981  1.8831
14900TIP3   OH266114   0.206   3.985  11.528  0.3701 -0.1205 -0.2198
14900TIP3    H166115   0.218   4.052  11.595  1.4639  0.6624 -1.1555
14900TIP3    H266116   0.147   4.026  11.464 -1.4123 -1.1944  0.6512
14901TIP3   OH266117   2.627   0.549   0.148 -0.0013 -0.2842  0.3453
14901TIP3    H166118   2.534   0.529   0.164 -0.6767  2.4373  0.4226
14901TIP3    H266119   2.653   0.603   0.223  2.1678 -2.2726  1.1248
14902TIP3   OH266120   5.136   3.088   4.078 -0.5681 -0.2770 -0.0956
14902TIP3    H166121   5.046   3.058   4.065 -1.0553  0.5135  1.2328
14902TIP3    H266122   5.170   3.103   3.989 -2.4149  1.2812 -0.6142
14903TIP3   OH266123   5.675   2.780   6.190 -0.4603 -0.2306  0.4524
14903TIP3    H166124   5.589   2.768   6.231 -0.5806  0.0659  0.2926
14903TIP3    H266125   5.674   2.871   6.160 -0.2481 -0.3515  0.0810
14904TIP3   OH266126   1.307   4.909  14.211  0.4458 -0.3130  0.2470
14904TIP3    H166127   1.227   4.863  14.236 -0.8379  1.6761  0.0223
14904TIP3    H266128   1.326   4.879  14.122  0.9143 -2.0022  0.8778
14905TIP3   OH266129   3.066   3.423  13.880 -0.1934 -0.2108 -0.6465
14905TIP3    H166130   3.022   3.488  13.824 -0.8888 -1.3955 -1.5329
14905TIP3    H266131   3.045   3.451  13.969  1.0792  1.8145 -0.9261
14906TIP3   OH266132   4.383   6.464   2.196 -0.5656 -0.2945  0.0567
14906TIP3    H166133   4.373   6.494   2.105  0.9367  0.8660  0.2375
14906TIP3    H266134   4.450   6.521   2.233 -0.7861 -1.0792  1.7660
14907TIP3   OH266135   3.163   5.483  12.622 -0.5778 -0.0252  0.1733
14907TIP3    H166136   3.170   5.578  12.618 -1.4868  0.0120 -1.6488
14907TIP3    H266137   3.171   5.462  12.715 -2.0115  1.9594  0.8115
14908TIP3   OH266138   4.958   0.315   5.453  0.1568 -0.0872 -0.0981
14908TIP3    H166139   5.045   0.276   5.461  0.0446 -0.3388 -0.0925
14908TIP3    H266140   4.975   0.404   5.422  0.3656 -0.5421 -1.3894
14909TIP3   OH266141   4.856   2.755   0.582  0.1950  0.0635 -0.3419
14909TIP3    H166142   4.798   2.679   0.574 -0.4495  0.7013 -2.2601
14909TIP3    H266143   4.939   2.726   0.543 -0.0903  0.3728 -1.1866
14910TIP3   OH266144   3.145   1.086  17.354  0.3975 -0.2908 -0.4046
14910TIP3    H166145   3.124   1.064  17.445  1.1124  1.3643  0.1983
14910TIP3    H266146   3.189   1.171  17.360 -0.0378  0.1048 -2.3537
14911TIP3   OH266147   3.531   3.927  17.083 -0.1828 -0.4306  0.3785
14911TIP3    H166148   3.512   4.013  17.122  1.5837 -0.0997  0.6092
14911TIP3    H266149   3.469   3.920  17.011  2.1181  2.9549 -2.3083
14912TIP3   OH266150   4.080   3.652   5.170  0.3912  0.4341  0.2368
14912TIP3    H166151   4.003   3.676   5.118 -1.4800 -0.8466  2.2493
14912TIP3    H266152   4.139   3.611   5.107  0.2381  2.8995 -1.6979
14913TIP3   OH266153   1.918   4.495   1.992  0.4087  0.7141  0.7440
14913TIP3    H166154   1.902   4.475   2.085  1.7181 -0.0331  0.8371
14913TIP3    H266155   1.923   4.410   1.950 -0.8977  1.0660 -0.1719
14914TIP3   OH266156   2.616   0.595   0.667 -0.0693  0.1214  0.1829
14914TIP3    H166157   2.578   0.507   0.670 -1.6698  0.7312 -0.8556
14914TIP3    H266158   2.549   0.651   0.706  0.6469  0.9780  0.2116
14915TIP3   OH266159   3.748   2.385   3.351 -0.0717  0.4709  0.0020
14915TIP3    H166160   3.794   2.467   3.366 -0.6176  0.7473  0.1723
14915TIP3    H266161   3.658   2.403   3.376 -0.5195  0.2590 -1.3905
14916TIP3   OH266162   4.517   2.305  12.349 -0.8141  0.0724 -0.2445
14916TIP3    H166163   4.502   2.370  12.280  0.1265 -0.1035 -0.6287
14916TIP3    H266164   4.569   2.351  12.414  1.8418 -0.8786 -1.5689
14917TIP3   OH266165   3.839   4.461  11.628 -0.0735 -0.3007  0.2206
14917TIP3    H166166   3.842   4.522  11.555  2.3824 -0.4831  0.0925
14917TIP3    H266167   3.809   4.514  11.702 -0.4443  0.4197 -0.4242
14918TIP3   OH266168   3.677   1.321  16.083  0.5108 -0.1958  0.5217
14918TIP3    H166169   3.710   1.400  16.126  1.8729 -1.8140  2.6634
14918TIP3    H266170   3.754   1.278  16.048 -0.0490 -1.1624  0.4289
14919TIP3   OH266171   4.856   4.551  15.513 -0.7518  0.2624 -0.1216
14919TIP3    H166172   4.935   4.503  15.487 -1.0932 -0.1163 -0.4726
14919TIP3    H266173   4.806   4.561  15.433 -0.0397  2.4818 -0.3451
14920TIP3   OH266174   4.010   2.241  17.257  0.0474 -0.2251  0.0479
14920TIP3    H166175   4.078   2.178  17.281 -0.7605 -2.6211 -3.1949
14920TIP3    H266176   4.058   2.316  17.222  1.0253 -0.9380 -0.1746
14921TIP3   OH266177   0.572   5.612   1.467 -0.3603  0.3719 -0.5585
14921TIP3    H166178   0.574   5.522   1.434 -0.6337  1.0109 -2.4589
14921TIP3    H266179   0.656   5.623   1.511 -0.0521 -0.6332 -0.8617
14922TIP3   OH266180   2.719   6.613  13.016  0.1547 -0.1231 -0.1708
14922TIP3    H166181   2.716   6.518  13.008 -0.1947 -0.1154 -0.1441
14922TIP3    H266182   2.642   6.644  12.969  0.5598  0.1816 -0.6373
14923TIP3   OH266183   3.829   6.460  16.433  0.2103  0.3794  0.2624
14923TIP3    H166184   3.773   6.519  16.382 -0.2486 -0.8620 -0.7252
14923TIP3    H266185   3.782   6.447  16.515 -1.7204 -1.7101 -1.0644
14924TIP3   OH266186   2.527   3.220   3.784  0.1112 -0.1785  0.0298
14924TIP3    H166187   2.484   3.285   3.727  2.1761 -0.0090 -1.4523
14924TIP3    H266188   2.571   3.161   3.723  1.6056 -0.5926  1.4501
14925TIP3   OH266189   1.755   5.427   3.579  0.3865 -0.1354  0.7997
14925TIP3    H166190   1.676   5.402   3.628 -0.1555 -0.7959 -0.3590
14925TIP3    H266191   1.727   5.501   3.524  0.3685 -0.7867 -0.0978
14926TIP3   OH266192   2.288   6.588  16.908  0.2583 -0.3771  0.0642
14926TIP3    H166193   2.338   6.517  16.947  0.1187 -0.1758  0.6166
14926TIP3    H266194   2.325   6.668  16.946 -1.0355 -0.2617  1.1412
14927TIP3   OH266195   4.233   6.569  12.359 -0.0015  0.0368  0.0424
14927TIP3    H166196   4.257   6.571  12.267  1.3888  0.3001  0.3871
14927TIP3    H266197   4.314   6.546  12.404 -1.1760 -2.5459  1.0329
14928TIP3   OH266198   2.251   2.523   0.218 -0.2774  0.7803 -0.2017
14928TIP3    H166199   2.290   2.610   0.208 -2.5530  1.8072 -0.6255
14928TIP3    H266200   2.241   2.513   0.313  1.7123  0.1091 -0.0048
14929TIP3   OH266201   2.520   4.321  11.482 -0.2775  0.2428 -0.6930
14929TIP3    H166202   2.598   4.311  11.427  2.7536  0.8270  3.0669
14929TIP3    H266203   2.526   4.248  11.545 -2.8655  0.2870 -0.3103
14930TIP3   OH266204   4.739   4.567  13.507 -0.2910  0.1011  0.5221
14930TIP3    H166205   4.701   4.571  13.419  1.1614 -1.0877 -0.2111
14930TIP3    H266206   4.825   4.609  13.497  0.2099 -0.7462  1.1769
14931TIP3   OH266207   0.233   4.530  10.718  0.6178  0.0455  0.0527
14931TIP3    H166208   0.148   4.522  10.675  0.1919 -0.9762  1.0307
14931TIP3    H266209   0.236   4.621  10.748  0.7713  0.6704 -1.7591
14932TIP3   OH266210   1.949   2.752   1.985  0.4302  0.3126 -0.3748
14932TIP3    H166211   1.860   2.746   1.950  0.1817  1.7864 -0.0615
14932TIP3    H266212   1.981   2.837   1.955  1.5330  0.0326 -0.0314
14933TIP3   OH266213   3.429   6.616  14.321 -0.5237 -0.2452 -0.5569
14933TIP3    H166214   3.444   6.710  14.314 -3.7830  0.4027 -0.5246
14933TIP3    H266215   3.511   6.580  14.355  1.0062  2.4689 -1.1508
14934TIP3   OH266216   5.734   5.122   3.920  0.3404 -0.3556 -0.0186
14934TIP3    H166217   5.688   5.042   3.895 -0.4657  0.1264 -0.0975
14934TIP3    H266218   5.808   5.127   3.860 -0.4056 -0.3043 -0.9560
14935TIP3   OH266219   6.741   0.620  11.935  0.1088 -0.8802 -0.4070
14935TIP3    H166220   6.698   0.690  11.983  2.2716 -0.2931  0.7894
14935TIP3    H266221   6.731   0.645  11.843  1.4451  1.4617  0.0005
14936TIP3   OH266222   6.506   6.741   4.913 -0.5138  0.1328  0.0843
14936TIP3    H166223   6.496   6.763   5.006  0.9373 -2.1070  0.8449
14936TIP3    H266224   6.473   6.652   4.906  0.7922 -0.2887 -1.2134
14937TIP3   OH266225   4.653   3.480   0.716  0.0735  0.4592  0.1127
14937TIP3    H166226   4.726   3.540   0.728  0.6351 -0.0984 -0.4631
14937TIP3    H266227   4.682   3.420   0.647 -1.0096  0.3750 -0.2950
14938TIP3   OH266228   2.591   0.331   5.435 -0.2338  0.0929 -0.1070
14938TIP3    H166229   2.500   0.303   5.446 -0.2019  0.3260  0.8457
14938TIP3    H266230   2.642   0.251   5.445 -0.3029  0.0569 -0.0351
14939TIP3   OH266231   0.829   1.612  11.918  0.0002  0.0403 -0.9601
14939TIP3    H166232   0.740   1.646  11.924 -0.2731 -0.6585 -1.0968
14939TIP3    H266233   0.847   1.577  12.005  0.5022  1.0492 -0.6372
14940TIP3   OH266234   2.144   5.512   6.307 -0.2750  0.2757 -0.2197
14940TIP3    H166235   2.193   5.581   6.262 -1.9826  0.9785 -1.0850
14940TIP3    H266236   2.149   5.536   6.400  1.7178 -0.1659 -0.1652
14941TIP3   OH266237   3.951   0.121   1.360  0.2118 -0.3570  0.1090
14941TIP3    H166238   3.960   0.215   1.346  1.3825 -0.3114  1.0071
14941TIP3    H266239   4.037   0.085   1.338  0.3880 -0.9551  1.6502
14942TIP3   OH266240   1.387   6.077   4.443  0.2732  0.0195 -0.6408
14942TIP3    H166241   1.323   6.040   4.383  0.4756  1.1352 -1.5807
14942TIP3    H266242   1.471   6.041   4.414  0.1982 -0.6765 -0.0212
14943TIP3   OH266243   3.548   6.673   0.658  0.0610 -0.6794 -0.1312
14943TIP3    H166244   3.459   6.648   0.632 -1.0668  0.4257  2.3692
14943TIP3    H266245   3.577   6.603   0.715 -0.7333  0.6096  1.9957
14944TIP3   OH266246   0.535   3.710  10.878  0.4467 -0.4756 -0.0726
14944TIP3    H166247   0.585   3.730  10.799 -0.1744  0.5839 -0.2129
14944TIP3    H266248   0.456   3.667  10.847 -0.5395  1.3287 -0.1980
14945TIP3   OH266249   6.567   0.215   3.376  0.9268  0.6085  0.4573
14945TIP3    H166250   6.530   0.148   3.318  0.9618  0.6849  0.3476
14945TIP3    H266251   6.523   0.201   3.459 -2.2381  3.1149 -0.5907
14946TIP3   OH266252   4.964   6.536  16.154 -0.0682 -0.1268 -0.2693
14946TIP3    H166253   4.884   6.531  16.206  0.2912 -1.0271  0.2237
14946TIP3    H266254   4.983   6.445  16.130  2.1901 -0.3162  1.8290
14947TIP3   OH266255   1.293   3.591  16.879 -0.9665  0.0395 -0.2575
14947TIP3    H166256   1.216   3.547  16.915  0.0827 -2.6157 -1.0760
14947TIP3    H266257   1.258   3.660  16.823 -2.7991 -1.6950 -1.3348
14948TIP3   OH266258   1.616   3.966  16.557  0.6111 -0.1624 -0.7469
14948TIP3    H166259   1.562   4.044  16.570  1.0985 -0.3103  3.5832
14948TIP3    H266260   1.705   3.999  16.547  0.7337 -0.0595  0.4840
14949TIP3   OH266261   6.587   5.057   0.048 -0.1895  0.4748 -0.4399
14949TIP3    H166262   6.604   5.091   0.136 -0.1380  2.0990 -1.0411
14949TIP3    H266263   6.647   5.105  -0.008 -0.1120 -0.6536 -1.3594
14950TIP3   OH266264   1.406   6.727   1.116  0.0854  0.1737  0.6034
14950TIP3    H166265   1.488   6.693   1.080  0.7531  1.4071  0.9105
14950TIP3    H266266   1.350   6.741   1.040  1.3727  2.4605  0.0042
14951TIP3   OH266267   6.378   0.488  10.410 -0.4010 -0.2323  0.1199
14951TIP3    H166268   6.319   0.429  10.363  0.7700 -0.7223 -0.7902
14951TIP3    H266269   6.355   0.575  10.378 -1.2549 -0.3104  0.4919
14952TIP3   OH266270   4.606   2.069   4.898  0.3993 -0.0852  0.2666
14952TIP3    H166271   4.521   2.079   4.855  0.6681  0.1018 -0.2277
14952TIP3    H266272   4.634   2.158   4.918  1.0300 -0.0601 -0.6663
14953TIP3   OH266273   4.847   3.746   5.451  0.4577  0.0450  0.3029
14953TIP3    H166274   4.816   3.798   5.377 -0.9443  0.2180  0.9714
14953TIP3    H266275   4.884   3.810   5.511 -1.9802  0.4956  1.4859
14954TIP3   OH266276   4.644   4.183  16.770  0.6569  0.9261  0.1413
14954TIP3    H166277   4.730   4.220  16.749  0.8255  1.4119  1.5938
14954TIP3    H266278   4.596   4.256  16.810  0.3668  0.0482  1.4387
14955TIP3   OH266279   2.426   3.190  12.181  0.2662  0.4629  0.1108
14955TIP3    H166280   2.465   3.261  12.230 -2.8730  1.5175  1.2870
14955TIP3    H266281   2.416   3.224  12.092 -1.5928  1.7214  0.7621
14956TIP3   OH266282   3.654   4.262   0.109 -0.6245  0.5486 -0.7631
14956TIP3    H166283   3.671   4.336   0.168 -0.5253 -2.4009  3.4085
14956TIP3    H266284   3.563   4.273   0.082 -0.2105  2.8249 -1.4594
14957TIP3   OH266285   4.508   2.486  10.938 -0.1995  0.6876 -0.1607
14957TIP3    H166286   4.525   2.536  10.858 -1.2719 -1.0359 -1.5578
14957TIP3    H266287   4.412   2.486  10.946 -0.0745  2.2765  2.1498
14958TIP3   OH266288   2.564   3.087  13.475 -0.3756  0.1037  1.0316
14958TIP3    H166289   2.570   3.175  13.513  2.3999  0.9616 -1.0163
14958TIP3    H266290   2.654   3.067  13.448 -1.2788 -2.5588 -0.3466
14959TIP3   OH266291   1.164   3.937  14.215 -0.2028  0.3046 -0.2897
14959TIP3    H166292   1.163   3.870  14.147  1.2347 -0.3215  0.2587
14959TIP3    H266293   1.257   3.959  14.226 -0.6760  3.2214 -1.2016
14960TIP3   OH266294   6.268   6.324   0.499  0.2219  0.6248  0.4088
14960TIP3    H166295   6.202   6.352   0.562 -0.6464  1.3552 -0.7894
14960TIP3    H266296   6.352   6.347   0.540 -0.3573  2.2620  0.7567
14961TIP3   OH266297   1.019   2.956   1.357  0.4396 -0.4208 -0.2511
14961TIP3    H166298   1.072   2.925   1.283  2.0697 -1.1762  1.1624
14961TIP3    H266299   1.055   3.042   1.379 -1.5617  0.8890 -1.7180
14962TIP3   OH266300   2.317   5.024  14.800  0.0196  0.2428  0.4812
14962TIP3    H166301   2.256   4.955  14.774  0.7280 -0.9062  1.7654
14962TIP3    H266302   2.348   5.061  14.717 -0.6340 -0.7460 -0.2244
14963TIP3   OH266303   0.931   3.530  16.026  0.7050 -0.1367  0.1065
14963TIP3    H166304   0.957   3.516  16.116 -1.6634 -1.4717  0.6702
14963TIP3    H266305   0.854   3.587  16.031 -1.2936 -2.5479 -0.7196
14964TIP3   OH266306   1.016   5.684  15.362  0.0693 -0.5199 -0.4044
14964TIP3    H166307   1.016   5.760  15.303 -0.3895 -0.6863 -0.6233
14964TIP3    H266308   1.022   5.608  15.303 -0.2792 -0.6847 -0.2301
14965TIP3   OH266309   3.280   2.455   0.729  0.3023 -0.2389  0.1839
14965TIP3    H166310   3.291   2.365   0.698  1.3570 -0.3680  0.8525
14965TIP3    H266311   3.285   2.509   0.650  0.6831 -0.7052 -0.1198
14966TIP3   OH266312   4.431   4.043   2.956 -0.3772  0.2516 -0.2006
14966TIP3    H166313   4.432   4.137   2.974  2.4125  0.4429 -0.9560
14966TIP3    H266314   4.389   4.004   3.033  1.2334  1.8992  1.6202
14967TIP3   OH266315   0.795   4.139   0.071  0.4598 -0.1570  0.3952
14967TIP3    H166316   0.835   4.066   0.117  1.3513  1.0918  1.6670
14967TIP3    H266317   0.847   4.149  -0.008  1.1491 -0.0747  0.8557
14968TIP3   OH266318   5.235   1.804  12.445  0.0305 -0.4682  0.0485
14968TIP3    H166319   5.247   1.851  12.362 -0.1358 -0.4560  0.0321
14968TIP3    H266320   5.233   1.711  12.420  0.2925 -0.4827  0.0738
14969TIP3   OH266321   6.220   6.052   5.065 -0.2439  0.2436 -1.0026
14969TIP3    H166322   6.305   6.042   5.022 -0.4165 -1.2243 -1.0527
14969TIP3    H266323   6.240   6.090   5.150  0.2338  1.8956 -1.8080
14970TIP3   OH266324   5.106   3.784  15.235  0.6247 -0.1790 -0.3374
14970TIP3    H166325   5.026   3.829  15.261 -0.5138 -1.2328 -1.7857
14970TIP3    H266326   5.175   3.824  15.287 -0.8361  0.8088  0.9136
14971TIP3   OH266327   0.026   2.940  14.995 -0.1550  0.1193 -0.4305
14971TIP3    H166328  -0.060   2.963  15.029  0.7065  0.2064  1.8577
14971TIP3    H266329   0.032   2.986  14.912 -2.3366  0.0262 -0.6984
14972TIP3   OH266330   2.887   3.168  16.839  0.9481 -0.0396 -0.4378
14972TIP3    H166331   2.936   3.087  16.824  1.3648  0.6624 -3.7418
14972TIP3    H266332   2.822   3.170  16.769  0.5196  2.1473 -0.0422
14973TIP3   OH266333   2.737   0.181  14.914 -0.3797  0.3485 -0.4762
14973TIP3    H166334   2.756   0.113  14.849 -1.4972  0.1210 -0.5756
14973TIP3    H266335   2.643   0.197  14.906 -0.1758  1.7615 -0.3110
14974TIP3   OH266336   2.247   1.492   4.362  0.7012 -0.1014  0.0201
14974TIP3    H166337   2.153   1.480   4.351  0.7674 -0.2807 -0.3911
14974TIP3    H266338   2.263   1.582   4.333  0.3941  0.5693  1.8565
14975TIP3   OH266339   2.258   6.057   3.295  0.3358 -0.4649 -0.3790
14975TIP3    H166340   2.216   6.088   3.376 -3.0155 -3.3385 -0.7305
14975TIP3    H266341   2.309   5.981   3.322 -0.0431 -0.8760 -0.7868
14976TIP3   OH266342   4.480   1.333  11.162 -0.1014 -0.1923  0.1670
14976TIP3    H166343   4.406   1.355  11.107  1.0613  3.9118 -0.0730
14976TIP3    H266344   4.442   1.284  11.236 -2.6982  0.2073 -0.8260
14977TIP3   OH266345   2.760   0.394   2.439  0.3218 -0.0899 -0.1251
14977TIP3    H166346   2.853   0.402   2.461  0.3477  0.8586 -0.5084
14977TIP3    H266347   2.729   0.485   2.438 -0.3934 -0.3350 -0.9121
14978TIP3   OH266348   2.745   5.169   1.645 -0.3483  0.1801 -0.2766
14978TIP3    H166349   2.791   5.252   1.631 -0.4578  0.1069 -1.1309
14978TIP3    H266350   2.653   5.194   1.657 -0.2266  0.2575  0.5442
14979TIP3   OH266351   6.281   2.484  15.985 -0.5690  0.6938  0.3875
14979TIP3    H166352   6.252   2.549  15.920 -2.2529 -0.7386 -0.4014
14979TIP3    H266353   6.201   2.461  16.032  0.5904  1.5582  2.9101
14980TIP3   OH266354   2.886   6.560  14.865 -0.3218  0.3127 -0.0088
14980TIP3    H166355   2.934   6.610  14.932 -0.6116  0.6055 -0.0186
14980TIP3    H266356   2.815   6.618  14.839  0.0448  0.3745 -0.8853
14981TIP3   OH266357   4.772   4.029   5.203  0.5476 -0.1754 -0.6331
14981TIP3    H166358   4.694   3.995   5.248 -0.7992  2.8743 -0.3873
14981TIP3    H266359   4.754   4.016   5.110  0.8383 -1.5262 -0.5261
14982TIP3   OH266360   2.299   3.337   4.075  0.7606  0.1641 -0.7932
14982TIP3    H166361   2.265   3.406   4.132  1.7919  0.3273 -0.3568
14982TIP3    H266362   2.265   3.359   3.988 -2.2198 -0.9941 -0.0450
14983TIP3   OH266363   5.861   1.938  11.979  0.0821  0.1913  0.2798
14983TIP3    H166364   5.893   2.025  12.005 -1.4856  0.4882  1.3291
14983TIP3    H266365   5.824   1.952  11.891 -0.8153  0.7712  0.7347
14984TIP3   OH266366   1.545   2.570   1.039  0.1878 -0.0575 -0.4266
14984TIP3    H166367   1.461   2.556   1.082  0.2721 -0.5151 -0.4029
14984TIP3    H266368   1.592   2.631   1.096  0.0473 -0.1488 -0.2116
14985TIP3   OH266369   2.852   6.278  16.670 -0.2192 -0.2742  0.4178
14985TIP3    H166370   2.802   6.338  16.615  0.3282  0.4716  0.7143
14985TIP3    H266371   2.786   6.231  16.721 -0.6464  0.1647  0.2729
14986TIP3   OH266372   3.586   4.555  12.411  0.2204  0.6458  0.5883
14986TIP3    H166373   3.604   4.628  12.351  0.0214  0.6298  0.5094
14986TIP3    H266374   3.492   4.560  12.427 -0.3212 -1.1909 -1.5148
14987TIP3   OH266375   3.638   2.967  12.566 -0.0701  0.1124  0.1112
14987TIP3    H166376   3.602   2.937  12.482 -0.7113  2.4278 -0.5077
14987TIP3    H266377   3.715   3.018  12.542  1.1951 -1.2076  1.1574
14988TIP3   OH266378   2.674   1.419   0.584  0.0084 -0.4985 -0.3920
14988TIP3    H166379   2.730   1.362   0.636  0.7214  0.1362 -0.4550
14988TIP3    H266380   2.593   1.426   0.636  0.6697  0.0553  0.6201
14989TIP3   OH266381   4.307   0.278  12.070 -0.0881 -0.7326  0.7328
14989TIP3    H166382   4.373   0.265  12.002  1.1037 -0.6033  1.8240
14989TIP3    H266383   4.237   0.216  12.049  1.0314 -1.8875  0.3358
14990TIP3   OH266384   0.203   3.725   0.588  0.1636 -0.1864 -0.1121
14990TIP3    H166385   0.228   3.766   0.505  1.8436 -0.7394  0.0794
14990TIP3    H266386   0.233   3.635   0.580  0.8022 -0.1241  1.2617
14991TIP3   OH266387   0.979   0.496  14.184 -0.0889 -0.3254  0.0586
14991TIP3    H166388   0.993   0.441  14.261  1.0528  0.4816  0.4672
14991TIP3    H266389   1.017   0.446  14.112  1.4643  0.1183  0.5204
14992TIP3   OH266390   1.125   5.596   4.440  0.0783 -0.4064  0.4031
14992TIP3    H166391   1.217   5.603   4.415  0.7701  0.2670  2.7992
14992TIP3    H266392   1.124   5.622   4.532 -2.4235 -1.0911  0.6383
14993TIP3   OH266393   0.184   1.332  14.384  0.0221  0.3365 -0.4065
14993TIP3    H166394   0.216   1.365  14.469 -0.0479 -0.4034 -0.0852
14993TIP3    H266395   0.090   1.322  14.396  0.0300  0.1145 -0.5363
14994TIP3   OH266396   3.672   5.771  16.077 -0.1523  0.1171 -0.8432
14994TIP3    H166397   3.744   5.834  16.082  0.0925 -0.1139 -1.3931
14994TIP3    H266398   3.715   5.686  16.065 -0.4591 -0.2312  0.3688
14995TIP3   OH266399   3.739   2.120   4.949 -0.5520  0.3671 -0.8677
14995TIP3    H166400   3.653   2.106   4.989 -1.7307  1.9431 -2.6804
14995TIP3    H266401   3.794   2.051   4.987 -2.7832 -1.1893 -0.2138
14996TIP3   OH266402   6.013   2.648  11.475 -0.1380  0.3075 -0.0112
14996TIP3    H166403   5.921   2.627  11.493  0.2418 -0.3296  1.3629
14996TIP3    H266404   6.010   2.735  11.435 -1.2476  1.0763  1.5986
14997TIP3   OH266405   4.381   4.468   0.166  0.7706 -0.8113 -0.4360
14997TIP3    H166406   4.444   4.538   0.150  0.3856 -0.3932 -0.1699
14997TIP3    H266407   4.432   4.387   0.163  1.3921 -0.4523  0.1959
14998TIP3   OH266408   2.381   5.339  15.288 -0.2060 -0.2834 -0.4817
14998TIP3    H166409   2.325   5.407  15.252 -0.0802  0.7332  1.1570
14998TIP3    H266410   2.460   5.385  15.316 -0.2513 -1.0334  0.9669
14999TIP3   OH266411   2.413   6.324  15.329  0.6086 -0.1284  0.7364
14999TIP3    H166412   2.456   6.271  15.262  1.2317  0.8623  0.3426
14999TIP3    H266413   2.446   6.289  15.412 -0.6335 -1.7660  0.5973
15000TIP3   OH266414   2.651   4.138  13.297  0.0240  0.0656 -0.2532
15000TIP3    H166415   2.674   4.170  13.209 -0.3612 -1.3695 -0.9079
15000TIP3    H266416   2.559   4.161  13.308  0.0139  0.0507 -0.3087
15001TIP3   OH266417   1.231   2.292  11.928 -0.1926  0.0337  0.5150
15001TIP3    H166418   1.192   2.230  11.989  1.7042 -0.2014  1.5768
15001TIP3    H266419   1.218   2.377  11.970 -1.3159  0.2075 -0.1348
15002TIP3   OH266420   2.981   0.070   4.565 -0.1014  0.0771 -0.1418
15002TIP3    H166421   2.963  -0.020   4.591  1.7174 -0.6704 -1.2382
15002TIP3    H266422   3.020   0.110   4.643 -0.6037 -0.1830  0.2479
15003TIP3   OH266423   0.806   2.972   4.747  0.5381  0.1829 -0.2075
15003TIP3    H166424   0.771   3.039   4.688  1.1060  1.8035  1.2481
15003TIP3    H266425   0.741   2.967   4.818  1.2603  0.3126  0.4689
15004TIP3   OH266426   5.121   6.667   2.659 -0.2119 -0.4560 -0.2921
15004TIP3    H166427   5.066   6.598   2.698 -0.0579  0.0663  0.8773
15004TIP3    H266428   5.205   6.624   2.644 -0.4869 -0.8586 -0.7426
15005TIP3   OH266429   0.697   2.144  14.688  0.0820 -0.0913 -0.0222
15005TIP3    H166430   0.653   2.181  14.612 -0.0444  0.1139  0.1512
15005TIP3    H266431   0.630   2.089  14.729  0.5254 -1.2344 -0.7748
15006TIP3   OH266432   1.760   0.923  10.679 -0.0096 -0.2430 -0.6016
15006TIP3    H166433   1.806   1.005  10.660  0.1116 -0.3815 -0.9045
15006TIP3    H266434   1.738   0.887  10.594  0.3203 -0.7429 -0.4820
15007TIP3   OH266435   6.099   4.991  11.891 -0.0155  0.2779 -0.2528
15007TIP3    H166436   6.129   4.910  11.850  1.5662  0.6742  0.0346
15007TIP3    H266437   6.004   4.982  11.897  0.0595 -1.2073 -0.9371
15008TIP3   OH266438   3.200   0.473   0.237 -0.3105  0.3723 -0.6951
15008TIP3    H166439   3.287   0.511   0.227  0.4023 -0.9363  0.1883
15008TIP3    H266440   3.171   0.454   0.147  0.4387  0.5658 -0.9818
15009TIP3   OH266441   2.126   0.958   4.790 -0.6099  0.0441  0.7608
15009TIP3    H166442   2.096   1.032   4.844 -0.9957  0.0915  0.4892
15009TIP3    H266443   2.220   0.953   4.807 -0.6576  0.3102  1.1324
15010TIP3   OH266444   2.570   5.184   6.389 -0.1922  0.0569 -0.3789
15010TIP3    H166445   2.566   5.156   6.480  0.5306 -0.3866 -0.4819
15010TIP3    H266446   2.641   5.133   6.350 -0.0210  0.7534 -1.0137
15011TIP3   OH266447   1.611   1.743   1.524  0.1276 -0.1556  0.0009
15011TIP3    H166448   1.555   1.719   1.598  0.4055  0.4112  0.3977
15011TIP3    H266449   1.585   1.833   1.503  1.7456  0.5789  0.9917
15012TIP3   OH266450   1.331   2.919  16.500 -0.0091  0.0280 -0.2588
15012TIP3    H166451   1.291   2.845  16.546 -0.9843  0.9448  0.4073
15012TIP3    H266452   1.284   2.926  16.417  1.1703 -1.0806 -1.0662
15013TIP3   OH266453   5.161   3.511  15.328 -0.1998 -0.1713 -0.0276
15013TIP3    H166454   5.080   3.478  15.369  0.2090 -0.3238  0.6773
15013TIP3    H266455   5.137   3.596  15.292 -0.5090  0.0841  0.7687
15014TIP3   OH266456   5.692   1.406  17.302  0.0739 -0.8090  0.0956
15014TIP3    H166457   5.596   1.404  17.301  0.0407  0.2446 -0.0478
15014TIP3    H266458   5.717   1.342  17.368 -0.7873  0.0514  1.3104
15015TIP3   OH266459   3.075   6.530  12.122  0.0863 -0.2669  0.9289
15015TIP3    H166460   3.163   6.494  12.131 -0.1112 -1.1875 -0.5188
15015TIP3    H266461   3.020   6.455  12.100 -0.8179  0.5086  0.4708
15016TIP3   OH266462   4.148   2.504  14.320 -0.5226  0.6065 -0.0965
15016TIP3    H166463   4.209   2.514  14.392  0.4390 -0.4260 -0.7354
15016TIP3    H266464   4.069   2.549  14.349 -0.0097  0.5994  1.4003
15017TIP3   OH266465   3.118   4.011  10.222 -0.1856 -0.1442  0.1586
15017TIP3    H166466   3.210   4.037  10.224 -0.0143 -0.7616  0.2734
15017TIP3    H266467   3.101   3.978  10.310 -0.0879 -1.5198 -0.3195
15018TIP3   OH266468   4.996   3.675  13.594 -0.4909  0.3488  0.1577
15018TIP3    H166469   4.967   3.587  13.570  2.8620 -1.1544  1.0226
15018TIP3    H266470   5.036   3.709  13.514  1.1977 -0.3564  0.6528
15019TIP3   OH266471   1.341   0.434   2.126 -0.8858  0.0313 -0.2142
15019TIP3    H166472   1.271   0.368   2.123 -1.2200  0.3173  0.8771
15019TIP3    H266473   1.387   0.416   2.208  1.5025 -1.3131 -1.7690
15020TIP3   OH266474   6.365   6.042  15.650 -0.2026 -0.1400 -0.2825
15020TIP3    H166475   6.341   6.120  15.599 -0.1245  0.9696  1.3036
15020TIP3    H266476   6.413   6.076  15.725  2.4729 -1.9730 -1.0183
15021TIP3   OH266477   6.635   5.354  14.824 -0.2148  0.6914 -0.0918
15021TIP3    H166478   6.631   5.447  14.847 -0.5756  0.6371  0.0682
15021TIP3    H266479   6.609   5.308  14.904  0.1279  0.4481 -0.1227
15022TIP3   OH266480   1.744   4.869  15.028 -0.1422  0.1329  0.0499
15022TIP3    H166481   1.744   4.854  15.122 -0.1323  0.6719  0.1430
15022TIP3    H266482   1.798   4.948  15.017  0.8675 -0.6164 -0.5199
15023TIP3   OH266483   0.359   1.260  15.528  0.2044  0.0149  0.2545
15023TIP3    H166484   0.348   1.352  15.504  0.8324  0.9816  3.2491
15023TIP3    H266485   0.392   1.218  15.449  0.9744  2.5839 -0.8905
15024TIP3   OH266486   2.141   0.066  12.289 -0.0588  0.4688 -0.2464
15024TIP3    H166487   2.109   0.156  12.294  0.6543  0.7536 -0.6404
15024TIP3    H266488   2.202   0.058  12.363  0.3726  0.5209 -0.5897
15025TIP3   OH266489   3.636   4.231  13.741  0.3338  0.6583 -0.9171
15025TIP3    H166490   3.705   4.281  13.785  0.0469  1.7217 -1.6427
15025TIP3    H266491   3.584   4.297  13.695 -1.1010 -0.1404 -0.4853
15026TIP3   OH266492   3.032   0.970  16.508  0.0300  0.1443 -0.0474
15026TIP3    H166493   3.001   0.957  16.419  0.0787 -1.4192  0.1274
15026TIP3    H266494   2.964   1.021  16.551  0.7622  2.3677 -1.3932
15027TIP3   OH266495   1.653   1.769  14.475 -0.1376 -0.0557  0.5962
15027TIP3    H166496   1.625   1.860  14.464  0.3019  0.1721  1.3304
15027TIP3    H266497   1.724   1.758  14.412 -1.0332 -0.2821 -0.4098
15028TIP3   OH266498   3.291   1.399  11.668  0.4118  0.3551  0.3003
15028TIP3    H166499   3.351   1.382  11.595 -1.7114 -1.1613 -1.2187
15028TIP3    H266500   3.260   1.488  11.653  0.6773  0.3772 -0.1433
15029TIP3   OH266501   1.029   4.557  13.731 -0.5841  0.6404 -0.3865
15029TIP3    H166502   0.972   4.544  13.807  0.8361 -0.8943  0.4851
15029TIP3    H266503   1.079   4.476  13.724  0.4819  1.3801 -1.9789
15030TIP3   OH266504   2.604   0.444  16.071  0.5596  0.7522  0.1686
15030TIP3    H166505   2.576   0.518  16.016  2.2762  2.3293  1.2623
15030TIP3    H266506   2.586   0.473  16.160 -2.2882 -1.8163  0.5521
15031TIP3   OH266507   6.577   2.247  16.766 -0.1100  0.2272  0.1634
15031TIP3    H166508   6.673   2.238  16.763 -0.2508 -1.4934  0.1604
15031TIP3    H266509   6.562   2.319  16.827  1.1524 -0.5813  1.4881
15032TIP3   OH266510   1.395   0.751  16.519 -0.4048  0.1420 -0.1829
15032TIP3    H166511   1.328   0.691  16.486  0.3200 -1.2421  0.7597
15032TIP3    H266512   1.451   0.768  16.443  0.3726 -1.7901 -0.0902
15033TIP3   OH266513   4.042   4.768  11.525  0.0939 -0.2381  0.0505
15033TIP3    H166514   4.009   4.696  11.471  0.8641 -0.7417  0.2334
15033TIP3    H266515   4.005   4.847  11.485 -0.0134 -0.6637 -0.7161
15034TIP3   OH266516   0.880   0.535   1.059 -0.0169  0.8306 -0.4218
15034TIP3    H166517   0.906   0.498   0.974 -1.5240  0.5441 -0.7904
15034TIP3    H266518   0.796   0.493   1.078  0.2450  0.9834  1.1689
15035TIP3   OH266519   2.777   1.097   5.817  0.2061  0.1287 -0.1540
15035TIP3    H166520   2.746   1.154   5.746 -0.5738 -1.9967 -1.6105
15035TIP3    H266521   2.872   1.092   5.803  0.2550  0.8743 -0.1392
15036TIP3   OH266522   4.142   0.487  10.534 -0.1129  0.1514  0.0804
15036TIP3    H166523   4.200   0.424  10.578  1.3107  0.8278 -0.7706
15036TIP3    H266524   4.141   0.458  10.443 -0.5849  0.5599 -0.0467
15037TIP3   OH266525   1.088   2.647  14.234 -0.3491  0.5587 -0.3769
15037TIP3    H166526   1.051   2.621  14.318  1.0899  1.5031  0.5951
15037TIP3    H266527   1.119   2.565  14.195 -0.6842  0.1612  0.1801
15038TIP3   OH266528   3.529   6.277  12.249  0.6193  0.4935  0.0482
15038TIP3    H166529   3.529   6.215  12.176 -0.0372 -0.0138  0.4628
15038TIP3    H266530   3.602   6.337  12.230  0.6052  0.2303 -0.8942
15039TIP3   OH266531   5.432   2.837   5.169 -0.5904  0.6770  0.2818
15039TIP3    H166532   5.423   2.919   5.119 -0.7016  1.2599  1.2415
15039TIP3    H266533   5.481   2.861   5.247 -1.2754 -0.0117  0.9486
15040TIP3   OH266534   1.603   2.669   0.799 -0.0640 -0.3497  0.1457
15040TIP3    H166535   1.566   2.637   0.881  0.5580 -1.6554 -0.0558
15040TIP3    H266536   1.635   2.591   0.754  0.5975  0.4544 -0.8520
15041TIP3   OH266537   3.292   4.258   5.456 -0.7735  0.0228 -0.2436
15041TIP3    H166538   3.349   4.273   5.381 -0.7115 -0.1721 -0.2362
15041TIP3    H266539   3.260   4.169   5.445 -1.5589  0.3349 -0.5681
15042TIP3   OH266540   6.335   1.212   3.757  0.5641  0.3680  0.6104
15042TIP3    H166541   6.297   1.216   3.670  2.6401  1.5376 -0.3049
15042TIP3    H266542   6.278   1.152   3.805 -0.4699 -0.5320 -1.6033
15043TIP3   OH266543   0.766   0.963  13.371  0.1836  0.0015 -0.1003
15043TIP3    H166544   0.836   0.929  13.315 -0.3591 -1.3672  0.0086
15043TIP3    H266545   0.709   1.010  13.310  0.2012 -0.5057 -0.5239
15044TIP3   OH266546   0.518   5.833  16.061  0.0356  0.2589  0.4803
15044TIP3    H166547   0.434   5.815  16.019  0.7269 -0.0788 -0.8550
15044TIP3    H266548   0.525   5.928  16.061 -0.2105  0.2794  0.2824
15045TIP3   OH266549   4.367   6.385   5.728 -0.1081 -0.9345 -0.8922
15045TIP3    H166550   4.396   6.295   5.715 -0.1532 -1.3500  1.5037
15045TIP3    H266551   4.276   6.376   5.758 -0.1591 -0.0720 -0.7743
15046TIP3   OH266552   1.758   4.389  13.362 -0.2998 -0.5395  0.5073
15046TIP3    H166553   1.744   4.444  13.439  1.2498  0.8238 -0.1377
15046TIP3    H266554   1.774   4.302  13.399  1.7222  0.3302  1.8681
15047TIP3   OH266555   2.181   5.602  16.490 -0.5335 -0.4156 -0.2296
15047TIP3    H166556   2.166   5.647  16.407  2.6030  1.6399  0.1454
15047TIP3    H266557   2.124   5.647  16.552 -0.4393  0.3257 -0.6694
15048TIP3   OH266558   4.116   1.021  11.388 -0.2423  0.4995  0.9292
15048TIP3    H166559   4.146   1.011  11.478 -1.9599 -0.6313  1.4231
15048TIP3    H266560   4.173   0.964  11.336 -0.3897 -0.2286  1.5650
15049TIP3   OH266561   2.866   2.149   5.321  0.2601  0.3474 -0.0870
15049TIP3    H166562   2.908   2.234   5.337  1.7361  0.0755 -2.2008
15049TIP3    H266563   2.811   2.135   5.398  2.7503  1.5343  2.0796
15050TIP3   OH266564   2.717   1.919  16.025 -0.1345  0.5103  0.1789
15050TIP3    H166565   2.750   2.008  16.011 -0.0927  0.7259  1.5640
15050TIP3    H266566   2.626   1.930  16.050  0.2669  0.2800  1.8312
15051TIP3   OH266567   3.363   4.378   2.578 -0.3242  0.2785  1.0496
15051TIP3    H166568   3.293   4.330   2.622 -1.2812  1.2205  0.6038
15051TIP3    H266569   3.326   4.465   2.562  0.7665  0.6320  0.3287
15052TIP3   OH266570   5.626   6.346   6.063 -0.0088 -0.2502  0.5439
15052TIP3    H166571   5.623   6.379   6.152  0.4026 -0.8560  0.7909
15052TIP3    H266572   5.718   6.348   6.040 -0.1370  0.1315  0.0355
15053TIP3   OH266573   0.383   5.144  14.374 -0.0859  0.2911  0.0457
15053TIP3    H166574   0.374   5.049  14.369 -0.2620  0.3057  0.0924
15053TIP3    H266575   0.411   5.170  14.286 -0.2738  0.2225 -0.0332
15054TIP3   OH266576   3.792   5.418  13.094  0.2687  0.0363 -0.3541
15054TIP3    H166577   3.732   5.411  13.020  0.4308  0.6149 -0.5398
15054TIP3    H266578   3.876   5.440  13.055  0.1874  1.1137  0.0604
15055TIP3   OH266579   2.696   5.704   6.225 -0.1041 -0.3054 -0.6476
15055TIP3    H166580   2.618   5.756   6.203  0.3058 -0.1076 -1.7013
15055TIP3    H266581   2.769   5.765   6.213  0.2512 -0.6339 -0.1540
15056TIP3   OH266582   6.348   5.952   3.174  0.5165 -0.3488 -0.3820
15056TIP3    H166583   6.301   5.975   3.254  0.5242  0.1429 -0.5128
15056TIP3    H266584   6.428   5.909   3.204  1.4917  1.5918 -0.0225
15057TIP3   OH266585   5.540   2.803   4.375 -0.3296  0.1707 -0.1372
15057TIP3    H166586   5.530   2.818   4.469  0.8257 -2.2277  0.4613
15057TIP3    H266587   5.633   2.784   4.364 -0.4529  0.4344 -1.7879
15058TIP3   OH266588   4.842   2.162  14.817 -0.2745 -0.3294 -0.0925
15058TIP3    H166589   4.902   2.168  14.743 -0.4249 -0.1183 -0.1963
15058TIP3    H266590   4.821   2.068  14.823  0.9746 -0.5834  0.6706
15059TIP3   OH266591   3.875   3.183   2.016 -0.5077  0.0676  0.1429
15059TIP3    H166592   3.914   3.159   2.099  0.0969  0.6164  0.0237
15059TIP3    H266593   3.803   3.241   2.039  0.5444  1.3806  0.2272
15060TIP3   OH266594   3.105   5.934   4.787  0.2048 -0.0317 -0.0032
15060TIP3    H166595   3.042   5.984   4.735  0.5310 -0.2751 -0.6409
15060TIP3    H266596   3.189   5.947   4.743  0.4739 -0.3042  0.4178
15061TIP3   OH266597   1.788   4.777   2.920  0.2565 -0.5105 -0.5723
15061TIP3    H166598   1.755   4.732   2.998 -0.4700  1.2863  0.2018
15061TIP3    H266599   1.861   4.722   2.891 -0.2628 -1.9019  0.6128
15062TIP3   OH266600   1.409   5.165   4.273 -0.1774 -0.0034  0.6035
15062TIP3    H166601   1.324   5.208   4.278  0.6396  1.7540  0.1635
15062TIP3    H266602   1.436   5.155   4.365 -0.6732 -0.1762  0.7295
15063TIP3   OH266603   1.069   2.470   5.226 -0.2992  0.2816 -0.3392
15063TIP3    H166604   0.980   2.453   5.194 -0.4255 -1.0600  0.6423
15063TIP3    H266605   1.118   2.498   5.148 -0.8065 -1.9805 -1.5608
15064TIP3   OH266606   2.185   5.956  10.583  0.2588  0.3353 -0.2108
15064TIP3    H166607   2.226   5.900  10.648  1.6133  1.3511 -0.1270
15064TIP3    H266608   2.245   6.031  10.575 -0.6528  0.9742 -1.4909
15065TIP3   OH266609   4.128   1.805  15.310  0.5905 -0.2551 -0.5919
15065TIP3    H166610   4.069   1.866  15.354 -0.2971 -0.8509 -0.9344
15065TIP3    H266611   4.153   1.742  15.378 -1.2152 -1.4990 -1.0155
15066TIP3   OH266612   1.753   0.551  12.647  0.4722 -0.1094 -0.4952
15066TIP3    H166613   1.810   0.568  12.721  1.2875 -1.1793 -0.8482
15066TIP3    H266614   1.771   0.460  12.623 -0.6784 -0.1680 -1.2275
15067TIP3   OH266615   4.142   0.437   3.720  0.1679 -0.4948 -0.1254
15067TIP3    H166616   4.149   0.403   3.631 -1.4359  0.6927 -0.7453
15067TIP3    H266617   4.085   0.374   3.765  0.6021 -0.8422 -0.0475
15068TIP3   OH266618   0.852   1.044   0.207 -0.0946  0.0301  0.2319
15068TIP3    H166619   0.839   0.949   0.198  2.7916 -0.5729  1.2089
15068TIP3    H266620   0.775   1.074   0.256 -1.5950 -1.5749 -1.0156
15069TIP3   OH266621   3.247   3.608  12.208  0.1786  0.0378  0.2961
15069TIP3    H166622   3.313   3.570  12.266 -0.0385  0.1677  0.6348
15069TIP3    H266623   3.293   3.678  12.162  0.3958 -0.1731  0.1871
15070TIP3   OH266624   4.828   2.882   2.546 -0.0112  0.3501 -0.0694
15070TIP3    H166625   4.814   2.835   2.628  1.8232 -1.7858 -0.8792
15070TIP3    H266626   4.895   2.831   2.501 -0.0040  2.2147 -2.3197
15071TIP3   OH266627   2.398   1.918   2.267  0.0443  0.5968  0.4534
15071TIP3    H166628   2.421   2.010   2.255  2.2616  0.1516  0.9147
15071TIP3    H266629   2.356   1.893   2.185  0.7798  1.6207 -0.2636
15072TIP3   OH266630   6.522   5.163   3.608 -1.0143 -0.2340 -0.2255
15072TIP3    H166631   6.563   5.187   3.525  0.2815  1.3119  0.8038
15072TIP3    H266632   6.437   5.128   3.583 -1.5041  2.0666 -2.1069
15073TIP3   OH266633   2.391   5.231   5.990 -0.6851 -0.1446  0.5209
15073TIP3    H166634   2.330   5.302   6.006 -0.4348 -0.5681  4.2601
15073TIP3    H266635   2.478   5.269   6.006 -0.3071 -0.5870 -0.4110
15074TIP3   OH266636   1.283   1.145   1.267  0.0416  0.7405 -0.0735
15074TIP3    H166637   1.273   1.103   1.181 -0.0439  1.0586 -0.2209
15074TIP3    H266638   1.286   1.072   1.329 -1.1639  0.5424 -0.2221
15075TIP3   OH266639   1.789   6.735   1.251  0.1014 -0.1988 -0.3080
15075TIP3    H166640   1.843   6.800   1.296 -1.4013  0.9745 -0.1224
15075TIP3    H266641   1.741   6.785   1.185 -2.7390 -0.6391  1.2573
15076TIP3   OH266642   1.819   0.692  11.418  0.4647  0.0049 -0.1797
15076TIP3    H166643   1.819   0.712  11.512 -0.3270  0.3744 -0.2457
15076TIP3    H266644   1.898   0.641  11.404  0.7429  0.1955  0.6393
15077TIP3   OH266645   2.215   5.982  11.707 -0.9570  0.2461 -0.2322
15077TIP3    H166646   2.131   5.976  11.752 -0.9438  1.2314 -0.0555
15077TIP3    H266647   2.277   6.006  11.776 -0.5486 -0.3267 -0.3892
15078TIP3   OH266648   1.238   5.589  14.217  0.2425 -0.4000  0.0072
15078TIP3    H166649   1.299   5.649  14.259 -0.1820  0.2491 -0.2957
15078TIP3    H266650   1.293   5.533  14.162  0.3865  1.9731 -2.5045
15079TIP3   OH266651   5.225   1.333   1.316  0.5076  0.3803  0.1356
15079TIP3    H166652   5.307   1.381   1.303  1.0734  0.0932  2.2918
15079TIP3    H266653   5.237   1.252   1.265  2.1639 -0.2851  1.4742
15080TIP3   OH266654   6.050   6.761   1.519  0.1389 -0.4426  0.0153
15080TIP3    H166655   5.989   6.730   1.452  0.2886  0.0950 -0.3733
15080TIP3    H266656   6.010   6.840   1.555  0.5471 -0.1481 -0.1625
15081TIP3   OH266657   3.288   0.858  16.498 -0.1772  0.3200  0.0797
15081TIP3    H166658   3.265   0.795  16.566 -0.6454  1.3294  0.8751
15081TIP3    H266659   3.217   0.922  16.499 -0.4087  0.1368 -1.6525
15082TIP3   OH266660   0.680   5.467   4.284  0.9440  0.8346 -0.3300
15082TIP3    H166661   0.707   5.502   4.368  0.6892  0.4439 -0.0812
15082TIP3    H266662   0.606   5.409   4.304  2.8130 -1.7463 -0.3931
15083TIP3   OH266663   0.973   4.474  11.747  0.1012  0.2901 -0.7776
15083TIP3    H166664   1.013   4.473  11.834  2.0477 -0.1801 -1.6211
15083TIP3    H266665   1.001   4.393  11.706 -1.0645  0.3440 -1.7491
15084TIP3   OH266666   5.217   5.969   3.311 -0.0659  0.2913  0.1039
15084TIP3    H166667   5.199   5.896   3.370 -0.6723  0.6968  0.4314
15084TIP3    H266668   5.236   6.043   3.369 -0.5794  0.6729 -0.2072
15085TIP3   OH266669   4.872   0.553  13.230  0.2396  0.0480  0.8690
15085TIP3    H166670   4.957   0.523  13.263  0.7357  3.0535  2.8197
15085TIP3    H266671   4.826   0.584  13.309 -1.2149  1.6875 -0.5432
15086TIP3   OH266672   3.242   3.362  12.089 -0.2698  0.1469 -0.6869
15086TIP3    H166673   3.236   3.309  12.168 -0.0182 -1.4549 -1.6947
15086TIP3    H266674   3.239   3.453  12.120  2.0631 -0.3635  1.3738
15087TIP3   OH266675   2.650   0.663  12.423  0.1294  0.6189  0.1591
15087TIP3    H166676   2.689   0.578  12.403  1.6529  1.2551  0.3161
15087TIP3    H266677   2.672   0.679  12.515 -0.4935  1.0207  0.2482
15088TIP3   OH266678   1.156   1.207  14.453  0.7346 -0.6291 -0.3907
15088TIP3    H166679   1.178   1.145  14.384 -0.2632  1.2821 -2.5264
15088TIP3    H266680   1.239   1.247  14.478  1.1156 -1.4172 -0.3708
15089TIP3   OH266681   3.744   3.401  14.864 -0.2906  0.5534 -0.1771
15089TIP3    H166682   3.668   3.378  14.810 -0.9939 -0.3145  1.1469
15089TIP3    H266683   3.813   3.419  14.800 -0.3419 -2.9033 -1.4286
15090TIP3   OH266684   3.167   1.325  13.352  0.0247 -0.2858 -0.3096
15090TIP3    H166685   3.249   1.358  13.387 -0.1760 -1.6922  1.6210
15090TIP3    H266686   3.122   1.403  13.318  1.2967  0.7799  0.3944
15091TIP3   OH266687   3.634   5.978  14.418  0.1840 -0.6426  0.7748
15091TIP3    H166688   3.582   6.050  14.455 -1.6191 -1.5994  0.2407
15091TIP3    H266689   3.720   5.986  14.460 -0.3535  1.0767  1.6327
15092TIP3   OH266690   3.878   1.127  11.760 -0.3050 -0.5465 -0.1839
15092TIP3    H166691   3.875   1.031  11.758  0.8286 -0.5833 -1.3571
15092TIP3    H266692   3.951   1.147  11.819  0.8053 -0.4774 -1.5283
15093TIP3   OH266693   5.972   2.772  12.218 -0.2413  0.0613 -0.2290
15093TIP3    H166694   5.971   2.738  12.308  0.7716  1.7690  0.4827
15093TIP3    H266695   5.921   2.853  12.223 -0.9322 -0.2773 -1.4214
15094TIP3   OH266696   5.278   1.999  14.897  1.1907  0.4020  0.3952
15094TIP3    H166697   5.212   1.941  14.859  0.7764  0.4298  1.0570
15094TIP3    H266698   5.359   1.977  14.850  1.0677 -0.7905  0.7021
15095TIP3   OH266699   5.007   4.424   2.736  0.0271 -0.2065 -0.3964
15095TIP3    H166700   4.998   4.455   2.827  2.3195 -1.2726  0.2545
15095TIP3    H266701   5.096   4.448   2.711  0.7313 -3.1669 -1.0368
15096TIP3   OH266702   5.438   1.739   4.387  0.5891  0.1575  0.2759
15096TIP3    H166703   5.510   1.732   4.449  1.5313  1.6904 -0.5974
15096TIP3    H266704   5.406   1.828   4.397  0.2625  0.1917 -0.9087
15097TIP3   OH266705   1.978   3.348  10.780  0.4100 -0.2833  0.1109
15097TIP3    H166706   1.914   3.419  10.788  1.9227  1.2293 -0.5905
15097TIP3    H266707   2.006   3.331  10.870  0.0731  0.0595  0.2837
15098TIP3   OH266708   0.555   2.286   4.075 -0.4338  0.0307 -0.4437
15098TIP3    H166709   0.608   2.212   4.046 -0.4990 -0.0097 -0.4612
15098TIP3    H266710   0.464   2.259   4.057 -0.6136 -0.7204  1.3876
15099TIP3   OH266711   5.463   0.546   4.356  0.3656 -0.0933  0.0429
15099TIP3    H166712   5.442   0.493   4.433  1.2692 -0.3583  0.1239
15099TIP3    H266713   5.397   0.616   4.356 -1.0203 -1.3442 -0.2241
15100TIP3   OH266714   5.602   3.230   2.980 -0.5073 -0.4010 -0.3129
15100TIP3    H166715   5.666   3.277   3.033 -1.3387 -0.7486  1.0538
15100TIP3    H266716   5.545   3.299   2.945 -0.9601 -0.2750  0.6446
15101TIP3   OH266717   2.939   0.918  11.453  0.4099 -0.5148 -0.1052
15101TIP3    H166718   3.020   0.923  11.402  0.7624  0.7429  0.5607
15101TIP3    H266719   2.964   0.945  11.541 -0.1504 -2.8507  0.8435
15102TIP3   OH266720   3.811   4.189   0.363 -0.8871  0.5717  0.4531
15102TIP3    H166721   3.795   4.195   0.457  2.3934 -0.9562  1.2437
15102TIP3    H266722   3.835   4.278   0.337 -1.4529  0.9245  1.1042
15103TIP3   OH266723   1.739   0.017  12.672  0.3615 -0.1404  0.5230
15103TIP3    H166724   1.649  -0.004  12.647  0.0684  0.9066  0.6367
15103TIP3    H266725   1.787   0.023  12.590  0.6169 -1.8809  0.5204
15104TIP3   OH266726   6.246   5.926  13.009  0.4899 -0.8217  0.0426
15104TIP3    H166727   6.170   5.892  12.962 -0.0534  0.6277 -0.1784
15104TIP3    H266728   6.256   5.868  13.084 -0.8716 -1.0111  0.1085
15105TIP3   OH266729   2.633   0.184   0.224 -0.4709  0.0319  0.4439
15105TIP3    H166730   2.554   0.173   0.171  0.3249 -1.9097 -0.4533
15105TIP3    H266731   2.684   0.251   0.177 -0.5760 -0.3713 -0.2619
15106TIP3   OH266732   2.971   0.627   3.239 -0.0923  0.4858  0.3492
15106TIP3    H166733   2.878   0.635   3.220  0.2577  0.9095 -1.3497
15106TIP3    H266734   2.993   0.706   3.288 -0.4759  0.7691  0.0663
15107TIP3   OH266735   2.340   5.470  17.213 -0.5032  0.1302 -0.6951
15107TIP3    H166736   2.257   5.466  17.260 -0.7297  0.2349 -1.0870
15107TIP3    H266737   2.319   5.447  17.123 -0.1818  0.5518 -0.8848
15108TIP3   OH266738   4.202   3.478  17.351 -0.1677  0.1628  0.1549
15108TIP3    H166739   4.108   3.474  17.335 -0.3257  0.9142  0.8271
15108TIP3    H266740   4.231   3.560  17.310 -0.2249  1.0758  1.8230
15109TIP3   OH266741   1.535   4.036  13.358  0.1932  1.2229  0.2384
15109TIP3    H166742   1.589   4.033  13.279 -0.5099  0.1345 -0.2180
15109TIP3    H266743   1.595   4.013  13.429  0.1130 -1.2946 -0.4122
15110TIP3   OH266744   5.759   5.608   6.411 -0.0079 -0.5384 -0.1344
15110TIP3    H166745   5.672   5.603   6.370 -0.0992 -0.7053  0.0705
15110TIP3    H266746   5.799   5.524   6.390  0.7261  0.1399 -1.5618
15111TIP3   OH266747   3.327   0.153  16.913  0.7974  0.0024 -0.5639
15111TIP3    H166748   3.420   0.133  16.919  1.1567  2.0668  3.0242
15111TIP3    H266749   3.323   0.235  16.864  1.1847  1.1552  1.2383
15112TIP3   OH266750   5.032   6.636   3.498 -0.1755 -0.1408  0.3467
15112TIP3    H166751   4.987   6.674   3.573  0.7622 -3.9623  3.1546
15112TIP3    H266752   5.114   6.685   3.492 -0.0798 -0.0061  2.1883
15113TIP3   OH266753   6.188   4.282  10.926 -0.4576  0.6585  0.2011
15113TIP3    H166754   6.159   4.371  10.905 -0.8219  0.3168 -0.7816
15113TIP3    H266755   6.266   4.295  10.979 -0.0644  1.5721 -0.5648
15114TIP3   OH266756   0.847   1.947   4.585 -0.0438 -0.0319 -0.0025
15114TIP3    H166757   0.910   2.007   4.546  0.1309 -1.1704 -1.5727
15114TIP3    H266758   0.873   1.941   4.677  2.4995 -0.8744 -0.6974
15115TIP3   OH266759   4.069   2.856  17.207 -0.0171  0.2675 -0.1341
15115TIP3    H166760   4.153   2.844  17.163  0.3918  3.3666 -0.3765
15115TIP3    H266761   4.014   2.900  17.142 -1.2182  0.0081  0.6700
15116TIP3   OH266762   0.997   0.719  13.770 -0.6393 -0.4781  0.3539
15116TIP3    H166763   0.980   0.804  13.730  4.9678 -0.3009 -2.5681
15116TIP3    H266764   0.959   0.656  13.710  1.3711 -0.0095 -1.5377
15117TIP3   OH266765   6.186   0.998   1.480 -0.1268  0.1252 -0.3217
15117TIP3    H166766   6.182   0.904   1.498  3.5334 -0.5161 -1.9464
15117TIP3    H266767   6.124   1.012   1.409 -1.4846 -0.7988  0.6270
15118TIP3   OH266768   3.284   2.569  16.648  0.1456  0.0512  0.2385
15118TIP3    H166769   3.258   2.531  16.564 -1.2569 -0.0087  0.6654
15118TIP3    H266770   3.208   2.621  16.674  0.0135 -1.0115  2.1027
15119TIP3   OH266771   6.448   0.449  16.491  0.1856  1.1967  0.1636
15119TIP3    H166772   6.517   0.383  16.503  1.8079  3.1190  2.3018
15119TIP3    H266773   6.387   0.408  16.430  1.3696 -2.0570  0.9178
15120TIP3   OH266774   4.561   1.632  14.413  0.3693  0.2263  0.1301
15120TIP3    H166775   4.607   1.679  14.483  0.6715 -1.3189  1.0128
15120TIP3    H266776   4.594   1.543  14.419 -4.8757 -1.9420  2.9424
15121TIP3   OH266777   6.571   6.695  13.269  0.2587 -0.2869 -0.2801
15121TIP3    H166778   6.517   6.737  13.202  0.1807 -0.5121 -0.3607
15121TIP3    H266779   6.607   6.767  13.320  0.1667 -0.1210 -0.4485
15122TIP3   OH266780   4.706   6.356   5.808  0.1449 -0.2647  0.2156
15122TIP3    H166781   4.768   6.332   5.877 -1.3146  0.3733  1.8174
15122TIP3    H266782   4.630   6.300   5.823 -0.7910  0.9229  0.0877
15123TIP3   OH266783   3.628   1.095   1.639  0.1476  0.2705  0.3552
15123TIP3    H166784   3.602   1.170   1.692  2.0596 -0.0865  1.9383
15123TIP3    H266785   3.616   1.020   1.698  0.5471 -0.3721 -0.3682
15124TIP3   OH266786   0.955   3.149  10.892  0.1088  0.3362  0.3088
15124TIP3    H166787   0.864   3.140  10.862  0.3963  2.0190 -1.2471
15124TIP3    H266788   1.002   3.080  10.845 -0.3799 -0.7811  1.3992
15125TIP3   OH266789   3.592   5.329  12.823  0.7028  0.1793  0.0817
15125TIP3    H166790   3.564   5.417  12.799  0.4248  0.1107  0.1513
15125TIP3    H266791   3.687   5.330  12.812  0.6556  0.3633 -0.3098
15126TIP3   OH266792   6.622   5.248   3.345  0.3796  0.0455  0.0921
15126TIP3    H166793   6.569   5.312   3.297 -1.0670  0.0101  1.5932
15126TIP3    H266794   6.685   5.216   3.279  0.1307  1.8355 -1.1035
15127TIP3   OH266795   4.825   4.892   4.750 -0.1720 -1.2286  0.2121
15127TIP3    H166796   4.798   4.812   4.704 -0.7553 -0.1275 -1.4220
15127TIP3    H266797   4.889   4.861   4.815  1.4819 -2.7420 -2.0010
15128TIP3   OH266798   0.993   3.376  13.107 -0.3832 -0.3702 -0.3341
15128TIP3    H166799   0.908   3.396  13.145 -0.0580 -0.6785  0.5843
15128TIP3    H266800   1.011   3.286  13.134  1.6264  0.6845  2.1968
15129TIP3   OH266801   3.050   4.738  15.000  0.6747  0.6258  0.1473
15129TIP3    H166802   3.138   4.728  15.038 -0.0194 -0.7050  1.5408
15129TIP3    H266803   3.022   4.826  15.028  1.4210  0.9301 -0.0297
15130TIP3   OH266804   4.025   5.568   5.421  0.0240 -0.1473 -0.1108
15130TIP3    H166805   4.108   5.612   5.439  0.2685 -0.3399 -0.7188
15130TIP3    H266806   3.958   5.626   5.456  0.3426  0.6779 -0.8276
15131TIP3   OH266807   2.658   4.479  12.199  0.4354  0.3919  0.5411
15131TIP3    H166808   2.584   4.517  12.153  1.6932  1.5875 -0.5682
15131TIP3    H266809   2.623   4.399  12.238 -1.0357  0.0538 -1.3210
15132TIP3   OH266810   2.409   2.055  13.809 -0.2234 -0.6222 -0.3726
15132TIP3    H166811   2.412   2.120  13.738  0.7249  1.0467  1.0982
15132TIP3    H266812   2.327   2.008  13.796 -0.9347  0.8726 -1.5441
15133TIP3   OH266813   6.216   1.867   5.670 -0.3752 -0.2080 -0.1304
15133TIP3    H166814   6.278   1.891   5.739  0.5856  0.5954 -1.2253
15133TIP3    H266815   6.261   1.799   5.621 -1.7627 -2.0285  1.0184
15134TIP3   OH266816   0.347   6.212   3.316 -0.0128 -0.1095  0.5429
15134TIP3    H166817   0.313   6.275   3.253  1.7078  0.2299 -0.0980
15134TIP3    H266818   0.343   6.256   3.401 -1.2781 -0.1516  0.5235
15135TIP3   OH266819   0.860   1.806   3.178  0.1182 -0.6286 -0.0485
15135TIP3    H166820   0.894   1.894   3.192  0.5501 -0.8045  0.0375
15135TIP3    H266821   0.898   1.754   3.249  0.1670 -0.9577 -0.3107
15136TIP3   OH266822   4.432   5.422  13.584 -0.0961  0.0947  0.0721
15136TIP3    H166823   4.389   5.344  13.548  0.7866 -1.0373  1.3834
15136TIP3    H266824   4.374   5.494  13.560 -0.1660 -0.7178 -2.5249
15137TIP3   OH266825   3.090   5.972  11.023 -0.1108  0.1792 -0.1640
15137TIP3    H166826   3.068   5.880  11.037 -0.4974  0.5194  1.7469
15137TIP3    H266827   3.017   6.007  10.972 -1.6295  0.1534  1.9065
15138TIP3   OH266828   3.893   3.153   5.400 -0.2036 -0.2832 -0.1722
15138TIP3    H166829   3.905   3.243   5.428  2.8623 -1.0603  1.5261
15138TIP3    H266830   3.840   3.113   5.469 -0.7074 -0.0214 -0.4065
15139TIP3   OH266831   1.333   1.683   5.956  0.3997  0.4620 -0.0391
15139TIP3    H166832   1.372   1.769   5.969  0.5773  0.0009  3.0338
15139TIP3    H266833   1.246   1.689   5.997  0.5680 -0.9052  0.5776
15140TIP3   OH266834   3.365   2.030  11.031  0.0882  0.0609 -0.2546
15140TIP3    H166835   3.294   2.094  11.035  0.0075  0.0501 -1.3210
15140TIP3    H266836   3.353   1.986  10.947  0.9620 -0.4075 -0.1430
15141TIP3   OH266837   6.602   5.121  16.571  0.1229  0.1875 -0.1502
15141TIP3    H166838   6.664   5.121  16.498  0.6347 -0.9095  0.2657
15141TIP3    H266839   6.655   5.144  16.647 -0.6925  2.9337 -0.2936
15142TIP3   OH266840   3.121   1.734  16.311  0.0768 -0.2201 -0.1166
15142TIP3    H166841   3.033   1.772  16.302  0.5473  1.1092  0.6625
15142TIP3    H266842   3.153   1.728  16.221  1.0908  4.0797 -0.2985
15143TIP3   OH266843   0.334   6.355  16.531 -0.3337 -0.0809  0.4659
15143TIP3    H166844   0.344   6.307  16.614 -1.1195 -0.1220  0.5428
15143TIP3    H266845   0.242   6.380  16.529 -0.6442 -1.2134 -1.0273
15144TIP3   OH266846   5.266   3.697  11.045  0.4054 -0.2378 -0.0124
15144TIP3    H166847   5.309   3.663  10.967 -0.6899 -0.9695 -0.3224
15144TIP3    H266848   5.178   3.722  11.015 -0.1406 -0.8226  1.0398
15145TIP3   OH266849   3.115   1.225   3.169 -0.0640  0.8202  0.0178
15145TIP3    H166850   3.164   1.282   3.228 -0.6398  2.1608 -0.7220
15145TIP3    H266851   3.048   1.283   3.132 -0.2282 -0.1749 -1.3143
15146TIP3   OH266852   1.910   2.678  12.266  0.1447  0.3267 -0.1334
15146TIP3    H166853   1.995   2.639  12.244 -0.4482 -0.7193 -0.6491
15146TIP3    H266854   1.888   2.641  12.351 -0.3670 -0.4267 -0.5741
15147TIP3   OH266855   2.530   1.867  12.814  0.6779  0.0606 -0.7042
15147TIP3    H166856   2.598   1.926  12.846  0.2278 -0.0258  0.4862
15147TIP3    H266857   2.577   1.794  12.774  1.2644  0.5260 -0.8664
15148TIP3   OH266858   1.867   4.070  16.518  0.2357  0.0686 -0.6297
15148TIP3    H166859   1.935   4.107  16.575 -0.6489  1.1669 -0.2327
15148TIP3    H266860   1.898   3.983  16.496  1.0632 -0.0168  0.7747
15149TIP3   OH266861   6.496   4.658  13.317  0.2084  0.1515  0.5403
15149TIP3    H166862   6.446   4.624  13.242 -0.6552 -1.5800  1.8137
15149TIP3    H266863   6.585   4.671  13.283  0.0345 -1.3478 -0.5997
15150TIP3   OH266864   4.415   5.322  11.134  0.5014 -0.1478 -0.2814
15150TIP3    H166865   4.502   5.321  11.174 -0.3198  1.9806  1.8371
15150TIP3    H266866   4.359   5.277  11.198 -0.6002  2.0689  0.4256
15151TIP3   OH266867   6.083   1.332   1.376  0.7069 -0.0028 -0.2696
15151TIP3    H166868   6.153   1.321   1.440 -0.7192 -0.5797  1.2855
15151TIP3    H266869   6.069   1.426   1.371  1.0039  0.0640  0.1041
15152TIP3   OH266870   0.478   5.459   5.309  0.1452 -0.3370  0.2942
15152TIP3    H166871   0.411   5.444   5.376  0.0900  0.1213  0.3403
15152TIP3    H266872   0.561   5.438   5.353 -0.0475 -2.2480 -0.1532
15153TIP3   OH266873   0.167   5.838  16.231 -0.2044 -0.3374 -0.1126
15153TIP3    H166874   0.154   5.931  16.217 -2.2316 -0.6629 -0.7826
15153TIP3    H266875   0.251   5.831  16.276  1.4109  1.5853 -2.5925
15154TIP3   OH266876   1.932   5.026   3.026 -0.5045 -0.1293  0.0065
15154TIP3    H166877   1.875   4.951   3.007  0.9031 -0.8152 -1.7781
15154TIP3    H266878   2.017   4.988   3.046  0.3499  0.9513 -1.3257
15155TIP3   OH266879   3.666   1.383   1.092 -0.6474 -0.7229 -0.0201
15155TIP3    H166880   3.618   1.411   1.170  1.3541  0.7525  0.7353
15155TIP3    H266881   3.606   1.321   1.049 -1.9848 -1.2524  2.4251
15156TIP3   OH266882   5.615   4.084  14.785  0.1845 -0.3320 -0.2416
15156TIP3    H166883   5.662   4.150  14.732 -1.6589 -0.1294 -1.7300
15156TIP3    H266884   5.605   4.126  14.870  0.1870  0.7964 -0.7696
15157TIP3   OH266885   3.742   6.495   3.486 -0.1151 -0.2541  0.7281
15157TIP3    H166886   3.686   6.568   3.512  0.7403  0.7757 -0.2639
15157TIP3    H266887   3.810   6.534   3.432  1.3867 -1.5253  1.6045
15158TIP3   OH266888   5.443   2.521  12.570 -0.3539 -0.2088 -0.2592
15158TIP3    H166889   5.357   2.545  12.537 -0.8711  1.6870  2.2429
15158TIP3    H266890   5.480   2.603  12.604  2.4947 -0.9398 -1.2726
15159TIP3   OH266891   2.001   2.144  15.312 -0.6606 -0.1556 -0.2296
15159TIP3    H166892   2.035   2.229  15.284 -1.0185 -0.5489 -1.9998
15159TIP3    H266893   2.056   2.119  15.386  0.4298  0.9419 -0.6315
15160TIP3   OH266894   6.187   6.064   2.128  0.5441  0.6152  0.1583
15160TIP3    H166895   6.119   6.074   2.196 -1.0991  1.2471 -1.4996
15160TIP3    H266896   6.257   6.015   2.172  0.0529  1.9386  2.6341
15161TIP3   OH266897   1.694   3.267   4.176 -0.5894  0.2056  0.2108
15161TIP3    H166898   1.614   3.220   4.201 -1.1157  1.1534  0.3355
15161TIP3    H266899   1.673   3.359   4.187  0.9454  0.4386  1.4733
15162TIP3   OH266900   4.135   2.170   4.430  0.2544 -0.0525  0.4344
15162TIP3    H166901   4.118   2.205   4.343  0.1491 -1.1552  0.0007
15162TIP3    H266902   4.230   2.181   4.443  0.2467  0.2411  0.2506
15163TIP3   OH266903   0.044   5.867  16.786 -0.0367 -0.4221 -0.1271
15163TIP3    H166904   0.076   5.800  16.847 -0.1801 -0.9125 -0.5856
15163TIP3    H266905   0.089   5.848  16.704 -0.6684 -0.4349 -0.4745
15164TIP3   OH266906   2.927   0.933   4.800  0.3018  0.2555 -0.1972
15164TIP3    H166907   2.992   0.982   4.850 -0.4849  1.2137 -0.0890
15164TIP3    H266908   2.962   0.844   4.795  0.1939 -0.0008  2.4282
15165TIP3   OH266909   2.367   0.169   3.035  0.2885  0.7121 -0.0788
15165TIP3    H166910   2.381   0.208   2.949 -0.1681  1.2677  0.0919
15165TIP3    H266911   2.272   0.155   3.040 -0.0560  3.0113  1.2899
15166TIP3   OH266912   1.896   5.096   4.023 -0.8625  0.0741 -0.3404
15166TIP3    H166913   1.919   5.038   4.095 -0.1973  0.0706 -0.5548
15166TIP3    H266914   1.958   5.074   3.953  0.1429  1.8044 -0.0409
15167TIP3   OH266915   0.063   2.554   5.258  0.5655 -0.0560 -0.2795
15167TIP3    H166916   0.088   2.575   5.348 -3.8054  1.3519  0.8589
15167TIP3    H266917   0.046   2.460   5.259 -1.1064  0.2190  0.9466
15168TIP3   OH266918   2.974   0.800   2.400 -0.6197  0.1709  0.4604
15168TIP3    H166919   2.932   0.771   2.319  1.9915  0.2005 -1.0593
15168TIP3    H266920   2.939   0.888   2.415  0.2228  0.9876 -1.8390
15169TIP3   OH266921   4.426   0.339   1.412 -0.3681  0.3134  0.3081
15169TIP3    H166922   4.385   0.376   1.334  0.5734 -1.7922 -1.2704
15169TIP3    H266923   4.356   0.293   1.458 -0.4438 -0.6077 -0.7007
15170TIP3   OH266924   4.543   0.999   1.624 -0.6633  0.4525  0.1793
15170TIP3    H166925   4.508   1.063   1.686 -3.3218  0.5366 -1.2857
15170TIP3    H266926   4.596   0.940   1.678 -0.2711  2.3413  1.9760
15171TIP3   OH266927   4.332   2.878   2.671 -0.5374  0.8439 -0.0485
15171TIP3    H166928   4.250   2.911   2.709 -0.7996  0.5632 -0.3613
15171TIP3    H266929   4.366   2.952   2.620  0.4599  1.6424  1.7154
15172TIP3   OH266930   4.358   2.774  14.378 -0.3204 -0.2220 -0.3982
15172TIP3    H166931   4.400   2.786  14.293 -0.3779 -3.1093 -0.9376
15172TIP3    H266932   4.388   2.688  14.408 -2.2481 -0.3724  1.3256
15173TIP3   OH266933   5.855   1.011  12.101  0.3260 -0.1437 -0.0523
15173TIP3    H166934   5.876   1.097  12.135 -4.2974  1.1387  0.2841
15173TIP3    H266935   5.895   1.008  12.014  0.8327  2.2328  0.0522
15174TIP3   OH266936   0.140   6.083  16.141  0.1885 -0.1031  0.0717
15174TIP3    H166937   0.122   6.042  16.057 -0.1079 -0.3702  0.2634
15174TIP3    H266938   0.207   6.149  16.122 -0.9295  0.8797 -0.6604
15175TIP3   OH266939   1.072   4.118   5.533 -0.0974 -0.0354  0.1097
15175TIP3    H166940   1.031   4.062   5.599 -0.9002  0.3550 -0.0415
15175TIP3    H266941   1.111   4.057   5.471 -2.2988 -0.5117 -0.8996
15176TIP3   OH266942   2.564   6.247  10.743 -0.1869 -0.2149  0.3474
15176TIP3    H166943   2.624   6.315  10.711  0.4420 -0.9729 -0.1358
15176TIP3    H266944   2.498   6.240  10.674 -0.0302 -0.3642  0.2112
15177TIP3   OH266945   5.328   1.049  15.906 -0.1506  0.0341  0.4476
15177TIP3    H166946   5.264   0.978  15.897 -0.5907  0.4295  0.4518
15177TIP3    H266947   5.298   1.116  15.845  2.8043 -1.6022 -3.2664
15178TIP3   OH266948   0.553   4.368   0.767  0.2915 -0.0561 -0.5331
15178TIP3    H166949   0.580   4.422   0.841  0.5251 -0.3484 -0.4000
15178TIP3    H266950   0.618   4.385   0.699  0.6979 -0.5969 -0.2889
15179TIP3   OH266951   1.574   4.784   4.601 -0.3714  0.3005 -0.2362
15179TIP3    H166952   1.487   4.797   4.562 -0.0725 -2.0105 -1.9243
15179TIP3    H266953   1.634   4.830   4.543 -0.2685 -0.1646 -0.5103
15180TIP3   OH266954   4.543   0.652  13.069 -0.1628 -0.4302  0.0729
15180TIP3    H166955   4.465   0.706  13.079  0.4720  0.7461 -0.9721
15180TIP3    H266956   4.581   0.680  12.985  1.8722 -0.2857  0.9705
15181TIP3   OH266957   5.036   2.043  12.711 -0.0305 -0.0685  0.1592
15181TIP3    H166958   5.011   1.990  12.635  3.4513  1.7413 -2.5415
15181TIP3    H266959   5.112   1.998  12.748  1.2839  1.5157 -0.4974
15182TIP3   OH266960   2.372   0.065  17.022 -0.4907 -0.0548  0.1629
15182TIP3    H166961   2.422   0.147  17.016  1.2934 -1.1538 -0.6317
15182TIP3    H266962   2.423   0.011  17.082 -1.3785 -0.7939  0.2689
15183TIP3   OH266963   0.110   4.688  14.468 -0.4891 -0.2855 -0.2419
15183TIP3    H166964   0.148   4.696  14.556 -0.4287 -0.5244 -0.2469
15183TIP3    H266965   0.017   4.704  14.481 -0.2346  1.5214 -0.4080
15184TIP3   OH266966   1.280   0.844  13.038  0.4641 -0.4355  0.2577
15184TIP3    H166967   1.319   0.759  13.015  0.2986 -0.2563 -0.7429
15184TIP3    H266968   1.355   0.903  13.047  0.4873 -0.1244 -1.5224
15185TIP3   OH266969   3.156   0.994   4.928  0.6000 -0.2000 -0.4213
15185TIP3    H166970   3.183   1.077   4.889 -0.4191  0.0220 -0.6861
15185TIP3    H266971   3.234   0.939   4.924  1.3804  0.8405  0.0483
15186TIP3   OH266972   4.296   3.936   4.096 -0.2926  0.1202  0.0219
15186TIP3    H166973   4.235   3.872   4.060 -0.6530  0.6534 -0.3344
15186TIP3    H266974   4.322   3.901   4.181 -0.0624 -0.7638 -0.4024
15187TIP3   OH266975   3.225   5.766   6.149  0.4854 -0.5456  0.1385
15187TIP3    H166976   3.262   5.729   6.229  0.5945 -0.4177  0.1489
15187TIP3    H266977   3.147   5.714   6.131  0.9204 -1.1101 -0.1361
15188TIP3   OH266978   0.468   0.139   3.978 -0.1944  0.8562  0.2216
15188TIP3    H166979   0.477   0.211   4.041 -0.9874 -0.5858  2.0807
15188TIP3    H266980   0.388   0.093   4.004 -1.2419  0.8565 -2.6275
15189TIP3   OH266981   3.738   5.923  12.566  0.1864 -0.0787 -0.0258
15189TIP3    H166982   3.674   5.904  12.634  0.3891  1.4479  0.6491
15189TIP3    H266983   3.692   5.981  12.505  0.1760 -0.9873 -0.8984
15190TIP3   OH266984   5.614   0.475   5.136  0.0712 -0.6676 -0.7295
15190TIP3    H166985   5.699   0.502   5.171 -0.2473  0.3586 -0.7309
15190TIP3    H266986   5.556   0.472   5.212 -0.1542 -0.3064 -0.8864
15191TIP3   OH266987   5.109   3.858   5.870 -0.0195  0.6889  0.0403
15191TIP3    H166988   5.064   3.942   5.878 -0.2044  0.7774 -1.6117
15191TIP3    H266989   5.194   3.880   5.833 -0.2444  0.1194 -0.8446
15192TIP3   OH266990   3.776   0.441  14.202  0.0256 -0.1372  0.0025
15192TIP3    H166991   3.786   0.350  14.231 -1.9509 -0.3136  0.2841
15192TIP3    H266992   3.771   0.491  14.283  0.5681  0.1572 -0.1448
15193TIP3   OH266993   0.683   6.727   0.696  0.3592  0.0732  0.5820
15193TIP3    H166994   0.670   6.800   0.757 -0.0074  0.0670  0.5154
15193TIP3    H266995   0.650   6.651   0.743  1.1255 -0.1259  0.8156
15194TIP3   OH266996   6.235   6.047  12.335  0.0658  0.0443 -0.4975
15194TIP3    H166997   6.187   6.011  12.260  1.6859 -0.2652 -1.4460
15194TIP3    H266998   6.300   5.980  12.356 -0.4473  0.0571  1.3376
15195TIP3   OH266999   0.050   1.638  11.941 -0.7278 -0.5508  0.2070
15195TIP3    H167000   0.062   1.677  12.027  0.1196  0.1844 -0.2280
15195TIP3    H267001   0.121   1.575  11.932 -0.2139  0.0923 -0.3360
15196TIP3   OH267002   2.448   1.088   5.495 -0.3123  0.1198  0.1024
15196TIP3    H167003   2.430   1.180   5.477  1.7761  0.5514 -0.1037
15196TIP3    H267004   2.425   1.076   5.587 -0.5878  0.8631  0.1332
15197TIP3   OH267005   2.631   5.928   1.053 -0.0014 -0.4471  0.0456
15197TIP3    H167006   2.541   5.915   1.080  0.0043 -1.9980 -0.5788
15197TIP3    H267007   2.627   6.000   0.989 -0.6611  0.0239  0.6079
15198TIP3   OH267008   0.883   3.038   4.193 -0.4532  0.2059 -0.2806
15198TIP3    H167009   0.791   3.014   4.199 -0.7110  1.1645 -0.2687
15198TIP3    H267010   0.925   2.986   4.262 -1.0234 -0.0468 -0.1146
15199TIP3   OH267011   1.421   6.466   0.927 -0.2134  0.0638  0.2782
15199TIP3    H167012   1.333   6.486   0.894  0.4492  0.8781 -1.0829
15199TIP3    H267013   1.417   6.374   0.952 -1.0327 -0.3588 -1.2655
15200TIP3   OH267014   1.489   3.163  14.401  0.5162  0.2231  0.7887
15200TIP3    H167015   1.535   3.240  14.368  1.9487 -0.2368  1.6234
15200TIP3    H267016   1.420   3.147  14.337  1.2739  1.1813 -0.3013
15201TIP3   OH267017   5.543   0.716   3.380  0.2694  0.1853 -0.2123
15201TIP3    H167018   5.520   0.651   3.445 -0.7553 -0.1558 -0.8991
15201TIP3    H267019   5.600   0.778   3.427 -2.2018  1.2084  1.6293
15202TIP3   OH267020   3.646   3.698   2.131 -0.5716 -0.1639 -0.1211
15202TIP3    H167021   3.719   3.655   2.087 -0.0319 -1.7752  2.1708
15202TIP3    H267022   3.591   3.626   2.162 -1.0969  0.8819  1.5097
15203TIP3   OH267023   0.933   0.422   1.297  0.0248  0.4823  0.3948
15203TIP3    H167024   0.885   0.505   1.298 -0.7389  0.0822 -0.8515
15203TIP3    H267025   0.988   0.427   1.219 -1.3680 -0.8776 -0.7473
15204TIP3   OH267026   0.431   2.829  16.643 -0.1883  0.2570 -0.5261
15204TIP3    H167027   0.476   2.749  16.615  0.3286 -0.1306  1.3029
15204TIP3    H267028   0.408   2.873  16.561  3.0256  0.1881 -1.5975
15205TIP3   OH267029   4.774   2.484   3.760  0.3968  0.0500 -0.3468
15205TIP3    H167030   4.783   2.391   3.736  2.3918  0.2266 -0.4546
15205TIP3    H267031   4.857   2.506   3.803 -0.0114  1.8095 -0.3818
15206TIP3   OH267032   2.467   3.709   3.250  0.3888  0.0310  0.3498
15206TIP3    H167033   2.550   3.691   3.295  0.6545 -0.5464 -0.3613
15206TIP3    H267034   2.488   3.774   3.184  0.1956  0.1410  0.3936
15207TIP3   OH267035   5.824   5.269   3.060  0.4578 -0.7207  0.3913
15207TIP3    H167036   5.874   5.226   3.129  0.0903 -1.5166  0.1811
15207TIP3    H267037   5.767   5.200   3.026 -2.9836  0.7766  2.5766
15208TIP3   OH267038   2.113   1.116  14.600 -0.1877  0.0627 -0.0579
15208TIP3    H167039   2.068   1.032  14.603  1.0595 -0.5781  1.8303
15208TIP3    H267040   2.192   1.099  14.549  0.2373  0.0016  0.6201
15209TIP3   OH267041   3.499   6.135   0.202 -0.0434  0.2305 -0.6964
15209TIP3    H167042   3.481   6.073   0.130 -0.9546  0.4570 -0.6767
15209TIP3    H267043   3.455   6.096   0.278 -0.0886  0.5949 -0.5376
15210TIP3   OH267044   1.332   3.420   0.763  0.9336 -0.3044 -0.6327
15210TIP3    H167045   1.386   3.346   0.792 -0.6604 -1.2213  0.1176
15210TIP3    H267046   1.293   3.391   0.681  0.1133 -0.4056 -0.2156
15211TIP3   OH267047   4.343   6.362   3.175 -0.2123  0.3998  0.3479
15211TIP3    H167048   4.318   6.448   3.142 -2.4881 -0.9721 -1.8720
15211TIP3    H267049   4.424   6.341   3.130  0.2333  1.2428  0.7276
15212TIP3   OH267050   0.312   0.862  13.798 -0.2250  0.0118  0.1693
15212TIP3    H167051   0.401   0.889  13.777  0.2925 -0.8077  1.2353
15212TIP3    H267052   0.276   0.935  13.849 -0.0761  0.2350 -0.0465
15213TIP3   OH267053   4.924   5.032  11.225 -0.1698 -0.0826 -0.0936
15213TIP3    H167054   4.938   5.065  11.136  0.2956 -1.1620 -0.4330
15213TIP3    H267055   4.855   4.967  11.216 -0.8204  0.5016  0.5163
15214TIP3   OH267056   6.521   1.945  11.151 -0.0372  0.1253 -0.1286
15214TIP3    H167057   6.486   1.909  11.232 -1.5396 -5.6707 -2.8343
15214TIP3    H267058   6.444   1.981  11.106 -0.1197 -0.7860 -0.7457
15215TIP3   OH267059   2.269   1.027  15.380 -0.4017  0.5319  0.2774
15215TIP3    H167060   2.322   1.005  15.456 -0.5663 -2.1007 -0.2723
15215TIP3    H267061   2.330   1.023  15.306 -0.7652  0.4128 -0.0202
15216TIP3   OH267062   2.450   1.816  15.215 -0.3543 -0.0764  0.4802
15216TIP3    H167063   2.531   1.850  15.176 -0.0622 -0.4741  0.7335
15216TIP3    H267064   2.387   1.819  15.143 -0.2523  0.6987  0.4105
15217TIP3   OH267065   2.582   0.076   4.448  0.3391 -0.0585  0.2543
15217TIP3    H167066   2.525   0.009   4.410  1.1910  0.4024 -1.9814
15217TIP3    H267067   2.671   0.046   4.429  0.8385  0.0257  2.2896
15218TIP3   OH267068   5.799   6.340   3.282 -0.1728  0.2109  0.1851
15218TIP3    H167069   5.838   6.253   3.289  0.2339  0.3699 -0.1236
15218TIP3    H267070   5.744   6.336   3.203  2.7967  1.3589 -2.1279
15219TIP3   OH267071   1.818   5.253   2.030 -0.5386 -0.4984  0.1343
15219TIP3    H167072   1.864   5.185   2.079  1.2234 -0.2600 -1.1132
15219TIP3    H267073   1.845   5.335   2.070  0.8037 -0.3105 -1.0720
15220TIP3   OH267074   2.913   2.488   0.036 -0.7115  0.3187 -0.0452
15220TIP3    H167075   2.967   2.497   0.114 -0.8303 -1.7749  0.3279
15220TIP3    H267076   2.954   2.546  -0.028 -1.3121  3.0163  1.8534
15221TIP3   OH267077   4.806   6.516   1.178 -0.5956  0.4679 -0.8067
15221TIP3    H167078   4.882   6.458   1.181  0.4071  1.7292 -0.6992
15221TIP3    H267079   4.764   6.506   1.263  0.1721  0.6833 -0.3980
15222TIP3   OH267080   6.660   6.157   6.111 -0.0843 -0.4019 -0.0922
15222TIP3    H167081   6.616   6.238   6.136 -0.5217 -0.5134 -0.4833
15222TIP3    H267082   6.594   6.089   6.125  0.7523 -0.8997  1.6880
15223TIP3   OH267083   3.422   0.297  16.141  0.5122 -0.0765  0.0701
15223TIP3    H167084   3.331   0.270  16.127  0.1363  0.5016  1.2601
15223TIP3    H267085   3.462   0.291  16.055 -0.6502 -0.3743 -0.4717
15224TIP3   OH267086   6.444   6.465  17.243 -0.1803 -0.2955 -0.3741
15224TIP3    H167087   6.485   6.477  17.329  0.5982 -2.4486 -0.3716
15224TIP3    H267088   6.364   6.516  17.247  1.5930  2.6962  0.2577
15225TIP3   OH267089   3.925   5.606  17.306  0.5798  0.0676 -0.3239
15225TIP3    H167090   3.830   5.600  17.297  0.4807  0.7405  0.2125
15225TIP3    H267091   3.939   5.631  17.397  1.3672 -2.2006  0.2504
15226TIP3   OH267092   5.479   5.360  16.425  0.0391 -0.4910  0.2018
15226TIP3    H167093   5.491   5.358  16.520  0.0444 -0.6319  0.1995
15226TIP3    H267094   5.471   5.268  16.400  2.3148 -0.6176 -0.2319
15227TIP3   OH267095   4.997   0.269  15.001  0.2698  0.2539  0.7839
15227TIP3    H167096   5.047   0.188  14.999 -1.2965 -0.7509  0.4873
15227TIP3    H267097   5.046   0.329  14.944  1.1320 -0.6673  0.5311
15228TIP3   OH267098   1.962   1.551  14.003  0.1072 -0.0609  0.4032
15228TIP3    H167099   1.897   1.483  14.021 -0.4304 -0.2377 -1.8858
15228TIP3    H267100   2.045   1.512  14.032 -0.4043 -1.0199  0.6452
15229TIP3   OH267101   6.379   5.455   1.763 -0.2652 -0.1884 -0.2103
15229TIP3    H167102   6.454   5.400   1.780 -0.3386 -0.0141  0.7436
15229TIP3    H267103   6.370   5.509   1.842 -0.9852  0.2572 -0.5805
15230TIP3   OH267104   2.789   4.250   5.397  0.0946 -0.1188 -0.1662
15230TIP3    H167105   2.763   4.158   5.385  2.5022 -0.7514 -1.0784
15230TIP3    H267106   2.761   4.293   5.316 -0.3901 -0.2104 -0.0484
15231TIP3   OH267107   6.388   0.679   0.333  0.2463  0.6075 -0.2302
15231TIP3    H167108   6.470   0.710   0.372  0.1523  1.0981 -0.4194
15231TIP3    H267109   6.379   0.730   0.253  0.9231 -1.0338 -1.4142
15232TIP3   OH267110   6.035   0.406  11.431 -0.7842 -0.7616 -0.3550
15232TIP3    H167111   6.124   0.414  11.399 -0.7550 -1.7117 -0.5436
15232TIP3    H267112   6.042   0.415  11.526 -0.7948  1.4434 -0.5011
15233TIP3   OH267113   4.655   5.664  11.898 -0.7114 -0.6879 -0.2794
15233TIP3    H167114   4.744   5.629  11.907 -0.7094 -1.0449 -1.4728
15233TIP3    H267115   4.640   5.667  11.803  0.2191  4.8912 -0.5943
15234TIP3   OH267116   5.241   3.906   1.417 -0.2234 -0.4290 -0.2333
15234TIP3    H167117   5.148   3.906   1.440 -0.4511 -0.7501 -1.1093
15234TIP3    H267118   5.278   3.977   1.468 -1.3929  1.2067 -1.5541
15235TIP3   OH267119   6.453   4.226   5.157 -0.2116  0.6246 -0.0879
15235TIP3    H167120   6.377   4.171   5.138 -0.5579 -0.8665  4.3732
15235TIP3    H267121   6.427   4.314   5.130 -2.6403 -0.1969 -0.6531
15236TIP3   OH267122   0.965   4.888  13.427  0.1691  0.0931 -0.3073
15236TIP3    H167123   1.026   4.956  13.400  0.0504  0.0423 -0.7128
15236TIP3    H267124   1.019   4.809  13.437  0.1396  0.0067 -0.8393
15237TIP3   OH267125   6.514   3.306   4.715 -0.4016  0.0884  0.4453
15237TIP3    H167126   6.431   3.338   4.680  1.0977  3.3168 -0.5120
15237TIP3    H267127   6.565   3.283   4.638  0.4333  0.4300  0.8846
15238TIP3   OH267128   4.768   0.472   5.817 -0.0935  0.2456 -0.0579
15238TIP3    H167129   4.698   0.423   5.775 -0.0493  1.4222 -1.5670
15238TIP3    H267130   4.735   0.490   5.906 -0.0495 -2.5440  0.6079
15239TIP3   OH267131   4.687   5.656  11.357 -0.4132  0.0386 -0.2046
15239TIP3    H167132   4.693   5.643  11.263  0.4829  0.4155 -0.2098
15239TIP3    H267133   4.593   5.652  11.376 -0.6086  0.0766 -1.1236
15240TIP3   OH267134   3.234   3.054  12.190 -0.0959  0.4316  0.2373
15240TIP3    H167135   3.245   3.052  12.285 -0.2341 -1.0526  0.2361
15240TIP3    H267136   3.171   2.985  12.171  2.6941 -1.9006 -1.2802
15241TIP3   OH267137   1.748   0.785  16.071  0.0471 -0.3113 -0.4141
15241TIP3    H167138   1.747   0.852  16.003  1.0175  0.4271  0.2764
15241TIP3    H267139   1.805   0.717  16.037 -0.3742 -0.4692 -0.8140
15242TIP3   OH267140   3.653   6.151   5.302  0.0802  0.1510 -0.5285
15242TIP3    H167141   3.697   6.106   5.230 -0.2606 -1.0847  0.0046
15242TIP3    H267142   3.590   6.209   5.259 -0.2540 -0.7075 -1.2229
15243TIP3   OH267143   4.695   0.786   0.717 -0.8354 -0.2958 -0.2553
15243TIP3    H167144   4.721   0.816   0.805 -3.0775  1.8925 -0.2087
15243TIP3    H267145   4.777   0.767   0.673  0.4312 -0.1691  1.9047
15244TIP3   OH267146   6.739   5.149   3.771 -0.8716  0.0639 -0.1602
15244TIP3    H167147   6.655   5.124   3.732 -1.4277  0.4149  0.7774
15244TIP3    H267148   6.732   5.243   3.787 -0.3828  0.0582  0.1226
15245TIP3   OH267149   1.311   3.994   4.433 -0.6085  0.2357 -0.3671
15245TIP3    H167150   1.302   3.899   4.432  0.7825  0.0828 -0.7870
15245TIP3    H267151   1.314   4.019   4.341  0.5991  0.4993 -0.2716
15246TIP3   OH267152   4.454   6.226  14.101 -0.0700  0.0013 -0.1055
15246TIP3    H167153   4.429   6.317  14.115  1.1569  0.1174  1.8329
15246TIP3    H267154   4.544   6.230  14.069 -0.4948 -0.5194 -1.4222
15247TIP3   OH267155   0.267   3.869   1.598 -0.5704  0.3463  0.1389
15247TIP3    H167156   0.361   3.886   1.609 -0.5285  0.4153 -0.2946
15247TIP3    H267157   0.260   3.774   1.599 -0.5420  0.3455  0.5168
15248TIP3   OH267158   1.817   0.965   4.913 -0.5948 -0.2757 -0.1995
15248TIP3    H167159   1.862   0.981   4.996  0.0350 -2.8147  0.0325
15248TIP3    H267160   1.818   1.049   4.868 -0.0372  0.9136  1.9250
15249TIP3   OH267161   6.631   4.790   2.648  0.0977 -0.6799  0.5712
15249TIP3    H167162   6.716   4.809   2.608 -0.8288 -2.8041 -2.9378
15249TIP3    H267163   6.650   4.725   2.715  1.4442  0.7136  1.6061
15250TIP3   OH267164   1.135   0.608  16.416  0.2540  0.0439 -0.5609
15250TIP3    H167165   1.193   0.544  16.376  1.3135  0.4594  0.2637
15250TIP3    H267166   1.054   0.560  16.433  0.9373 -1.0174 -0.1947
15251TIP3   OH267167   5.853   6.081  14.605 -0.0895  0.2233 -0.2909
15251TIP3    H167168   5.861   6.003  14.660 -0.1676 -1.4393 -2.5023
15251TIP3    H267169   5.768   6.072  14.562  0.0096  1.4162 -0.7882
15252TIP3   OH267170   3.888   2.765  11.713  0.2191  0.2371 -0.0563
15252TIP3    H167171   3.941   2.724  11.644 -0.6520  0.1491 -0.6801
15252TIP3    H267172   3.949   2.776  11.786  1.7604  2.2876 -1.5148
15253TIP3   OH267173   2.987   1.658  11.985  0.0788  0.2442  0.2487
15253TIP3    H167174   2.919   1.667  12.052 -1.4289 -0.2844 -1.1326
15253TIP3    H267175   3.066   1.637  12.034 -0.8298  0.4738  1.8985
15254TIP3   OH267176   3.937   4.509  14.472  0.2879 -0.4320 -0.2517
15254TIP3    H167177   3.986   4.581  14.510 -0.0671 -0.3726  0.0976
15254TIP3    H267178   3.951   4.436  14.532 -2.3632  0.3302  1.4859
15255TIP3   OH267179   3.601   3.922  14.573 -0.0078  0.2056 -0.1050
15255TIP3    H167180   3.696   3.934  14.579  0.1771 -0.5350 -1.2699
15255TIP3    H267181   3.565   4.010  14.582  0.7485  0.4396  0.8585
15256TIP3   OH267182   4.636   4.709   3.503  0.0800 -0.0637  0.0755
15256TIP3    H167183   4.727   4.692   3.476  0.6821  0.8273  1.4559
15256TIP3    H267184   4.621   4.648   3.575  0.1611  0.9005  0.9326
15257TIP3   OH267185   2.526   1.698  16.223 -0.0930 -0.5819  0.9070
15257TIP3    H167186   2.551   1.657  16.140 -0.7030 -0.3772  0.6202
15257TIP3    H267187   2.477   1.629  16.270  0.3939 -0.7529  1.1753
15258TIP3   OH267188   2.536   2.919   3.956  0.6734  0.4090 -0.4905
15258TIP3    H167189   2.562   2.994   4.009  0.5257 -0.1981  0.4683
15258TIP3    H267190   2.440   2.919   3.961  0.6564  0.3761 -0.8050
15259TIP3   OH267191   0.805   4.286  15.976  0.1702 -0.0254 -0.1035
15259TIP3    H167192   0.746   4.293  16.051  0.7717 -0.3380  0.4039
15259TIP3    H267193   0.893   4.286  16.014  0.4564 -1.1602 -0.7086
15260TIP3   OH267194   4.438   5.621  12.064  0.2283  0.1213 -0.0196
15260TIP3    H167195   4.513   5.657  12.018  0.4854 -0.4880 -0.0878
15260TIP3    H267196   4.466   5.534  12.092 -0.6872 -0.4017 -0.6567
15261TIP3   OH267197   1.508   2.610  13.211  0.7807 -0.2485  0.3411
15261TIP3    H167198   1.506   2.529  13.262  1.7974 -1.2401 -1.1320
15261TIP3    H267199   1.591   2.607  13.164  0.1957  0.9778 -0.8188
15262TIP3   OH267200   6.680   3.813   1.577 -0.0957 -0.0224  0.4260
15262TIP3    H167201   6.597   3.860   1.585  0.0657  0.3347  0.0482
15262TIP3    H267202   6.710   3.833   1.489 -0.2520 -1.2350  0.0858
15263TIP3   OH267203   4.623   6.635   5.706 -0.8467 -0.3223  0.1385
15263TIP3    H167204   4.622   6.541   5.725 -0.1025  0.0540  2.3266
15263TIP3    H267205   4.697   6.646   5.647 -0.2558 -0.9872  0.7335
15264TIP3   OH267206   3.604   4.320  16.167 -0.4121  0.2029 -0.4711
15264TIP3    H167207   3.585   4.264  16.092 -0.8008 -0.1295 -0.1306
15264TIP3    H267208   3.624   4.259  16.238 -0.6755  0.4989 -0.1397
15265TIP3   OH267209   5.992   4.341  11.600 -0.1782  0.2673 -0.3395
15265TIP3    H167210   6.040   4.330  11.682  0.2986  0.9543 -0.5196
15265TIP3    H267211   5.913   4.389  11.625  0.8466  2.1414 -0.5377
15266TIP3   OH267212   2.091   1.868   0.830 -0.2604 -0.3416  0.8862
15266TIP3    H167213   2.030   1.900   0.896 -1.0215  1.0457 -0.3914
15266TIP3    H267214   2.086   1.773   0.835 -1.9734 -0.2565  1.3398
15267TIP3   OH267215   5.013   1.880   4.365  0.6299  0.2238  0.0950
15267TIP3    H167216   5.064   1.819   4.312 -0.0992  0.0549 -0.4373
15267TIP3    H267217   5.018   1.963   4.317 -0.1608  0.0316 -0.3307
15268TIP3   OH267218   3.335   4.223   3.685 -0.0948 -0.4247  0.0968
15268TIP3    H167219   3.327   4.298   3.626 -1.1544 -0.0140  0.7319
15268TIP3    H267220   3.259   4.168   3.665  0.5816 -1.2624 -0.2485
15269TIP3   OH267221   2.378   2.454   1.963  0.6691 -0.2051  0.9094
15269TIP3    H167222   2.427   2.427   1.885  1.1145  1.0546  0.7336
15269TIP3    H267223   2.309   2.512   1.929  2.2226  2.1815  1.5938
15270TIP3   OH267224   4.632   3.084  16.952 -0.2126  0.0929 -0.4154
15270TIP3    H167225   4.626   3.164  16.900 -0.2201 -0.1631 -0.8122
15270TIP3    H267226   4.687   3.025  16.900 -1.2868 -0.6420 -0.7601
15271TIP3   OH267227   1.554   5.809   2.485  0.0314 -0.1942 -0.0137
15271TIP3    H167228   1.508   5.769   2.558 -0.3322 -1.4410 -0.8965
15271TIP3    H267229   1.490   5.870   2.447  0.4611  0.9875  1.1093
15272TIP3   OH267230   4.123   4.579   5.644  0.1001 -0.2531  0.3411
15272TIP3    H167231   4.101   4.491   5.674  0.0522  0.3134  2.0400
15272TIP3    H267232   4.215   4.575   5.619 -0.3892 -1.2422 -1.4743
15273TIP3   OH267233   5.863   5.740  17.035  0.2672  0.3919  0.5278
15273TIP3    H167234   5.883   5.706  16.948 -1.4053  0.0279  0.2442
15273TIP3    H267235   5.821   5.667  17.080  0.7005  0.7202  1.4834
15274TIP3   OH267236   4.110   0.919  12.556  0.0595 -0.4092 -0.0774
15274TIP3    H167237   4.015   0.912  12.562  0.1065  0.0136  1.7196
15274TIP3    H267238   4.125   1.010  12.528 -0.0493 -0.5260 -0.5311
15275TIP3   OH267239   0.748   5.007   4.887  0.0115  0.6998  0.7016
15275TIP3    H167240   0.818   4.968   4.940 -0.4150  0.7470  1.3050
15275TIP3    H267241   0.776   4.993   4.797  0.4632  0.0979  0.9294
15276TIP3   OH267242   2.384   1.823   4.515  0.8481 -0.5207 -0.0314
15276TIP3    H167243   2.322   1.845   4.445  0.3292 -1.7232  0.0179
15276TIP3    H267244   2.333   1.830   4.595  0.8957 -1.0680  0.0502
15277TIP3   OH267245   0.347   6.090   0.827 -0.0159  0.4364 -0.3705
15277TIP3    H167246   0.364   6.173   0.871 -0.2790  0.1457  0.2859
15277TIP3    H267247   0.316   6.032   0.896 -1.4606  0.2772 -1.1108
15278TIP3   OH267248   0.091   5.210  14.232  0.2653 -0.6365 -0.1143
15278TIP3    H167249   0.014   5.251  14.271  0.3498 -2.3404  2.0748
15278TIP3    H267250   0.131   5.278  14.179 -2.1247  0.6217 -0.4166
15279TIP3   OH267251   3.436   2.570  13.374  0.8017 -0.2267  0.0095
15279TIP3    H167252   3.488   2.495  13.344  1.2151  0.1813 -0.3037
15279TIP3    H267253   3.346   2.547  13.352  0.8075 -1.0447  0.7727
15280TIP3   OH267254   6.219   5.527  11.414  0.3764  0.3131 -0.1700
15280TIP3    H167255   6.186   5.611  11.447 -0.3508  0.6946 -1.7588
15280TIP3    H267256   6.170   5.461  11.463 -1.6423  0.8649 -1.3151
15281TIP3   OH267257   3.729   6.064  17.337  0.3955 -0.1984 -0.0035
15281TIP3    H167258   3.792   6.063  17.265  0.5604 -3.2355  0.0489
15281TIP3    H267259   3.649   6.099  17.298  0.7792 -0.7981 -1.3900
15282TIP3   OH267260   5.540   2.162  14.883  0.0935  0.0902  0.0847
15282TIP3    H167261   5.505   2.094  14.825 -0.6968  1.9704 -1.7766
15282TIP3    H267262   5.632   2.170  14.857 -0.0995  0.4856 -0.5118
15283TIP3   OH267263   3.610   3.147   4.591 -0.1627 -0.0763  0.0187
15283TIP3    H167264   3.694   3.184   4.617 -0.7392  1.3963 -0.1082
15283TIP3    H267265   3.619   3.130   4.498 -0.3043  1.0359 -0.2190
15284TIP3   OH267266   1.532   5.721   1.402  0.1952  0.4803  0.4631
15284TIP3    H167267   1.604   5.739   1.341  0.7170  0.0185  0.9255
15284TIP3    H267268   1.501   5.807   1.428 -0.8990  0.7148 -1.4113
15285TIP3   OH267269   4.818   3.377  16.791 -0.7616  0.3318  0.4353
15285TIP3    H167270   4.810   3.388  16.885 -1.0500 -2.2493  0.7889
15285TIP3    H267271   4.912   3.368  16.775 -0.7777 -0.1136  0.5983
15286TIP3   OH267272   5.115   6.364  15.317 -0.1620 -0.4193  0.1788
15286TIP3    H167273   5.030   6.388  15.354 -0.8238 -2.6449  0.3050
15286TIP3    H267274   5.178   6.418  15.364 -1.2345 -1.0735  2.5764
15287TIP3   OH267275   0.468   2.353  15.216  0.2690  0.1384 -0.6038
15287TIP3    H167276   0.549   2.337  15.169 -0.1673  0.1749 -1.3913
15287TIP3    H267277   0.443   2.443  15.194  1.3430  1.0700  1.7195
15288TIP3   OH267278   5.598   2.001   1.347  0.0986 -0.0676  0.4235
15288TIP3    H167279   5.539   1.980   1.420  1.4235 -2.3166  0.9235
15288TIP3    H267280   5.621   2.093   1.361 -2.7807  0.7408  0.5182
15289TIP3   OH267281   3.619   2.395  16.576 -0.3009 -0.3752  0.6612
15289TIP3    H167282   3.569   2.433  16.504  1.1229 -0.5572 -0.4496
15289TIP3    H267283   3.710   2.418  16.557  0.0076  0.8867  3.1876
15290TIP3   OH267284   5.532   0.606   6.406 -0.0994 -0.3600  0.1608
15290TIP3    H167285   5.520   0.678   6.344 -2.5234  1.0777  2.1229
15290TIP3    H267286   5.619   0.620   6.443 -0.5397  1.6925  0.5510
15291TIP3   OH267287   6.235   1.389  12.534  0.2183  0.7014  0.1654
15291TIP3    H167288   6.248   1.359  12.444  1.4251  0.7991  0.2909
15291TIP3    H267289   6.151   1.351  12.560  0.4802 -0.4308 -0.5606
15292TIP3   OH267290   2.526   0.763  11.590 -0.9156 -0.2765 -0.0168
15292TIP3    H167291   2.621   0.761  11.584 -0.9118  1.7750 -2.6316
15292TIP3    H267292   2.497   0.685  11.542 -0.5589 -0.8997  0.7804
15293TIP3   OH267293   3.272   3.472  14.688 -0.5288  0.3321  0.3501
15293TIP3    H167294   3.195   3.482  14.743 -0.6017  1.7639  0.0202
15293TIP3    H267295   3.318   3.556  14.695 -0.8643  0.8168 -2.2529
15294TIP3   OH267296   0.543   5.021  11.969  0.5979 -0.0706  0.0667
15294TIP3    H167297   0.624   5.052  12.008  0.0499  2.0594 -0.3286
15294TIP3    H267298   0.526   5.082  11.898 -2.0422  0.4070  0.9921
15295TIP3   OH267299   1.571   4.156   3.020 -0.3505  0.2842  0.2372
15295TIP3    H167300   1.590   4.231   2.964 -0.3095  0.7998  0.9233
15295TIP3    H267301   1.548   4.195   3.105 -0.0071 -0.4901  0.6929
15296TIP3   OH267302   2.981   3.917   1.724  0.2976  0.1004 -0.2354
15296TIP3    H167303   2.980   3.851   1.794  3.4908 -1.6401 -1.6422
15296TIP3    H267304   2.891   3.917   1.690 -0.7234 -0.7504  2.2218
15297TIP3   OH267305   5.077   1.190  16.190 -0.7375  0.0803 -0.1316
15297TIP3    H167306   5.130   1.264  16.159 -1.4635  1.6231  2.0658
15297TIP3    H267307   4.995   1.230  16.219 -1.9760 -1.8875 -0.7378
15298TIP3   OH267308   4.808   3.033  14.887 -0.1426 -0.2457 -0.2683
15298TIP3    H167309   4.896   3.013  14.857  0.9950  1.1947  1.8613
15298TIP3    H267310   4.816   3.118  14.931 -3.0516  1.0688 -1.9391
15299TIP3   OH267311   3.369   1.666  15.623  0.0280  0.3268 -0.1245
15299TIP3    H167312   3.432   1.730  15.656 -1.8859  2.7753 -0.8866
15299TIP3    H267313   3.394   1.651  15.532 -0.0466  0.7501 -0.2179
15300TIP3   OH267314   2.769   5.760   4.464 -0.2179  0.1054 -0.2262
15300TIP3    H167315   2.794   5.714   4.543 -0.2491  1.4370  0.5939
15300TIP3    H267316   2.843   5.749   4.405  1.4840  2.1398  1.3511
15301TIP3   OH267317   5.187   4.665  13.608  0.0020 -0.4797 -0.4038
15301TIP3    H167318   5.149   4.709  13.684 -2.3308  0.4418 -1.9867
15301TIP3    H267319   5.244   4.731  13.568 -1.9645  0.5668 -1.6660
15302TIP3   OH267320   0.970   4.814   1.266 -0.5616 -0.5827  0.0356
15302TIP3    H167321   1.058   4.795   1.234 -0.2489  1.6363 -0.6384
15302TIP3    H267322   0.984   4.864   1.346 -1.2088 -0.4497  0.0737
15303TIP3   OH267323   5.916   0.134  12.893  0.3226  0.5648 -0.4721
15303TIP3    H167324   5.840   0.078  12.909  0.3034  0.0409 -2.2492
15303TIP3    H267325   5.900   0.212  12.947 -1.2723  0.2904 -0.4998
15304TIP3   OH267326   3.647   0.539   2.039 -0.2041  1.0480  0.0005
15304TIP3    H167327   3.719   0.503   2.089  0.0751  1.3614 -0.1732
15304TIP3    H267328   3.689   0.586   1.967 -0.5866  1.0194 -0.2446
15305TIP3   OH267329   3.692   0.807  15.373 -0.5918 -0.3663  0.5240
15305TIP3    H167330   3.629   0.762  15.316 -0.9122  1.3653 -0.5540
15305TIP3    H267331   3.655   0.894  15.387  1.0999  0.3785  0.6416
15306TIP3   OH267332   4.552   1.491  15.956  0.1983  0.6666 -0.3144
15306TIP3    H167333   4.624   1.439  15.919 -1.0468  0.1791 -2.1447
15306TIP3    H267334   4.515   1.435  16.024  1.6450  1.0293  0.8529
15307TIP3   OH267335   6.531   2.895  15.094 -0.1654  0.2358 -0.1089
15307TIP3    H167336   6.479   2.922  15.018  0.2081  0.7155 -0.1987
15307TIP3    H267337   6.478   2.921  15.170 -0.8295 -0.8201 -0.1996
15308TIP3   OH267338   2.060   4.672  15.047  0.5896  0.5882 -0.1458
15308TIP3    H167339   2.135   4.621  15.017  0.7017  0.4363  0.3727
15308TIP3    H267340   2.087   4.763  15.040  0.4703  0.5670 -0.8692
15309TIP3   OH267341   4.089   3.776  16.784 -0.0357  0.4302 -0.7452
15309TIP3    H167342   4.170   3.725  16.791 -0.2985  0.2149  1.7829
15309TIP3    H267343   4.061   3.789  16.875 -2.8847  0.4355 -1.5250
15310TIP3   OH267344   2.399   6.694  13.718 -0.0146 -0.0137 -0.0591
15310TIP3    H167345   2.423   6.727  13.631 -2.4244 -0.9921 -1.1665
15310TIP3    H267346   2.458   6.621  13.733  0.9810  0.6775 -0.4600
15311TIP3   OH267347   2.310   2.404  15.614  0.4114 -0.2960 -0.6139
15311TIP3    H167348   2.278   2.314  15.614  0.4097 -0.3441 -2.7108
15311TIP3    H267349   2.337   2.420  15.523  0.3437  1.8417 -0.3097
15312TIP3   OH267350   2.804   5.527  17.096  0.0789 -0.1508  0.2290
15312TIP3    H167351   2.846   5.613  17.103  0.8684 -0.5327  0.3228
15312TIP3    H267352   2.726   5.533  17.151  0.5068  0.2805  0.8024
15313TIP3   OH267353   5.547   3.172   1.964 -0.2844  0.2925 -0.1071
15313TIP3    H167354   5.573   3.216   2.045 -0.5704  1.0376 -0.4156
15313TIP3    H267355   5.545   3.079   1.987  1.2104  0.3364  0.3168
15314TIP3   OH267356   5.186   4.120   5.562  0.1037  0.5501 -0.6317
15314TIP3    H167357   5.265   4.141   5.611  1.2125  0.1817 -2.2126
15314TIP3    H267358   5.153   4.205   5.531  0.1028  0.6612 -0.3303
15315TIP3   OH267359   0.426   6.383   5.063 -0.4797 -0.3309  0.0742
15315TIP3    H167360   0.335   6.389   5.094 -0.9856 -0.4518 -1.3128
15315TIP3    H267361   0.443   6.468   5.023 -0.1967 -0.5401 -0.2512
15316TIP3   OH267362   4.214   6.493   1.921 -0.3767  0.6987  0.9968
15316TIP3    H167363   4.134   6.466   1.877 -1.1808 -0.3200  2.9926
15316TIP3    H267364   4.230   6.426   1.987  1.5224  1.4622  1.3822
15317TIP3   OH267365   6.641   2.664   1.008  0.3611 -0.3691 -0.3753
15317TIP3    H167366   6.717   2.608   0.992  0.8615  0.1101  0.2705
15317TIP3    H267367   6.637   2.722   0.932  1.3501  0.3789  0.1271
15318TIP3   OH267368   5.680   4.837   5.524 -0.4380 -0.2046 -0.3439
15318TIP3    H167369   5.703   4.928   5.543  0.2384 -0.3906 -0.2332
15318TIP3    H267370   5.673   4.796   5.610  1.4389 -0.7641 -0.4037
15319TIP3   OH267371   0.827   0.215  15.689  0.5790  0.8555 -0.1563
15319TIP3    H167372   0.789   0.190  15.773  0.6496 -1.4788 -0.7332
15319TIP3    H267373   0.855   0.132  15.650 -0.1464  1.7444 -2.8070
15320TIP3   OH267374   1.564   3.971   5.583 -0.1196  0.0778 -0.1539
15320TIP3    H167375   1.586   4.020   5.662 -1.0122  0.0409  0.1283
15320TIP3    H267376   1.649   3.951   5.543  0.3501  0.0761  0.8048
15321TIP3   OH267377   2.716   4.771   4.868 -0.0242  0.1779  0.0619
15321TIP3    H167378   2.794   4.826   4.864 -0.4615  0.8250  0.2581
15321TIP3    H267379   2.671   4.786   4.785  0.8191 -1.3729 -0.7231
15322TIP3   OH267380   0.655   3.146   3.642 -0.0133  0.7076  0.3370
15322TIP3    H167381   0.719   3.106   3.700 -1.0633  0.0200  1.0433
15322TIP3    H267382   0.633   3.077   3.579 -0.6405  0.6785  0.5814
15323TIP3   OH267383   2.632   0.634   2.444  0.1102  0.2976 -0.2358
15323TIP3    H167384   2.553   0.689   2.443 -0.3762 -0.3936 -0.3851
15323TIP3    H267385   2.624   0.583   2.524 -0.5936 -1.1825 -1.2079
15324TIP3   OH267386   3.472   2.722   4.716  0.4296 -0.3455  0.0265
15324TIP3    H167387   3.471   2.779   4.639  0.9022  0.6284  0.7081
15324TIP3    H267388   3.384   2.685   4.720  0.0405  0.5122 -0.3328
15325TIP3   OH267389   6.687   2.572   2.330 -0.2199  0.2928  0.0740
15325TIP3    H167390   6.709   2.483   2.357 -2.0050  0.7451  3.6830
15325TIP3    H267391   6.593   2.568   2.311 -0.2104  1.3145 -0.2327
15326TIP3   OH267392   0.814   3.809  16.826 -1.3392 -0.0473 -0.5315
15326TIP3    H167393   0.887   3.761  16.863 -1.5139 -0.8328 -1.1883
15326TIP3    H267394   0.796   3.766  16.743 -0.8630  1.7616 -1.6357
15327TIP3   OH267395   4.114   4.203   0.195  0.2129  0.4338 -0.2343
15327TIP3    H167396   4.048   4.247   0.248  0.0374  0.5479 -0.5447
15327TIP3    H267397   4.185   4.182   0.256 -1.1119 -1.8215  0.6392
15328TIP3   OH267398   5.260   2.007   3.213  0.3328  0.2742  0.2606
15328TIP3    H167399   5.307   2.005   3.130  0.5221  1.9542  0.2941
15328TIP3    H267400   5.326   2.031   3.278  0.1141 -0.6872  0.8558
15329TIP3   OH267401   2.055   6.029   3.098 -0.0876  0.2036 -0.0405
15329TIP3    H167402   1.970   6.034   3.143 -0.1608 -1.1424  0.0153
15329TIP3    H267403   2.119   6.034   3.168 -0.1500  0.1313  0.0222
15330TIP3   OH267404   0.015   3.866  13.158  0.0067  0.3102  0.4654
15330TIP3    H167405  -0.002   3.803  13.228 -2.5617 -0.3413 -0.6129
15330TIP3    H267406   0.016   3.813  13.078 -0.9704  1.4612 -0.3451
15331TIP3   OH267407   3.558   1.423   0.525 -0.2482  0.0637  0.8835
15331TIP3    H167408   3.536   1.445   0.616  0.0983 -0.2364  1.0426
15331TIP3    H267409   3.619   1.492   0.498 -0.0521 -0.0596  1.0069
15332TIP3   OH267410   3.592   1.494   1.896  0.0078 -0.3125  0.0249
15332TIP3    H167411   3.562   1.428   1.833 -1.1243  0.4780 -0.2892
15332TIP3    H267412   3.687   1.484   1.896 -0.0988 -1.6018 -0.3883
15333TIP3   OH267413   2.767   2.763  12.835 -0.1703 -0.5125  0.0448
15333TIP3    H167414   2.790   2.856  12.826 -0.0405 -0.2547  2.4582
15333TIP3    H267415   2.780   2.727  12.747  1.0086  1.4712 -0.6646
15334TIP3   OH267416   0.458   3.608   4.323  0.0038 -0.3566 -0.6994
15334TIP3    H167417   0.480   3.673   4.389  2.4763  1.2704 -2.9653
15334TIP3    H267418   0.366   3.627   4.301  0.2443  1.4330 -0.2998
15335TIP3   OH267419   5.531   4.623  12.968 -0.3863  0.5315 -0.1688
15335TIP3    H167420   5.456   4.620  13.028 -0.2188 -0.9764  0.0122
15335TIP3    H267421   5.493   4.607  12.882 -0.3113 -0.0496 -0.0999
15336TIP3   OH267422   0.491   5.924   4.646  0.2889 -0.6955  0.6653
15336TIP3    H167423   0.422   5.858   4.644  0.5707 -0.9893 -1.2588
15336TIP3    H267424   0.572   5.875   4.637  0.5256 -0.1561 -0.4267
15337TIP3   OH267425   6.262   4.654   2.093  0.2113  0.5006  0.6837
15337TIP3    H167426   6.214   4.734   2.113  0.5566  0.4566  1.7505
15337TIP3    H267427   6.223   4.621   2.012 -2.4250 -0.2174  2.1395
15338TIP3   OH267428   1.361   5.561   4.929  0.1943  0.4295 -0.6040
15338TIP3    H167429   1.370   5.656   4.921  0.4505  0.5476  0.9161
15338TIP3    H267430   1.275   5.548   4.969  0.9862  0.1492  1.0873
15339TIP3   OH267431   1.821   3.548  13.047 -0.2433  0.3246 -0.1236
15339TIP3    H167432   1.871   3.473  13.079 -2.1577 -1.3050 -0.7555
15339TIP3    H267433   1.768   3.575  13.122 -0.0922  0.5886 -0.1100
15340TIP3   OH267434   2.618   1.586   6.287  0.1502  0.2887  0.0041
15340TIP3    H167435   2.534   1.591   6.332  0.9373  3.7746  1.4664
15340TIP3    H267436   2.667   1.519   6.334 -0.7810  0.3770  1.1381
15341TIP3   OH267437   0.819   2.091  11.412 -0.4813 -0.3197  0.4412
15341TIP3    H167438   0.846   2.000  11.403 -0.8769 -0.4302  0.3312
15341TIP3    H267439   0.901   2.140  11.421 -0.0712 -0.3787 -2.1016
15342TIP3   OH267440   3.691   6.078  14.730  0.8117  0.1590 -0.9439
15342TIP3    H167441   3.698   5.983  14.727 -1.2721 -0.0235 -1.2007
15342TIP3    H267442   3.681   6.099  14.823 -0.6556 -0.0774 -1.0256
15343TIP3   OH267443   0.376   5.761  16.395  0.3871  0.4418  0.5339
15343TIP3    H167444   0.394   5.688  16.336 -0.5818 -0.3705  1.2091
15343TIP3    H267445   0.462   5.799  16.413  1.0800 -1.3144  1.1380
15344TIP3   OH267446   2.625   5.942   2.971  0.0083  0.4991  0.4257
15344TIP3    H167447   2.585   5.866   3.013  0.2222  0.5455  0.7181
15344TIP3    H267448   2.648   5.912   2.883 -1.3261  0.6847 -0.0178
15345TIP3   OH267449   5.950   6.050  14.911  0.8670  0.3822 -0.3285
15345TIP3    H167450   6.015   6.001  14.860  2.2777  0.7070  1.0892
15345TIP3    H267451   5.963   6.021  15.001 -0.7316  0.7357  0.0538
15346TIP3   OH267452   2.922   2.195  11.287 -0.0103 -0.4232  0.1054
15346TIP3    H167453   2.836   2.197  11.245  0.3169 -1.3245 -0.6085
15346TIP3    H267454   2.963   2.115  11.255  1.5400  0.5531 -0.4368
15347TIP3   OH267455   5.283   1.191   1.937 -0.2788  0.3414  0.2917
15347TIP3    H167456   5.240   1.249   1.875  2.1087  1.5202 -0.3701
15347TIP3    H267457   5.342   1.138   1.884 -0.6142 -1.0048  1.1938
15348TIP3   OH267458   0.605   4.022  15.732 -0.0847 -0.2467  0.0044
15348TIP3    H167459   0.513   4.044  15.725  0.2715  1.6376  0.6636
15348TIP3    H267460   0.606   3.929  15.754 -1.8315 -0.1753  0.5156
15349TIP3   OH267461   4.050   0.427  12.460  0.4017 -0.4559 -0.1632
15349TIP3    H167462   4.069   0.355  12.400  1.0388  0.8895 -1.6616
15349TIP3    H267463   4.027   0.500  12.402 -1.1135  0.3189  1.3249
15350TIP3   OH267464   3.907   5.592   2.737 -0.6255  0.3876  0.1037
15350TIP3    H167465   3.865   5.652   2.675 -1.5927  1.0413  1.3273
15350TIP3    H267466   3.964   5.649   2.790 -0.9146  0.0910  0.7373
15351TIP3   OH267467   5.255   1.455  13.250  0.4821  0.4861 -0.0560
15351TIP3    H167468   5.185   1.461  13.315 -0.1809  0.3792 -0.7414
15351TIP3    H267469   5.298   1.541  13.253  0.4097  0.5057  0.4663
15352TIP3   OH267470   0.674   5.658   4.076  0.2747  0.6966 -0.0665
15352TIP3    H167471   0.681   5.597   4.150  0.0621  0.5453 -0.1701
15352TIP3    H267472   0.600   5.714   4.098  0.0838  0.5209 -0.2587
15353TIP3   OH267473   1.222   4.922  16.429  0.1377  0.9005  0.3406
15353TIP3    H167474   1.213   4.993  16.364 -0.4967  1.4417  0.9990
15353TIP3    H267475   1.306   4.939  16.471 -0.3353  1.7312  1.0058
15354TIP3   OH267476   2.662   1.333  12.507  0.2802  1.0345  0.1311
15354TIP3    H167477   2.689   1.281  12.431 -1.3003  1.0888 -0.5029
15354TIP3    H267478   2.682   1.277  12.582 -1.7414 -0.7531 -0.5494
15355TIP3   OH267479   5.392   2.688  12.184 -0.8641  0.3540 -0.4459
15355TIP3    H167480   5.483   2.676  12.210 -1.4459 -0.8408  1.2432
15355TIP3    H267481   5.396   2.714  12.092  1.1055 -1.9384 -1.0998
15356TIP3   OH267482   4.993   3.704   2.045  0.1414 -0.1961 -0.0225
15356TIP3    H167483   4.945   3.782   2.018  0.3128  0.2067  0.7812
15356TIP3    H267484   4.956   3.682   2.131  2.7710  1.4191  1.6929
15357TIP3   OH267485   4.354   4.208   4.921  0.1213  0.9623  0.4050
15357TIP3    H167486   4.268   4.211   4.879 -0.7716 -1.8970  1.7270
15357TIP3    H267487   4.335   4.205   5.015  1.5602 -0.3203  0.7045
15358TIP3   OH267488   5.954   6.171   5.453 -0.4113 -0.3568 -0.1876
15358TIP3    H167489   5.977   6.205   5.539 -0.6157  0.8174 -0.5731
15358TIP3    H267490   5.900   6.094   5.470  0.8203 -1.0525  0.7238
15359TIP3   OH267491   1.028   6.102  11.445 -0.1240  0.0614  0.4141
15359TIP3    H167492   1.072   6.031  11.493  0.3012  0.9391  1.3714
15359TIP3    H267493   0.940   6.068  11.428  0.0699 -0.6981  0.8593
15360TIP3   OH267494   2.944   3.477  14.150 -0.4267  0.2828  0.6166
15360TIP3    H167495   2.985   3.494  14.235 -1.0000  1.2767  0.7118
15360TIP3    H267496   2.864   3.529  14.151 -0.7864 -0.2283 -0.2730
15361TIP3   OH267497   1.418   6.162   4.967 -0.1439 -0.2142 -0.3313
15361TIP3    H167498   1.356   6.230   4.992 -0.3895 -0.9455  1.1432
15361TIP3    H267499   1.373   6.114   4.897  0.0414  1.0910 -1.4054
15362TIP3   OH267500   5.063   1.091  14.863 -0.7695  0.0085  0.1799
15362TIP3    H167501   5.005   1.165  14.849 -0.8143  0.0126  0.3862
15362TIP3    H267502   5.143   1.130  14.901 -1.6677 -0.2922  2.5820
15363TIP3   OH267503   1.152   6.102  16.662 -0.2366  0.3033  0.3880
15363TIP3    H167504   1.095   6.177  16.646  0.4988  0.6084 -0.9378
15363TIP3    H267505   1.152   6.054  16.578  0.6331 -0.2461  0.6916
15364TIP3   OH267506   2.284   3.663   6.057  1.1768 -0.2697 -0.1363
15364TIP3    H167507   2.274   3.742   6.005 -0.5896 -0.2309  0.1898
15364TIP3    H267508   2.286   3.591   5.994 -0.2007 -0.1685 -0.3104
15365TIP3   OH267509   4.066   2.261  14.827  0.1646  0.3246  0.0679
15365TIP3    H167510   4.032   2.174  14.805 -1.8220  1.1470 -0.3444
15365TIP3    H267511   4.119   2.286  14.751  0.7048 -0.4941  0.1674
15366TIP3   OH267512   0.100   3.638  16.240 -0.1508 -0.0538 -0.0609
15366TIP3    H167513   0.166   3.693  16.198  1.4628 -1.3350  0.7034
15366TIP3    H267514   0.060   3.695  16.306  0.2431  0.7037 -0.4583
15367TIP3   OH267515   2.129   4.654  12.713 -0.1635 -0.6343  0.2141
15367TIP3    H167516   2.220   4.631  12.732  0.2246  0.7497  0.1248
15367TIP3    H267517   2.088   4.570  12.692  0.7650 -1.4598  1.5113
15368TIP3   OH267518   0.756   4.175   1.193  0.8669 -0.4542 -0.4718
15368TIP3    H167519   0.733   4.267   1.208 -0.7924 -0.8756 -0.2331
15368TIP3    H267520   0.739   4.133   1.277  3.1520 -0.7478 -0.0825
15369TIP3   OH267521   2.417   1.026   4.841 -0.2095  0.6881 -0.2459
15369TIP3    H167522   2.401   1.104   4.893  1.3228 -0.5862  2.3106
15369TIP3    H267523   2.510   1.029   4.820 -0.3612  0.0724 -1.0677
15370TIP3   OH267524   1.045   0.637  12.946  0.7952  0.1485  0.3844
15370TIP3    H167525   0.973   0.670  12.893  0.6486  0.4141  0.7467
15370TIP3    H267526   1.089   0.715  12.980  0.7605 -0.0149  0.8229
15371TIP3   OH267527   0.444   3.841  12.902  0.0070 -0.1855 -0.2081
15371TIP3    H167528   0.379   3.830  12.832 -0.2506 -2.4439  0.3210
15371TIP3    H267529   0.393   3.872  12.976  0.0453  0.8078 -0.5755
15372TIP3   OH267530   1.760   4.801  15.288 -0.0138  0.3271  0.3633
15372TIP3    H167531   1.848   4.825  15.317 -0.1375  0.2172  0.8345
15372TIP3    H267532   1.721   4.756  15.363  0.4469 -1.9974 -0.7022
15373TIP3   OH267533   5.958   1.121   3.653 -0.0998 -0.2410  0.8776
15373TIP3    H167534   6.009   1.184   3.603 -0.0977 -0.5831  0.4429
15373TIP3    H267535   5.996   1.123   3.741  1.3074 -1.1840  0.3260
15374TIP3   OH267536   1.227   5.434  17.156  0.1525 -0.0209  0.2642
15374TIP3    H167537   1.261   5.523  17.164 -0.2969  0.3532 -1.5061
15374TIP3    H267538   1.139   5.445  17.119 -0.7013 -1.1272  1.8286
15375TIP3   OH267539   2.400   6.084   5.363  0.5283  0.1264  0.4926
15375TIP3    H167540   2.403   6.127   5.277 -2.4228 -0.0171  0.2220
15375TIP3    H267541   2.344   6.140   5.416  0.7301 -0.7911  1.7073
15376TIP3   OH267542   0.378   2.579   4.875  0.4417  0.0888  0.4618
15376TIP3    H167543   0.363   2.631   4.954 -1.4274  0.2139  0.0865
15376TIP3    H267544   0.292   2.576   4.833  1.6997  1.4696 -2.4665
15377TIP3   OH267545   5.901   6.225   2.908  0.0082  0.0856  0.0855
15377TIP3    H167546   5.984   6.190   2.940  0.1862 -0.0292 -0.4810
15377TIP3    H267547   5.838   6.205   2.976  0.2168 -0.8460  0.0107
15378TIP3   OH267548   0.187   3.312  12.767  0.1518  0.3484  0.2095
15378TIP3    H167549   0.265   3.303  12.823 -0.4513  0.3863  1.0769
15378TIP3    H267550   0.218   3.360  12.691  0.9265  0.5844  0.6567
15379TIP3   OH267551   5.149   0.115   3.480  0.1471  0.0689  0.2010
15379TIP3    H167552   5.118   0.174   3.548 -2.0806  0.1911 -0.8413
15379TIP3    H267553   5.220   0.163   3.437 -0.6744  1.3835  0.2749
15380TIP3   OH267554   4.915   1.571   3.086 -0.1385 -0.2573 -0.2458
15380TIP3    H167555   4.821   1.555   3.094  0.2140 -1.7927  1.8807
15380TIP3    H267556   4.946   1.501   3.029 -0.3532  0.6844 -1.5507
15381TIP3   OH267557   1.869   5.641  17.190  0.3674 -0.0377  0.7380
15381TIP3    H167558   1.793   5.694  17.163  0.7013  0.8657  1.5413
15381TIP3    H267559   1.944   5.698  17.176  0.8355 -0.6692  0.6585
15382TIP3   OH267560   2.283   0.714  12.857 -0.2113  0.0525 -0.1256
15382TIP3    H167561   2.347   0.759  12.802 -0.7249 -2.1155 -2.7057
15382TIP3    H267562   2.335   0.658  12.914  0.2787 -0.4792 -1.0705
15383TIP3   OH267563   6.740   3.435  12.509  0.1125 -0.1549  0.3766
15383TIP3    H167564   6.740   3.461  12.417 -0.7514 -1.8425 -0.1591
15383TIP3    H267565   6.794   3.500  12.553  2.1615 -0.3626 -1.6430
15384TIP3   OH267566   1.221   0.636  16.081 -0.6918 -0.2861  0.5385
15384TIP3    H167567   1.264   0.572  16.023 -0.4702 -0.0431  0.4320
15384TIP3    H267568   1.131   0.639  16.051 -0.2723  0.8456 -0.6883
15385TIP3   OH267569   1.753   6.608   0.280 -0.0704 -0.3245 -0.5536
15385TIP3    H167570   1.818   6.603   0.350  1.3079  0.0301 -1.7599
15385TIP3    H267571   1.699   6.684   0.303 -0.5271 -1.0355  0.8229
15386TIP3   OH267572   5.012   0.219   4.813  0.4610  0.4694 -1.0764
15386TIP3    H167573   4.958   0.172   4.750  2.7749 -1.0989 -2.0320
15386TIP3    H267574   4.981   0.189   4.899  0.8720 -1.7587 -1.6328
15387TIP3   OH267575   5.917   3.757  12.171 -0.6394  0.1758 -0.0732
15387TIP3    H167576   5.841   3.785  12.120  0.0870  1.8539 -0.2817
15387TIP3    H267577   5.989   3.753  12.108 -0.4678 -1.2149  0.1638
15388TIP3   OH267578   2.177   0.533   5.191 -0.3883 -0.4948 -0.5185
15388TIP3    H167579   2.232   0.610   5.177 -0.5255 -0.3855 -0.4642
15388TIP3    H267580   2.164   0.530   5.286 -0.3681 -0.5945 -0.5193
15389TIP3   OH267581   5.485   2.351   5.791 -0.2671 -0.0685 -0.4003
15389TIP3    H167582   5.465   2.296   5.714 -0.4556 -0.0089 -0.3933
15389TIP3    H267583   5.571   2.388   5.772  0.1107 -0.7935 -0.1682
15390TIP3   OH267584   0.029   2.118   3.998  0.2547  0.0178 -0.0288
15390TIP3    H167585   0.090   2.191   4.007  1.7402 -1.3552  1.9346
15390TIP3    H267586   0.066   2.064   3.928  0.6396 -0.1780  0.3188
15391TIP3   OH267587   4.137   3.276   4.692 -0.3592  0.4391 -0.0275
15391TIP3    H167588   4.220   3.229   4.693  0.2666  1.5052  0.0141
15391TIP3    H267589   4.152   3.350   4.633 -0.8260  1.4479  1.0830
15392TIP3   OH267590   6.442   5.193  13.409  0.4382  0.0332  0.1905
15392TIP3    H167591   6.377   5.206  13.479 -0.7511 -0.2954 -0.8303
15392TIP3    H267592   6.427   5.104  13.379  2.4268 -0.6136  0.9636
15393TIP3   OH267593   3.258   2.111   2.721  0.0842  0.2195 -0.1684
15393TIP3    H167594   3.315   2.158   2.660 -1.2971  3.2502  0.6222
15393TIP3    H267595   3.307   2.109   2.803  0.7077 -1.0433 -0.5600
15394TIP3   OH267596   3.173   6.291   0.269 -0.3751 -0.3542 -0.2989
15394TIP3    H167597   3.251   6.327   0.312 -0.7098 -0.9355  0.8318
15394TIP3    H267598   3.140   6.364   0.216  0.4252  0.1780 -0.1025
15395TIP3   OH267599   2.190   6.154   2.603 -1.4983 -0.4083  0.4833
15395TIP3    H167600   2.125   6.155   2.673 -0.1137 -0.1549  1.8294
15395TIP3    H267601   2.191   6.064   2.571 -0.5263 -1.1375  2.4301
15396TIP3   OH267602   3.724   5.311  16.827  0.4432  0.3315  0.1101
15396TIP3    H167603   3.773   5.241  16.783 -1.3697 -1.6423  1.0491
15396TIP3    H267604   3.736   5.387  16.771  2.6056 -0.6681 -0.9129
15397TIP3   OH267605   5.670   6.263  16.729  0.9206 -0.7171  0.6849
15397TIP3    H167606   5.732   6.193  16.712  1.1337 -0.0779 -1.4394
15397TIP3    H267607   5.668   6.314  16.648 -0.0929  1.0635  1.7612
15398TIP3   OH267608   4.752   5.480  12.233 -0.0596 -0.0183  0.2365
15398TIP3    H167609   4.670   5.434  12.215 -1.3375  0.9303  3.0668
15398TIP3    H267610   4.792   5.491  12.147  0.1010 -5.6916 -0.7754
15399TIP3   OH267611   0.430   4.982   4.627  0.1534 -0.6583 -0.0296
15399TIP3    H167612   0.469   4.927   4.696  1.4492  2.1056  1.6163
15399TIP3    H267613   0.336   4.968   4.635  0.2981 -0.6808  2.1322
15400TIP3   OH267614   3.840   6.146  12.139 -0.1026  0.3571 -0.3478
15400TIP3    H167615   3.810   6.083  12.206 -0.3301  0.7990 -0.0243
15400TIP3    H267616   3.900   6.203  12.186  1.0662 -0.3475 -0.9294
15401TIP3   OH267617   6.197   1.402  13.314  0.1273 -0.0830 -0.4289
15401TIP3    H167618   6.148   1.431  13.238 -0.9551  1.4571  0.7964
15401TIP3    H267619   6.289   1.416  13.290 -0.1022 -0.8348 -1.8821
15402TIP3   OH267620   2.661   4.490   4.941  0.2172  0.5829  0.4538
15402TIP3    H167621   2.751   4.472   4.912 -0.7327  0.2500 -2.5635
15402TIP3    H267622   2.639   4.573   4.901 -0.8765  0.6073  1.0790
15403TIP3   OH267623   2.477   1.761  10.203  0.1237 -0.1760 -0.5751
15403TIP3    H167624   2.516   1.763  10.291 -1.6187 -0.8887  0.2659
15403TIP3    H267625   2.551   1.751  10.144  1.2842 -0.5150  0.8712
15404TIP3   OH267626   4.837   2.619   3.522 -0.1729  0.5428  0.3779
15404TIP3    H167627   4.931   2.627   3.541  0.2849 -2.5976  0.0442
15404TIP3    H267628   4.796   2.610   3.608  0.4091 -1.9211  0.4784
15405TIP3   OH267629   6.733   0.253   1.858  0.1014  0.6098 -0.2706
15405TIP3    H167630   6.646   0.246   1.817  0.3439  0.3923 -0.7579
15405TIP3    H267631   6.787   0.294   1.791  0.5334  0.1584 -0.2042
15406TIP3   OH267632   1.184   4.397  17.128 -0.0871  0.1531  0.4829
15406TIP3    H167633   1.162   4.455  17.055 -3.7588  1.3378  2.3068
15406TIP3    H267634   1.160   4.309  17.097 -0.5167  0.4745 -0.1152
15407TIP3   OH267635   3.817   6.455   0.416 -0.4105  0.7176  0.3696
15407TIP3    H167636   3.740   6.456   0.360  1.0615  2.3924 -1.8020
15407TIP3    H267637   3.815   6.540   0.461  0.0884  0.7093  0.4136
15408TIP3   OH267638   0.419   2.693  12.882 -0.1362  0.6314  0.4384
15408TIP3    H167639   0.337   2.742  12.887 -0.7047 -0.2454 -0.0967
15408TIP3    H267640   0.462   2.726  12.803  0.4129  1.6573  1.1477
15409TIP3   OH267641   3.666   3.650   3.996 -0.2222 -0.3830 -0.0414
15409TIP3    H167642   3.613   3.610   3.927  0.6912 -1.5821 -0.1046
15409TIP3    H267643   3.658   3.744   3.982 -0.0204 -0.5933 -1.8412
15410TIP3   OH267644   4.859   1.544   2.817 -0.5810  0.1130 -0.2674
15410TIP3    H167645   4.839   1.455   2.789 -0.3696 -0.2629  0.7231
15410TIP3    H267646   4.813   1.554   2.900  1.0162  0.1928  0.6589
15411TIP3   OH267647   5.478   2.225   2.180  0.0071  0.2731 -0.6023
15411TIP3    H167648   5.540   2.237   2.108  1.2022  1.1853  0.5440
15411TIP3    H267649   5.532   2.213   2.258 -1.2529  0.1409  0.2972
15412TIP3   OH267650   2.301   6.366   4.650 -0.1302  0.0300 -0.0069
15412TIP3    H167651   2.298   6.425   4.726 -0.0859 -1.6570  1.3685
15412TIP3    H267652   2.361   6.296   4.676 -1.9414 -1.8682 -0.6041
15413TIP3   OH267653   4.795   2.863  10.664 -0.1593  0.0505  0.7663
15413TIP3    H167654   4.705   2.875  10.692  0.3996 -0.0165  2.8123
15413TIP3    H267655   4.792   2.792  10.601 -1.2941 -1.8127  2.7830
15414TIP3   OH267656   2.177   5.812   3.572 -0.0300  0.4498 -0.2376
15414TIP3    H167657   2.188   5.747   3.502 -1.6027 -0.2734  0.1395
15414TIP3    H267658   2.088   5.844   3.561  0.5349  2.1979 -0.0822
15415TIP3   OH267659   1.094   5.941   0.315 -0.3896 -0.2140  0.1974
15415TIP3    H167660   1.055   5.988   0.389 -1.4943  1.4401 -1.3895
15415TIP3    H267661   1.178   5.984   0.301 -0.7095  0.2641 -0.2631
15416TIP3   OH267662   1.726   5.160  15.307 -0.3481  0.6455  0.0131
15416TIP3    H167663   1.750   5.247  15.277  0.5505  1.1458  1.9971
15416TIP3    H267664   1.721   5.168  15.402  2.8963 -2.1063  0.6087
15417TIP3   OH267665   4.450   0.309  17.048 -0.0181  0.3698  0.7890
15417TIP3    H167666   4.378   0.371  17.037  0.1089  0.5274  0.8454
15417TIP3    H267667   4.410   0.233  17.090 -0.1944  0.3720  0.6263
15418TIP3   OH267668   5.739   1.022   4.913 -0.1383 -0.6340 -0.2743
15418TIP3    H167669   5.795   1.042   4.838  0.7302  4.8910  1.3864
15418TIP3    H267670   5.661   1.077   4.900 -1.4378 -1.9700  1.3785
15419TIP3   OH267671   2.095   3.900  14.857 -0.4735  0.4086  0.1184
15419TIP3    H167672   2.100   3.990  14.824  1.7903  0.4137  0.3083
15419TIP3    H267673   2.164   3.853  14.809 -0.4834 -0.8022  1.2290
15420TIP3   OH267674   2.982   3.661   5.268  0.2490  0.1067 -0.2679
15420TIP3    H167675   2.890   3.639   5.251  0.5902 -1.4159 -0.3200
15420TIP3    H267676   3.000   3.622   5.354  1.0874 -0.4136 -0.6688
15421TIP3   OH267677   4.943   3.083  16.841  0.4444  0.5570 -0.0025
15421TIP3    H167678   5.009   3.063  16.775 -0.2131 -0.2984 -0.4222
15421TIP3    H267679   4.860   3.073  16.795 -0.0165  0.2144  0.8901
15422TIP3   OH267680   1.804   1.580   0.153 -0.1658  0.0880 -0.1087
15422TIP3    H167681   1.832   1.520   0.084 -0.1393  0.2727 -0.2582
15422TIP3    H267682   1.753   1.647   0.107 -0.4107  0.0389  0.0918
15423TIP3   OH267683   5.043   6.273  15.083 -0.2203 -0.0551  0.0710
15423TIP3    H167684   5.015   6.356  15.044  0.0010 -0.1799 -0.3588
15423TIP3    H267685   5.071   6.297  15.171  0.0276  0.3598 -0.1172
15424TIP3   OH267686   6.707   3.322  15.962  0.0786 -0.0661 -0.3096
15424TIP3    H167687   6.720   3.372  16.042  2.5870  1.3892 -1.4883
15424TIP3    H267688   6.739   3.234  15.983  2.9009  0.8742 -0.2137
15425TIP3   OH267689   5.549   2.526  11.736 -0.1824 -0.0025 -0.2276
15425TIP3    H167690   5.583   2.445  11.775 -0.7263 -0.5597 -0.9138
15425TIP3    H267691   5.459   2.506  11.712 -0.4177  0.9029 -0.1399
15426TIP3   OH267692   2.362   3.461  14.620  0.2166  0.2253  0.4699
15426TIP3    H167693   2.280   3.417  14.641  0.5715  0.5720  3.0367
15426TIP3    H267694   2.412   3.396  14.570 -1.0096 -0.5603  0.2198
15427TIP3   OH267695   4.553   1.719   0.285  0.2623 -0.2102 -0.0494
15427TIP3    H167696   4.588   1.635   0.314 -1.6273 -0.4601  1.6791
15427TIP3    H267697   4.525   1.704   0.194  1.7858 -0.8198 -0.4470
15428TIP3   OH267698   2.132   4.385  17.343 -0.3773 -0.5170 -0.2630
15428TIP3    H167699   2.150   4.291  17.341  1.9378 -0.1119 -2.2226
15428TIP3    H267700   2.069   4.395  17.414 -0.9277 -3.5701 -0.1662
15429TIP3   OH267701   4.987   5.122  11.470  0.7752  0.6340  0.1186
15429TIP3    H167702   5.071   5.168  11.462  0.7547  0.5180 -0.8349
15429TIP3    H267703   4.953   5.118  11.381  0.0947  0.0310  0.3950
15430TIP3   OH267704   0.786   1.472  16.654  0.5282  0.5369  0.2442
15430TIP3    H167705   0.801   1.513  16.569 -1.5669  0.0254 -0.4528
15430TIP3    H267706   0.873   1.457  16.690  1.4425  1.5340 -1.4365
15431TIP3   OH267707   6.417   6.766  13.950  0.2647  0.2255  0.3781
15431TIP3    H167708   6.402   6.747  13.857  1.7601 -0.8048  0.3187
15431TIP3    H267709   6.465   6.691  13.983  1.5313  1.4713  1.5051
15432TIP3   OH267710   4.419   6.666   0.677 -0.0725  0.4407 -0.6255
15432TIP3    H167711   4.510   6.639   0.660  0.0259  1.2782 -1.5512
15432TIP3    H267712   4.384   6.598   0.734  1.4883  0.7093  0.7244
15433TIP3   OH267713   0.985   0.773  14.028  0.5187 -0.3933 -0.1959
15433TIP3    H167714   0.986   0.692  14.079 -1.5514  0.0063  0.5738
15433TIP3    H267715   1.000   0.745  13.938  1.5616 -1.4139  0.2734
15434TIP3   OH267716   3.053   4.798  16.294  0.2697 -0.1667  0.4881
15434TIP3    H167717   3.117   4.730  16.312  1.1448  0.6116  0.3789
15434TIP3    H267718   3.104   4.871  16.258 -0.8319 -0.0051 -0.8467
15435TIP3   OH267719   2.690   1.601   2.914 -0.7001  0.5335 -0.0361
15435TIP3    H167720   2.739   1.663   2.861 -0.7415  1.5896  1.1108
15435TIP3    H267721   2.725   1.612   3.003 -1.6377 -0.1179  0.4347
15436TIP3   OH267722   0.301   2.241  16.141  0.1349 -0.1687  0.1644
15436TIP3    H167723   0.223   2.286  16.174 -0.5191 -1.0248 -0.1653
15436TIP3    H267724   0.317   2.281  16.055 -0.5345 -0.6511 -0.1934
15437TIP3   OH267725   4.892   0.466  14.464 -0.3708  0.7191  0.1255
15437TIP3    H167726   4.820   0.513  14.422 -0.8569  0.1429  0.2987
15437TIP3    H267727   4.907   0.513  14.546  0.0006  1.3268 -0.2833
15438TIP3   OH267728   5.216   1.516  12.373 -0.4168 -0.5914  0.1347
15438TIP3    H167729   5.224   1.472  12.288 -1.9397 -0.0009 -0.3500
15438TIP3    H267730   5.143   1.470  12.416 -2.3969  1.6738 -0.5938
15439TIP3   OH267731   6.432   2.534   1.145 -0.1246  0.5758 -0.0797
15439TIP3    H167732   6.493   2.589   1.096  0.6049 -0.9663 -0.9688
15439TIP3    H267733   6.486   2.488   1.210 -0.3298 -0.6613 -0.7469
15440TIP3   OH267734   1.167   2.163  16.736 -0.3417 -0.2322  0.0631
15440TIP3    H167735   1.140   2.251  16.709  1.0612 -0.1913 -1.3828
15440TIP3    H267736   1.099   2.105  16.703 -0.1990  0.1242 -0.8774
15441TIP3   OH267737   2.630   3.168   0.310  0.1012  0.0485 -0.1785
15441TIP3    H167738   2.579   3.089   0.292 -1.6413  1.2371 -0.6733
15441TIP3    H267739   2.720   3.144   0.286 -0.3023 -1.9033  0.1194
15442TIP3   OH267740   0.067   0.378  15.744  0.1550 -0.6476  0.3511
15442TIP3    H167741   0.050   0.444  15.812  0.1250  0.1950 -0.4516
15442TIP3    H267742  -0.015   0.328  15.738  0.3473 -1.0969  1.3158
15443TIP3   OH267743   1.248   6.280   1.334 -0.4286  0.5129  0.2633
15443TIP3    H167744   1.259   6.269   1.428 -1.3073 -2.7925  0.1222
15443TIP3    H267745   1.334   6.307   1.302 -0.0227  1.3040  1.9542
15444TIP3   OH267746   1.295   1.890  15.264 -0.4869  0.0290  0.7593
15444TIP3    H167747   1.244   1.908  15.185 -0.8763  0.2426  1.0581
15444TIP3    H267748   1.386   1.910  15.240  0.0565 -3.6040 -0.9023
15445TIP3   OH267749   1.830   2.248  10.676 -0.1853  0.3974  0.0018
15445TIP3    H167750   1.854   2.197  10.599 -0.9594  1.3298 -0.8757
15445TIP3    H267751   1.895   2.318  10.680 -0.3367  0.5395  0.0002
15446TIP3   OH267752   4.806   1.720  15.133  0.5823 -0.0459 -0.0465
15446TIP3    H167753   4.723   1.685  15.164 -0.5882  0.8137 -2.0549
15446TIP3    H267754   4.818   1.801  15.184  0.9637 -0.8970  1.2687
15447TIP3   OH267755   1.542   3.247   5.890 -0.2656  0.0470 -0.5475
15447TIP3    H167756   1.455   3.288   5.893  0.1779  0.9652  1.2358
15447TIP3    H267757   1.598   3.306   5.940  0.9880 -1.4386 -0.1208
15448TIP3   OH267758   6.077   5.601   1.561  0.4282 -0.2281 -1.2407
15448TIP3    H167759   6.063   5.686   1.602  1.3669 -0.7855  0.3169
15448TIP3    H267760   6.085   5.540   1.635 -1.5300 -1.9058 -2.3163
15449TIP3   OH267761   6.313   1.393   3.989 -0.3561  0.0335 -1.0549
15449TIP3    H167762   6.339   1.317   4.040 -2.1858 -1.0229 -1.6246
15449TIP3    H267763   6.307   1.362   3.899 -0.4744  1.0293 -1.4126
15450TIP3   OH267764   1.594   5.838   3.023 -0.5526  0.4108  0.3044
15450TIP3    H167765   1.541   5.760   3.014 -1.3741  0.8533  1.1688
15450TIP3    H267766   1.535   5.910   2.999  0.1084  0.7928 -0.2097
15451TIP3   OH267767   5.988   2.733   1.633 -0.0299 -0.8256 -0.3237
15451TIP3    H167768   6.041   2.757   1.557  0.3827  0.6980  0.4071
15451TIP3    H267769   5.935   2.660   1.603 -0.2362  0.0515 -2.2411
15452TIP3   OH267770   5.120   5.705  11.093 -0.1288  0.0510  0.3416
15452TIP3    H167771   5.034   5.743  11.075 -0.0973 -0.0366  0.0112
15452TIP3    H267772   5.177   5.742  11.026 -0.3170 -1.3915 -0.6644
15453TIP3   OH267773   6.323   4.122  15.225  0.1839 -0.1352 -0.0363
15453TIP3    H167774   6.315   4.198  15.283 -2.4981 -0.1457 -0.2483
15453TIP3    H267775   6.261   4.139  15.154  0.2874 -2.0360 -0.6512
15454TIP3   OH267776   2.001   5.597  15.836 -0.8735 -0.4943 -0.1767
15454TIP3    H167777   1.992   5.668  15.772  0.6014  0.8773  1.0354
15454TIP3    H267778   2.038   5.524  15.786 -2.3057 -0.4037 -1.4272
15455TIP3   OH267779   3.070   1.709   5.857 -0.4122  0.7598  0.0824
15455TIP3    H167780   3.110   1.625   5.881  0.8362  1.4192  0.3804
15455TIP3    H267781   3.003   1.686   5.793  1.3818 -0.2723 -1.5032
15456TIP3   OH267782   4.436   6.066  11.703 -0.1403  0.2238 -0.1155
15456TIP3    H167783   4.362   6.039  11.757  0.0398 -0.9984 -0.4363
15456TIP3    H267784   4.397   6.099  11.622 -0.3491 -0.0468 -0.1257
15457TIP3   OH267785   2.406   5.664  16.638 -0.1420  0.2769  0.1459
15457TIP3    H167786   2.438   5.585  16.681  0.4141  0.3691 -0.0868
15457TIP3    H267787   2.343   5.633  16.573  0.2003  0.0107 -0.0623
15458TIP3   OH267788   2.847   4.290   0.643 -0.0600 -0.3701 -0.2835
15458TIP3    H167789   2.934   4.297   0.681 -0.0607  0.5718 -0.4466
15458TIP3    H267790   2.790   4.269   0.718  0.2698 -0.8041 -0.1499
15459TIP3   OH267791   1.588   0.648  16.878 -0.9807 -0.2803 -0.2685
15459TIP3    H167792   1.542   0.722  16.917  1.0554  1.8249 -1.6229
15459TIP3    H267793   1.533   0.621  16.804 -1.1191  0.7216 -0.5366
15460TIP3   OH267794   0.661   1.057  14.083 -0.2754  0.3640 -0.1701
15460TIP3    H167795   0.747   1.097  14.069 -0.0834 -0.1108 -0.3598
15460TIP3    H267796   0.601   1.131  14.084  0.0763  0.6650 -0.5229
15461TIP3   OH267797   4.222   1.322   5.672 -0.1345 -0.5571  0.4175
15461TIP3    H167798   4.225   1.279   5.758 -0.4378  0.5296  0.9920
15461TIP3    H267799   4.304   1.372   5.667 -0.0278 -0.7721 -0.0103
15462TIP3   OH267800   4.368   1.173   4.345  0.3533 -0.5464 -0.0292
15462TIP3    H167801   4.447   1.225   4.329 -1.4251  2.2252 -0.4639
15462TIP3    H267802   4.371   1.153   4.438  0.3640  1.8721  0.5745
15463TIP3   OH267803   2.927   2.433  16.005  0.2105  0.0472  0.0175
15463TIP3    H167804   3.007   2.476  16.037  0.0131  1.1004 -0.8451
15463TIP3    H267805   2.916   2.467  15.916 -1.7111  0.6600  0.4409
15464TIP3   OH267806   1.671   2.411  13.426  0.0425 -0.5843  0.3202
15464TIP3    H167807   1.743   2.474  13.418  0.5110 -1.0213  1.0459
15464TIP3    H267808   1.706   2.330  13.390  0.6018 -1.3262  2.4092
15465TIP3   OH267809   5.035   5.762  12.232  0.3507  0.0249  1.0659
15465TIP3    H167810   5.090   5.723  12.164  0.0192  0.3278  0.6201
15465TIP3    H267811   5.050   5.707  12.309  0.9566 -0.1447  0.8365
15466TIP3   OH267812   3.973   3.990  15.583  0.1268 -0.0397 -0.0222
15466TIP3    H167813   4.048   4.018  15.532 -0.2685  0.8943 -0.1192
15466TIP3    H267814   3.911   4.063  15.577  0.0833  0.1344  1.8086
15467TIP3   OH267815   2.432   3.889   5.057  0.1756  0.0224 -0.1277
15467TIP3    H167816   2.415   3.832   5.132  0.8940  0.3280  0.2757
15467TIP3    H267817   2.362   3.954   5.060 -0.4535 -0.6352 -0.3945
15468TIP3   OH267818   4.220   4.824   4.724 -0.6346  0.8857  0.3991
15468TIP3    H167819   4.186   4.848   4.638  0.5322  0.2839 -0.2572
15468TIP3    H267820   4.288   4.759   4.705 -2.4604 -1.6119  1.9699
15469TIP3   OH267821   6.167   4.434  16.779  0.2587 -0.0312  0.0796
15469TIP3    H167822   6.203   4.522  16.783 -0.3786  0.2478 -0.2388
15469TIP3    H267823   6.073   4.446  16.767 -0.4863 -0.6783  3.9593
15470TIP3   OH267824   3.550   3.158   1.008 -0.0311  0.3901 -0.4060
15470TIP3    H167825   3.599   3.238   1.027  0.4230 -0.1831  0.9639
15470TIP3    H267826   3.571   3.139   0.916  1.0861  1.0082 -0.3021
15471TIP3   OH267827   3.958   2.823   4.918 -0.3361  0.3450 -0.5122
15471TIP3    H167828   4.045   2.863   4.917 -0.9969  1.8709  0.2915
15471TIP3    H267829   3.955   2.774   5.000 -0.7313  1.5037  0.1878
15472TIP3   OH267830   4.060   6.286  12.839 -0.2648  0.7398 -0.7401
15472TIP3    H167831   4.020   6.212  12.793 -1.3647 -0.4445  1.8909
15472TIP3    H267832   4.152   6.262  12.847 -0.5178 -0.1393 -0.3280
15473TIP3   OH267833   5.484   0.496  14.304  0.1775 -0.3626 -0.3526
15473TIP3    H167834   5.460   0.410  14.269 -0.8444 -1.5619  2.8832
15473TIP3    H267835   5.416   0.514  14.369  1.4043  2.0684  0.3554
15474TIP3   OH267836   2.380   4.019   3.446 -0.3614  0.1701 -0.2813
15474TIP3    H167837   2.296   4.059   3.468  0.0664  0.3034  1.2774
15474TIP3    H267838   2.410   4.066   3.368 -1.4568  0.5076 -0.5110
15475TIP3   OH267839   0.241   5.290  12.503 -0.3407 -0.6993 -0.2350
15475TIP3    H167840   0.329   5.308  12.470 -1.2930  2.2462 -1.6066
15475TIP3    H267841   0.205   5.227  12.441  0.7763 -1.9936  0.3866
15476TIP3   OH267842   2.789   2.581  13.044  0.3694 -0.3415  0.2401
15476TIP3    H167843   2.760   2.494  13.016 -1.0916  0.4840 -0.9537
15476TIP3    H267844   2.799   2.630  12.963 -0.6683  1.1376  0.9655
15477TIP3   OH267845   5.275   1.531  11.125 -0.4229  0.1669  0.0121
15477TIP3    H167846   5.186   1.501  11.112  0.5531 -2.3808 -1.5314
15477TIP3    H267847   5.324   1.494  11.051  2.0748  0.7636  1.2603
15478TIP3   OH267848   0.002   0.926  16.274 -0.1008 -0.3813 -0.2913
15478TIP3    H167849  -0.038   1.013  16.277  0.7673  0.0842 -1.4660
15478TIP3    H267850   0.045   0.917  16.359 -0.7361  0.0588  0.0902
15479TIP3   OH267851   1.642   0.032   0.447 -0.1681 -0.1334 -0.8677
15479TIP3    H167852   1.725   0.060   0.483  0.3352 -0.7542 -1.4984
15479TIP3    H267853   1.593  -0.003   0.521  0.8471 -1.3960 -0.7631
15480TIP3   OH267854   2.494   2.250  14.860 -0.1572 -0.0868 -0.1151
15480TIP3    H167855   2.440   2.178  14.826 -0.3328 -0.1894  0.3705
15480TIP3    H267856   2.501   2.311  14.788 -1.5109  0.2626  0.0283
15481TIP3   OH267857   5.816   1.379  15.518 -0.0615  0.2239 -0.1092
15481TIP3    H167858   5.904   1.362  15.485  1.0919  2.8517  1.2603
15481TIP3    H267859   5.776   1.436  15.453 -1.0743 -1.5031 -1.0607
15482TIP3   OH267860   4.371   4.907  12.899 -0.4672 -0.5093 -0.2006
15482TIP3    H167861   4.359   4.849  12.975  1.9508 -0.0272  0.6595
15482TIP3    H267862   4.350   4.994  12.932 -1.1887 -0.5163 -0.6303
15483TIP3   OH267863   2.575   0.805  13.307  0.2239 -0.2754  0.1974
15483TIP3    H167864   2.518   0.880  13.322 -1.1186 -0.8906 -1.5606
15483TIP3    H267865   2.544   0.738  13.368 -1.3697 -0.7964 -1.1188
15484TIP3   OH267866   3.720   1.460   3.220 -0.7251 -0.0784  0.2533
15484TIP3    H167867   3.777   1.498   3.152  0.6691  0.0114  1.4131
15484TIP3    H267868   3.659   1.404   3.172  0.8661 -0.8174 -1.0067
15485TIP3   OH267869   1.170   0.016   4.820 -0.1835  0.0796  0.3311
15485TIP3    H167870   1.265   0.021   4.831 -0.2963  0.1899  1.3282
15485TIP3    H267871   1.135   0.050   4.902 -1.0883 -2.9937  1.3433
15486TIP3   OH267872   1.351   1.726  15.972  0.7037 -0.3738  0.3653
15486TIP3    H167873   1.351   1.672  15.893 -0.2040  2.3216 -1.6699
15486TIP3    H267874   1.258   1.735  15.995  0.8100  0.4276  0.5298
15487TIP3   OH267875   1.536   1.148   5.750  0.4323  0.5220  0.4815
15487TIP3    H167876   1.454   1.150   5.801  0.0882 -0.3968 -0.0168
15487TIP3    H267877   1.522   1.211   5.680  0.1511  0.3797  0.4072
15488TIP3   OH267878   1.874   2.409   1.049 -0.1908  0.5338 -0.6315
15488TIP3    H167879   1.794   2.440   1.007 -1.4602 -1.0418  0.5077
15488TIP3    H267880   1.916   2.488   1.082 -0.7880  1.4779 -2.0742
15489TIP3   OH267881   6.388   5.916   0.904 -0.3627 -0.2179 -0.1093
15489TIP3    H167882   6.468   5.961   0.878  0.5455 -0.3118  2.2708
15489TIP3    H267883   6.320   5.984   0.902  0.6935  0.9916  1.9989
15490TIP3   OH267884   1.817   1.019   0.889  0.1392  0.2208  0.0605
15490TIP3    H167885   1.790   0.929   0.905 -0.0121  0.1544 -0.5686
15490TIP3    H267886   1.827   1.056   0.977  1.3321 -0.7273  0.3539
15491TIP3   OH267887   3.847   4.508   4.680  0.5160  0.2888  0.7857
15491TIP3    H167888   3.842   4.575   4.748 -1.8228  0.1626  0.8058
15491TIP3    H267889   3.892   4.551   4.607 -0.1528  1.6075  1.1179
15492TIP3   OH267890   5.384   0.489   3.498 -0.1399 -0.2645  0.7705
15492TIP3    H167891   5.393   0.402   3.458  0.5347  0.0293  0.2590
15492TIP3    H267892   5.290   0.499   3.513 -0.1937 -1.2076  1.1224
15493TIP3   OH267893   0.604   0.338  12.345  0.2852 -0.2682 -0.5942
15493TIP3    H167894   0.690   0.353  12.384  0.0281 -1.3896  0.4669
15493TIP3    H267895   0.560   0.423  12.349  1.1636  0.2009 -0.7211
15494TIP3   OH267896   4.567   4.435  17.098 -0.2257 -0.8240 -0.1032
15494TIP3    H167897   4.598   4.461  17.011 -1.9661 -1.3861 -0.9568
15494TIP3    H267898   4.533   4.346  17.085  1.0935 -1.6408  1.5898
15495TIP3   OH267899   6.248   3.752  12.190  0.2861  0.4254 -0.4257
15495TIP3    H167900   6.301   3.741  12.268 -0.6505  1.5587  0.4133
15495TIP3    H267901   6.264   3.842  12.162  1.4078 -0.2637 -2.1859
15496TIP3   OH267902   6.478   3.522  15.948 -0.5488 -0.7501 -0.1110
15496TIP3    H167903   6.555   3.576  15.933 -0.6205 -0.6689 -0.1896
15496TIP3    H267904   6.427   3.570  16.013 -0.7673 -0.5655 -0.4166
15497TIP3   OH267905   5.552   2.373  13.060 -0.2544 -0.1542  0.2458
15497TIP3    H167906   5.515   2.396  13.146  0.5362  2.6652 -0.0629
15497TIP3    H267907   5.487   2.405  12.998  0.2175 -0.1062 -0.2243
15498TIP3   OH267908   2.948   2.458   1.974 -0.1369  0.2037 -0.6468
15498TIP3    H167909   2.961   2.548   1.943  0.5693  1.1892  2.2148
15498TIP3    H267910   2.857   2.456   2.004  0.4277  0.6684  1.2099
15499TIP3   OH267911   2.024   4.262  16.038  0.5297 -0.1297 -0.0649
15499TIP3    H167912   1.958   4.263  15.969  1.3062  0.4932 -0.8086
15499TIP3    H267913   2.001   4.335  16.095  0.9046  0.4650 -0.6574
15500TIP3   OH267914   3.920   2.668  12.085 -0.1798  0.3383  0.2536
15500TIP3    H167915   4.015   2.679  12.084 -0.0436 -0.6523 -1.8748
15500TIP3    H267916   3.902   2.609  12.012 -2.3117 -0.6692  1.5171
15501TIP3   OH267917   5.927   2.098   3.377  0.0058  0.6715  0.1681
15501TIP3    H167918   5.958   2.018   3.420  0.0250 -0.0761 -1.1896
15501TIP3    H267919   5.878   2.144   3.445 -0.2761 -0.6539  0.8986
15502TIP3   OH267920   1.095   2.198  17.088 -0.6714 -0.9825  0.3750
15502TIP3    H167921   1.073   2.264  17.154  0.3392  1.2799 -1.4190
15502TIP3    H267922   1.185   2.172  17.109  0.1236  0.6911 -0.7707
15503TIP3   OH267923   1.435   0.390   4.768  0.5605 -0.3484 -0.5874
15503TIP3    H167924   1.443   0.450   4.694  0.6651 -0.7980 -0.9404
15503TIP3    H267925   1.516   0.339   4.768  1.6353  1.1980  1.2316
15504TIP3   OH267926   1.876   2.599  13.401  0.6300 -0.0039 -0.2823
15504TIP3    H167927   1.831   2.617  13.318  0.8648 -2.1279 -0.9448
15504TIP3    H267928   1.966   2.628  13.386  0.8207 -0.9116 -1.0264
15505TIP3   OH267929   2.393   6.572  15.696 -0.3242  0.1986 -0.2258
15505TIP3    H167930   2.352   6.499  15.744 -1.8326  1.4222  0.4436
15505TIP3    H267931   2.428   6.628  15.765  2.4582 -0.7171 -0.7810
15506TIP3   OH267932   0.845   4.002  16.227 -0.6227 -0.0347 -0.3252
15506TIP3    H167933   0.840   3.926  16.285 -0.9242 -0.5608 -1.0233
15506TIP3    H267934   0.838   3.965  16.139 -1.9587  0.9003 -0.6344
15507TIP3   OH267935   1.827   0.468  16.269 -0.0424  0.6981 -0.3696
15507TIP3    H167936   1.904   0.504  16.312  0.9957 -0.2761 -1.3412
15507TIP3    H267937   1.762   0.458  16.338  1.5007 -0.6543  0.9395
15508TIP3   OH267938   4.060   4.351  15.080  0.0713 -0.3993 -0.0003
15508TIP3    H167939   4.099   4.399  15.007 -0.2284 -1.1561 -0.6663
15508TIP3    H267940   3.969   4.380  15.082 -1.1349 -3.4408 -2.6779
15509TIP3   OH267941   3.750   5.641   1.515 -0.3297 -0.0236  0.4326
15509TIP3    H167942   3.825   5.678   1.467 -1.7517 -0.1495 -2.0474
15509TIP3    H267943   3.708   5.717   1.556  0.6473  0.1532  1.1401
15510TIP3   OH267944   0.599   2.006   5.471 -0.3421  0.1368  0.0001
15510TIP3    H167945   0.560   1.946   5.406  2.1468 -1.3185 -0.2862
15510TIP3    H267946   0.646   1.949   5.531  0.4884  1.6978  0.8984
15511TIP3   OH267947   1.408   4.927  16.720 -0.2509 -0.0655  0.4774
15511TIP3    H167948   1.471   4.999  16.716  1.2570 -1.2122  2.2813
15511TIP3    H267949   1.327   4.967  16.750  0.4055  0.9712  0.8990
15512TIP3   OH267950   4.021   0.972   5.781  0.2062  0.5475 -0.9168
15512TIP3    H167951   4.106   0.957   5.823  0.2221 -3.1272 -1.9687
15512TIP3    H267952   3.986   1.049   5.827  3.5946  1.5913  0.2429
15513TIP3   OH267953   2.210   0.007   5.448 -0.2411  0.3341  0.1218
15513TIP3    H167954   2.142  -0.059   5.453  0.1842 -0.2274 -1.1543
15513TIP3    H267955   2.174   0.076   5.392 -0.2783  0.6886  0.5742
15514TIP3   OH267956   2.346   6.522  11.315 -0.2714  0.5626 -0.1190
15514TIP3    H167957   2.300   6.440  11.298  1.4121 -0.5156  0.2541
15514TIP3    H267958   2.326   6.543  11.406  0.0843  0.0073  0.0929
15515TIP3   OH267959   2.041   3.474  16.775 -0.3603 -0.2250  0.2207
15515TIP3    H167960   1.968   3.470  16.837 -1.0921  1.1280 -0.5057
15515TIP3    H267961   2.000   3.495  16.691  0.8843  1.0379 -0.1163
15516TIP3   OH267962   1.703   6.436   2.063 -0.4906 -0.6402 -0.0926
15516TIP3    H167963   1.749   6.517   2.084  0.1564 -1.1549  0.5152
15516TIP3    H267964   1.768   6.383   2.018 -1.1783 -0.4798 -1.3300
15517TIP3   OH267965   6.569   5.531  13.600  0.2406 -0.2970  0.2209
15517TIP3    H167966   6.476   5.515  13.584  0.0107  0.6170  0.5989
15517TIP3    H267967   6.582   5.622  13.572  1.0215 -0.4198  0.1784
15518TIP3   OH267968   2.292   0.938  17.317  0.6389 -0.0055 -0.7176
15518TIP3    H167969   2.240   0.992  17.378 -0.6693 -0.8068 -1.0866
15518TIP3    H267970   2.364   0.996  17.290  0.4545  0.8418  0.4885
15519TIP3   OH267971   1.656   6.055  14.972 -0.1405  0.0601  0.0493
15519TIP3    H167972   1.609   6.114  15.031 -4.6951 -2.1330 -0.9546
15519TIP3    H267973   1.684   6.112  14.899 -0.5073  1.6585  1.1029
15520TIP3   OH267974   1.979   5.650   0.326 -0.3221 -0.0933 -0.3076
15520TIP3    H167975   2.040   5.626   0.256 -0.4742 -2.5793  0.3012
15520TIP3    H267976   2.001   5.590   0.398 -1.3933  1.1298  1.0884
15521TIP3   OH267977   1.568   4.838   4.212  0.2293 -0.6488  0.3114
15521TIP3    H167978   1.624   4.809   4.140  0.4683  0.2210  0.1310
15521TIP3    H267979   1.505   4.897   4.171 -0.3264 -1.0086  0.6395
15522TIP3   OH267980   2.529   2.022   3.755 -0.4235  0.0918 -0.8713
15522TIP3    H167981   2.513   1.977   3.671  3.3911 -0.0318 -1.7191
15522TIP3    H267982   2.617   1.994   3.780 -0.0775  2.8644  1.4366
15523TIP3   OH267983   6.453   1.558  12.392 -0.3947  1.0721 -0.5969
15523TIP3    H167984   6.368   1.602  12.388 -1.7501 -1.2531  0.0184
15523TIP3    H267985   6.458   1.508  12.311 -0.3152  0.0738  0.0063
15524TIP3   OH267986   0.375   4.442   1.286 -0.1125  0.2134 -0.0218
15524TIP3    H167987   0.335   4.358   1.307  1.8009 -0.0420  3.3601
15524TIP3    H267988   0.461   4.419   1.252  0.2743  0.7605  0.5621
15525TIP3   OH267989   1.709   3.090   6.119 -0.0952  0.1348 -0.7546
15525TIP3    H167990   1.694   3.128   6.205 -0.9300  0.2134 -0.9264
15525TIP3    H267991   1.622   3.062   6.089  0.4962 -2.2052 -0.5146
15526TIP3   OH267992   3.943   4.703  13.984  0.0483  0.0391  0.0961
15526TIP3    H167993   3.999   4.680  13.910 -1.1853 -1.6569 -0.3652
15526TIP3    H267994   3.933   4.798  13.978  3.1530  0.4975  0.4425
15527TIP3   OH267995   1.406   2.557  15.574 -0.2668  0.1702 -0.6561
15527TIP3    H167996   1.428   2.512  15.656 -0.7377  0.0097 -0.6206
15527TIP3    H267997   1.318   2.528  15.553 -0.4768  0.8691 -0.7715
15528TIP3   OH267998   1.779   2.325   1.555 -0.3871 -0.4593  0.1032
15528TIP3    H167999   1.801   2.248   1.503  0.4134  0.6334 -1.2395
15528TIP3    H268000   1.861   2.349   1.599 -1.0338 -1.3264  1.8769
15529TIP3   OH268001   5.121   5.447   0.038 -0.2752 -0.1758  0.3401
15529TIP3    H168002   5.186   5.377   0.049  0.8403  0.7708 -0.0184
15529TIP3    H268003   5.143   5.511   0.107 -0.6437  0.2847  0.0344
15530TIP3   OH268004   4.169   2.234  14.311 -0.4727  0.5397  0.0238
15530TIP3    H168005   4.240   2.230  14.248  2.7849  1.1105  3.3310
15530TIP3    H268006   4.128   2.319  14.297 -0.1838  0.4376 -1.5741
15531TIP3   OH268007   4.683   2.664   1.123  0.3990 -0.0710  0.5928
15531TIP3    H168008   4.686   2.701   1.035  2.3903 -0.4880  0.4402
15531TIP3    H268009   4.595   2.625   1.130 -0.1436  0.8346 -0.8197
15532TIP3   OH268010   5.198   5.040   3.388 -0.3758 -0.0822  0.1423
15532TIP3    H168011   5.270   5.076   3.438  0.6931  0.1664 -1.4993
15532TIP3    H268012   5.160   4.973   3.444 -0.4714  1.4662  2.0230
15533TIP3   OH268013   3.866   2.756  12.514  0.4908 -0.0320  0.2457
15533TIP3    H168014   3.810   2.801  12.452 -1.8940  0.4193  2.5336
15533TIP3    H268015   3.859   2.663  12.490  1.3978  0.2902 -1.4170
15534TIP3   OH268016   2.968   0.861   3.405  0.8460  0.5254 -0.9026
15534TIP3    H168017   2.877   0.891   3.411  1.1380  1.3724 -0.5005
15534TIP3    H268018   3.017   0.922   3.461  1.3098 -1.4729  1.0218
15535TIP3   OH268019   4.570   0.812  16.005  0.8412  0.2685 -0.4476
15535TIP3    H168020   4.616   0.869  15.943  1.6269  1.1607  0.8990
15535TIP3    H268021   4.633   0.797  16.075 -0.1730 -0.3270  0.3573
15536TIP3   OH268022   1.211   0.897   2.806  0.0578  0.0133 -0.4926
15536TIP3    H168023   1.166   0.947   2.738  3.3143  1.6408 -1.6356
15536TIP3    H268024   1.289   0.863   2.763  0.8548 -1.2564  1.7808
15537TIP3   OH268025   0.900   5.527   3.966  0.6063 -0.3511  0.2932
15537TIP3    H168026   0.847   5.594   4.010  0.2484  0.1094 -0.8134
15537TIP3    H268027   0.975   5.575   3.930  1.6761 -0.9542  1.6181
15538TIP3   OH268028   2.362   0.291   0.391 -0.1638  0.0083  0.0826
15538TIP3    H168029   2.273   0.310   0.362 -0.2841 -0.8177 -0.1129
15538TIP3    H268030   2.400   0.241   0.319 -0.4219 -1.9874  1.2683
15539TIP3   OH268031   4.267   2.348   6.111 -0.1710  0.4621 -0.0191
15539TIP3    H168032   4.236   2.381   6.195 -0.2794 -1.9617  0.9826
15539TIP3    H268033   4.360   2.329   6.125  0.2945  1.7780 -1.0739
15540TIP3   OH268034   5.111   1.444   2.784 -0.0660 -0.1439 -0.1308
15540TIP3    H168035   5.043   1.511   2.779 -0.4599 -0.6546 -2.8181
15540TIP3    H268036   5.182   1.478   2.730  0.6691 -0.9100  0.3250
15541TIP3   OH268037   3.147   3.276  11.376  0.1374 -0.5867 -0.2555
15541TIP3    H168038   3.204   3.206  11.407 -0.6886 -0.9116  0.6010
15541TIP3    H268039   3.137   3.259  11.282  0.6158 -1.1194 -0.2156
15542TIP3   OH268040   4.098   4.606  14.179  0.4766  0.1083  0.1051
15542TIP3    H168041   4.048   4.657  14.243  0.6394  0.1510  0.1994
15542TIP3    H268042   4.043   4.605  14.101 -0.1576 -0.7500  0.5496
15543TIP3   OH268043   0.127   6.064   1.866 -0.1880 -0.4423  0.0140
15543TIP3    H168044   0.089   6.151   1.864 -0.6858 -0.6615 -1.2316
15543TIP3    H268045   0.073   6.015   1.928 -0.1578  0.0222  0.4072
15544TIP3   OH268046   6.474   5.346   4.178 -0.4404  0.7344  0.2367
15544TIP3    H168047   6.472   5.323   4.271  1.1479  1.1437  0.4042
15544TIP3    H268048   6.384   5.332   4.148 -1.4018  2.1706  2.2183
15545TIP3   OH268049   3.686   0.943  10.388  0.0721 -0.2761 -0.5186
15545TIP3    H168050   3.619   0.890  10.345  1.0880 -1.9160 -0.1666
15545TIP3    H268051   3.769   0.900  10.364  0.8500  0.5454  0.6384
15546TIP3   OH268052   1.109   3.111  12.346  0.1328 -0.2898 -0.3593
15546TIP3    H168053   1.151   3.143  12.426  1.4881  0.7314 -1.4307
15546TIP3    H268054   1.149   3.026  12.331  0.6480 -0.0270 -0.5033
15547TIP3   OH268055   3.791   2.102   4.299  0.0078  0.3905 -0.2990
15547TIP3    H168056   3.735   2.121   4.224 -0.6360  0.0414  0.0885
15547TIP3    H268057   3.737   2.049   4.357  0.3626  1.0000  0.6093
15548TIP3   OH268058   2.773   0.600   1.289  0.0583 -0.4011 -0.5360
15548TIP3    H168059   2.781   0.654   1.210 -0.5584  0.2649 -0.1552
15548TIP3    H268060   2.841   0.633   1.347 -0.9526  0.6656  0.0809
15549TIP3   OH268061   5.230   3.758   2.702  0.3478  0.0043 -0.1314
15549TIP3    H168062   5.300   3.800   2.652 -0.0210  1.1244  0.2565
15549TIP3    H268063   5.273   3.729   2.783 -0.1851  3.8952  1.7991
15550TIP3   OH268064   2.564   6.583  14.112  0.0633  0.4732  0.2892
15550TIP3    H168065   2.491   6.529  14.084  0.0621 -0.4495  1.9416
15550TIP3    H268066   2.532   6.673  14.107 -1.2185  0.0724  1.0837
15551TIP3   OH268067   5.820   6.462  12.101  0.4037  0.1474 -0.2584
15551TIP3    H168068   5.784   6.526  12.040  0.0949  2.2452  1.9872
15551TIP3    H268069   5.883   6.413  12.048  1.9555  3.4149 -1.7751
15552TIP3   OH268070   3.463   0.971   2.360 -0.4485  0.3131  0.3486
15552TIP3    H168071   3.529   0.947   2.294  0.5259  1.4170  0.8742
15552TIP3    H268072   3.512   0.974   2.442 -1.4603 -0.1581  0.9716
15553TIP3   OH268073   2.550   2.659  16.838  0.0564  0.3385 -0.3224
15553TIP3    H168074   2.465   2.700  16.820 -2.6176 -4.5012 -0.6086
15553TIP3    H268075   2.548   2.642  16.932  1.5210  1.5290 -0.0399
15554TIP3   OH268076   6.130   0.045  14.365 -0.7108 -0.1710  1.0152
15554TIP3    H168077   6.064   0.062  14.433 -1.5398  2.2786 -0.2529
15554TIP3    H268078   6.213   0.056  14.410 -1.1893 -0.9111  2.1249
15555TIP3   OH268079   0.241   0.107  13.264 -0.2707 -0.5804 -0.0338
15555TIP3    H168080   0.246   0.132  13.171 -0.1423 -0.3591  0.0312
15555TIP3    H268081   0.324   0.063  13.281  0.3094  0.5940  0.3244
15556TIP3   OH268082   2.714   3.717  15.241 -0.0240 -0.5243  0.1113
15556TIP3    H168083   2.747   3.691  15.326  2.6348  1.4113 -0.2210
15556TIP3    H268084   2.646   3.782  15.261  1.7322  1.1942  0.8441
15557TIP3   OH268085   3.397   3.337  13.105 -0.0436 -0.1627  0.1087
15557TIP3    H168086   3.449   3.399  13.155 -0.3104 -1.0744  1.5902
15557TIP3    H268087   3.456   3.305  13.037  0.1292  1.5842 -0.5964
15558TIP3   OH268088   4.971   5.015  13.694 -0.8447 -0.5531 -0.3744
15558TIP3    H168089   5.052   5.042  13.738 -1.2651  0.8627 -0.4065
15558TIP3    H268090   4.989   5.025  13.601 -1.2711  0.4973 -0.3604
15559TIP3   OH268091   3.141   0.486  16.513  0.2581  0.0465 -0.4748
15559TIP3    H168092   3.144   0.535  16.430  0.9541  1.0967  0.1442
15559TIP3    H268093   3.049   0.487  16.538  0.1470  0.3325 -0.8904
15560TIP3   OH268094   1.081   3.638  12.101  0.2861 -0.0422  0.5461
15560TIP3    H168095   0.999   3.683  12.121 -1.5119 -2.6359 -0.4205
15560TIP3    H268096   1.068   3.603  12.013  2.6416 -0.1739  0.2034
15561TIP3   OH268097   1.674   0.381  17.233  0.1814  0.5276  0.5699
15561TIP3    H168098   1.766   0.367  17.209 -0.6434 -3.7781 -1.0517
15561TIP3    H268099   1.656   0.471  17.206  3.5979  1.1789 -0.0908
15562TIP3   OH268100   0.232   5.367  12.072 -0.4157 -0.0509  0.2835
15562TIP3    H168101   0.226   5.327  11.986 -0.0369 -1.5891  0.9365
15562TIP3    H268102   0.141   5.380  12.100 -0.8236 -4.3084  1.7056
15563TIP3   OH268103   5.014   6.591   4.347 -0.6267  0.0463 -0.3874
15563TIP3    H168104   5.028   6.646   4.423 -0.7375  2.9908 -2.3514
15563TIP3    H268105   4.955   6.642   4.291  0.3824 -1.4507 -2.9736
15564TIP3   OH268106   6.036   3.587   2.066 -0.3663  0.7113  0.4852
15564TIP3    H168107   6.070   3.570   2.153 -0.0391 -0.4275  0.1561
15564TIP3    H268108   5.948   3.548   2.066  0.9673 -2.7076 -0.7561
15565TIP3   OH268109   1.454   1.411  16.617  0.3855  0.1104 -0.1703
15565TIP3    H168110   1.433   1.478  16.682  0.8873 -0.0701  0.1803
15565TIP3    H268111   1.482   1.460  16.540 -2.3780  0.4178 -1.0798
15566TIP3   OH268112   2.123   4.803  14.715 -0.6562 -0.7615 -0.0007
15566TIP3    H168113   2.180   4.731  14.686 -1.6918 -2.0812  1.1112
15566TIP3    H268114   2.036   4.764  14.721 -1.4499  0.8791 -0.3803
15567TIP3   OH268115   5.483   0.979  16.725 -0.4281  0.2364  0.1808
15567TIP3    H168116   5.570   0.990  16.762 -1.1675 -0.1281  2.1133
15567TIP3    H268117   5.497   0.926  16.647  1.1445  0.8037  0.0450
15568TIP3   OH268118   3.406   6.716  12.310  0.0683 -0.1890  0.2348
15568TIP3    H168119   3.375   6.642  12.258  0.2648 -0.5832  0.6706
15568TIP3    H268120   3.440   6.677  12.391  1.2703  0.2737 -0.0227
15569TIP3   OH268121   0.921   4.399  13.481  0.5973  0.6029  0.0265
15569TIP3    H168122   1.005   4.371  13.518  1.0284  2.1209  0.2819
15569TIP3    H268123   0.857   4.382  13.550 -0.0489 -3.8846 -1.3710
15570TIP3   OH268124   5.839   2.728   4.586 -0.2636  0.2169 -0.2232
15570TIP3    H168125   5.860   2.635   4.570 -0.1102 -0.5288  3.5241
15570TIP3    H268126   5.745   2.730   4.598 -0.2616  0.5678 -0.2526
15571TIP3   OH268127   5.089   3.277   0.343  0.3182  0.2493  0.1437
15571TIP3    H168128   5.165   3.222   0.325 -0.0352  0.3327 -1.9325
15571TIP3    H268129   5.016   3.216   0.353  0.1581  0.2543 -0.8621
15572TIP3   OH268130   3.342   3.571   1.743 -0.2830  0.0540  0.3084
15572TIP3    H168131   3.298   3.648   1.706 -0.1272  0.0201  0.0506
15572TIP3    H268132   3.286   3.545   1.816  1.5191  2.5762  2.8089
15573TIP3   OH268133   5.106   5.687   2.932 -0.8364 -0.2515  0.8266
15573TIP3    H168134   5.075   5.769   2.971 -0.3761 -0.3675  1.4590
15573TIP3    H268135   5.196   5.706   2.905 -1.9217  0.6697 -2.7138
15574TIP3   OH268136   3.980   3.916   1.304  0.6539  0.2961  0.5470
15574TIP3    H168137   4.003   3.914   1.397 -0.0359 -0.1308  0.7114
15574TIP3    H268138   3.885   3.928   1.303  0.5328 -0.6318 -0.0878
15575TIP3   OH268139   2.125   1.575   5.610  0.3359  0.5020 -0.4290
15575TIP3    H168140   2.204   1.563   5.558 -0.1519  0.2910 -1.1445
15575TIP3    H268141   2.156   1.610   5.693  1.3969 -1.6333  0.1511
15576TIP3   OH268142   4.678   4.800   0.180  0.0340  0.1710  0.1917
15576TIP3    H168143   4.652   4.771   0.267 -2.0185  1.2061 -0.0342
15576TIP3    H268144   4.764   4.840   0.192  1.1205 -2.2586  1.1913
15577TIP3   OH268145   0.110   6.635   4.886 -0.1138  0.2398 -0.3753
15577TIP3    H168146   0.062   6.711   4.917  0.0301  0.0054  0.4423
15577TIP3    H268147   0.060   6.560   4.918  0.4500 -0.0059 -0.0448
15578TIP3   OH268148   1.764   1.606  15.130 -0.2265  0.0553 -0.6659
15578TIP3    H168149   1.805   1.588  15.215 -0.2994  1.0219 -0.4085
15578TIP3    H268150   1.794   1.536  15.073  0.0237 -0.4726  0.0961
15579TIP3   OH268151   1.302   0.406   0.415  0.0471 -0.2093 -0.2419
15579TIP3    H168152   1.281   0.498   0.400 -1.0180 -0.2991  0.5686
15579TIP3    H268153   1.346   0.406   0.501 -0.5512 -0.5230  0.0684
15580TIP3   OH268154   6.552   2.965   0.703 -0.7188  0.0525 -0.3976
15580TIP3    H168155   6.510   3.051   0.703 -0.4032  0.2138  0.3927
15580TIP3    H268156   6.595   2.961   0.617 -1.1061  0.4965 -0.6212
15581TIP3   OH268157   3.561   3.212  17.159 -0.2458 -0.2925 -0.4583
15581TIP3    H168158   3.642   3.243  17.118  0.8085 -2.0978  0.1319
15581TIP3    H268159   3.510   3.177  17.086  0.0243 -0.1860 -0.7027
15582TIP3   OH268160   1.720   2.678   5.603  0.2258  0.0184  0.6885
15582TIP3    H168161   1.678   2.687   5.518  0.0004 -1.8561  0.5600
15582TIP3    H268162   1.754   2.589   5.603 -0.1777 -0.1633  2.7590
15583TIP3   OH268163   6.751   3.266   2.474 -0.3769 -0.2533 -0.4699
15583TIP3    H168164   6.719   3.355   2.493  0.8496  0.1865 -0.4040
15583TIP3    H268165   6.765   3.226   2.559 -0.0674 -0.1868 -0.4875
15584TIP3   OH268166   4.887   6.115   6.263  0.1676 -0.2965  0.3873
15584TIP3    H168167   4.963   6.118   6.205 -0.6307 -1.2715 -0.7714
15584TIP3    H268168   4.887   6.199   6.308  2.2325 -0.5002  0.8298
15585TIP3   OH268169   2.017   3.812   6.268  0.1661  0.6958 -0.5405
15585TIP3    H168170   2.049   3.815   6.358  3.0495 -0.4735 -1.3942
15585TIP3    H268171   1.922   3.811   6.276  0.3024  1.2272  2.4313
15586TIP3   OH268172   4.580   0.532  10.953  0.2998 -0.5015  0.7528
15586TIP3    H168173   4.601   0.625  10.960  1.7809 -0.7798  0.4173
15586TIP3    H268174   4.545   0.522  10.864 -0.2010 -0.2146  0.9141
15587TIP3   OH268175   1.146   2.611  14.816  0.0324  0.2822  0.1580
15587TIP3    H168176   1.238   2.592  14.795  0.2417  0.7333  0.6426
15587TIP3    H268177   1.124   2.550  14.886 -0.8050 -1.5411 -1.5782
15588TIP3   OH268178   2.042   0.658   6.247  0.7635  0.3241 -0.1953
15588TIP3    H168179   2.043   0.751   6.223 -0.1689  0.1504 -0.9688
15588TIP3    H268180   1.977   0.619   6.189  0.6344 -0.6935  0.6043
15589TIP3   OH268181   3.336   3.960   0.118  0.1911  0.4967  0.3592
15589TIP3    H168182   3.429   3.971   0.097  0.5345 -0.3783  1.3122
15589TIP3    H268183   3.307   3.889   0.061  0.4792 -0.1796  1.0397
15590TIP3   OH268184   3.439   5.283  15.564 -0.0763 -0.3699  0.2790
15590TIP3    H168185   3.415   5.372  15.592  0.4907 -0.3222  0.6112
15590TIP3    H268186   3.366   5.228  15.594  0.0808 -0.1800  1.0300
15591TIP3   OH268187   3.523   5.547  10.826 -0.1462  0.1699  0.7186
15591TIP3    H168188   3.614   5.577  10.825 -0.3193  0.8169 -1.0506
15591TIP3    H268189   3.475   5.619  10.786 -1.2220 -0.7274  0.3558
15592TIP3   OH268190   1.695   3.708  13.897  0.2178  0.2045 -0.3481
15592TIP3    H168191   1.633   3.676  13.833  2.2331  0.0534 -2.3694
15592TIP3    H268192   1.717   3.796  13.867  1.0686  0.2151  0.2550
15593TIP3   OH268193   6.310   5.942  15.245  0.3671 -0.2017  0.9034
15593TIP3    H168194   6.300   5.856  15.205 -0.4998 -0.2587  1.2200
15593TIP3    H268195   6.367   5.926  15.320 -1.4180 -0.9318  2.1834
15594TIP3   OH268196   0.314   0.970   5.226 -0.4287 -0.3828 -0.0310
15594TIP3    H168197   0.241   0.987   5.286  0.4559 -0.2243  1.0274
15594TIP3    H268198   0.286   0.894   5.175 -2.1764  0.8584 -1.0695
15595TIP3   OH268199   5.447   6.204   2.666 -0.3193  0.1974  0.1159
15595TIP3    H168200   5.361   6.242   2.685 -0.1193  0.1120  1.2685
15595TIP3    H268201   5.441   6.114   2.699  0.9239  0.8550  2.3969
15596TIP3   OH268202   6.521   5.162  14.668  0.2391  0.2786 -0.3098
15596TIP3    H168203   6.435   5.124  14.688  0.7120 -0.2379  0.8232
15596TIP3    H268204   6.525   5.241  14.722 -0.1300  1.1482 -1.5236
15597TIP3   OH268205   0.773   3.888   4.875 -0.2590 -0.0691 -0.0845
15597TIP3    H168206   0.721   3.934   4.809 -0.7912 -1.4778 -0.6996
15597TIP3    H268207   0.709   3.839   4.926  0.2015  0.6281  1.1925
15598TIP3   OH268208   5.739   6.699   1.189  0.0700 -0.3460  0.2221
15598TIP3    H168209   5.671   6.738   1.243  0.0751 -2.6360  2.0539
15598TIP3    H268210   5.694   6.633   1.137  0.7337 -1.2962  0.8230
15599TIP3   OH268211   2.625   5.575   5.934  0.0704  0.4464 -0.4927
15599TIP3    H168212   2.709   5.530   5.925 -0.7817 -1.5649  0.9120
15599TIP3    H268213   2.638   5.635   6.008  0.4608  0.6720 -0.7391
15600TIP3   OH268214   6.656   1.979   5.829  0.2152 -0.7840 -0.3909
15600TIP3    H168215   6.599   2.029   5.888  0.7706 -1.1209  0.4539
15600TIP3    H268216   6.603   1.904   5.803  0.2499 -1.0900  0.3821
15601TIP3   OH268217   0.482   2.110  16.425  0.1800 -0.3168  0.1627
15601TIP3    H168218   0.563   2.093  16.377  0.9944  1.6460  0.7551
15601TIP3    H268219   0.421   2.042  16.394  1.2104 -0.2265 -2.2840
15602TIP3   OH268220   4.335   0.049  14.950  0.1156 -0.7145 -0.6420
15602TIP3    H168221   4.296   0.003  15.024  0.1043 -0.9347 -0.7817
15602TIP3    H268222   4.429   0.032  14.957  0.2001 -0.1326 -0.2685
15603TIP3   OH268223   1.581   6.177   0.708  0.4263 -0.4862 -0.3869
15603TIP3    H168224   1.553   6.150   0.621 -0.0834  1.9025 -1.0524
15603TIP3    H268225   1.629   6.259   0.693 -0.9394  0.7903  1.6691
15604TIP3   OH268226   0.661   6.663  14.608  0.5700  0.2863 -0.1508
15604TIP3    H168227   0.701   6.593  14.557  1.0852  0.5815 -0.1484
15604TIP3    H268228   0.642   6.732  14.544 -0.1578  0.0565 -0.1953
15605TIP3   OH268229   0.816   4.388  13.015 -0.1434 -0.0042 -0.1972
15605TIP3    H168230   0.760   4.313  12.993 -0.6973  0.2039  0.4800
15605TIP3    H268231   0.897   4.371  12.968 -1.0176  0.0619 -1.8263
15606TIP3   OH268232   3.976   2.770  16.147 -0.1645  0.1657 -0.6116
15606TIP3    H168233   3.938   2.693  16.106  0.5241 -0.4261 -0.1638
15606TIP3    H268234   4.044   2.799  16.086 -0.1709  0.1961 -0.6045
15607TIP3   OH268235   3.658   4.600   0.961  0.0461 -0.0339  0.0698
15607TIP3    H168236   3.657   4.683   1.010  0.2375  0.1003 -0.1527
15607TIP3    H268237   3.718   4.544   1.011 -1.8449 -0.8511  1.5394
15608TIP3   OH268238   3.261   1.929   5.211 -0.4316  0.0394  0.4154
15608TIP3    H168239   3.212   1.926   5.129  0.0375 -3.8704  0.0704
15608TIP3    H268240   3.200   1.968   5.274 -1.7442  0.7384 -1.2046
15609TIP3   OH268241   0.719   6.050   3.583 -0.8431  0.0760  0.4210
15609TIP3    H168242   0.650   5.997   3.544  0.4122 -3.3476  2.4050
15609TIP3    H268243   0.675   6.105   3.647 -2.0168  0.2373 -0.4939
15610TIP3   OH268244   4.367   3.942  13.765  0.9018 -0.1577 -0.3300
15610TIP3    H168245   4.389   4.027  13.726 -0.2568  0.0847 -0.4834
15610TIP3    H268246   4.434   3.929  13.832  0.2068  1.6458  0.7827
15611TIP3   OH268247   5.569   5.761  14.994  0.3051 -0.4406  0.0767
15611TIP3    H168248   5.514   5.813  15.052 -0.1171 -1.3149  0.4664
15611TIP3    H268249   5.589   5.821  14.921  0.5347  0.5415  0.9214
15612TIP3   OH268250   6.716   5.533  14.114  0.1718  0.4369 -0.0253
15612TIP3    H168251   6.803   5.499  14.095  0.1537  0.5235 -0.2629
15612TIP3    H268252   6.676   5.545  14.028  0.5350  2.0045  0.0060
15613TIP3   OH268253   0.008   2.379  15.791 -0.2486  0.3824  0.0766
15613TIP3    H168254  -0.058   2.363  15.858  0.9032 -1.3191  0.8813
15613TIP3    H268255  -0.002   2.306  15.729 -0.0027  0.8584 -0.5425
15614TIP3   OH268256   0.125   3.452  14.474 -0.1192 -0.5008  0.0751
15614TIP3    H168257   0.081   3.486  14.395  2.4624  1.5341 -0.6227
15614TIP3    H268258   0.119   3.357  14.465  1.8497 -0.4498 -3.7482
15615TIP3   OH268259   5.623   4.272   0.594 -0.6545  0.9044 -0.3556
15615TIP3    H168260   5.714   4.245   0.589 -0.1855  2.3987 -0.3427
15615TIP3    H268261   5.618   4.328   0.671 -1.6325  0.6763 -0.2358
15616TIP3   OH268262   4.679   1.443  13.142  1.3345 -0.0267 -0.0861
15616TIP3    H168263   4.602   1.431  13.087  0.6856  0.0174  0.7803
15616TIP3    H268264   4.735   1.368  13.124  0.3906 -0.8563  0.3673
15617TIP3   OH268265   1.723   1.146   3.411  0.0649  0.0447  0.0618
15617TIP3    H168266   1.786   1.076   3.429  2.3478  2.0251  0.3530
15617TIP3    H268267   1.716   1.148   3.315  1.2752  0.3936 -0.0472
15618TIP3   OH268268   4.015   0.539   5.238  0.2615  0.5640 -0.0059
15618TIP3    H168269   4.070   0.486   5.296  1.3111  0.5154 -1.0115
15618TIP3    H268270   3.942   0.481   5.214  1.0775 -0.2417 -0.6007
15619TIP3   OH268271   1.308   4.894  10.555  0.8498  0.2849 -0.0411
15619TIP3    H168272   1.266   4.974  10.586 -2.1755 -2.0634  2.5633
15619TIP3    H268273   1.345   4.854  10.633  0.8420 -1.6560 -0.9658
15620TIP3   OH268274   1.296   3.698  15.178 -0.5765  0.2948 -0.4074
15620TIP3    H168275   1.276   3.656  15.262 -0.9759 -0.4558 -0.8653
15620TIP3    H268276   1.361   3.765  15.200  1.3266 -1.6141  0.1123
15621TIP3   OH268277   0.576   4.224   3.188  0.5811  0.1015 -0.6105
15621TIP3    H168278   0.568   4.319   3.196 -0.8551 -0.0932  0.9024
15621TIP3    H268279   0.528   4.190   3.263  0.6294 -1.8380 -1.4058
15622TIP3   OH268280   1.937   1.160  13.909  0.4053  0.2018  0.5635
15622TIP3    H168281   1.969   1.207  13.832 -1.2689  0.5601  0.0485
15622TIP3    H268282   2.016   1.124  13.949  1.4847  1.4123 -0.3797
15623TIP3   OH268283   0.018   1.165  10.655  0.3282  0.2653 -0.7232
15623TIP3    H168284   0.024   1.190  10.563 -0.9325 -0.0602 -0.8983
15623TIP3    H268285  -0.042   1.229  10.694  0.8171  0.3759 -0.1256
15624TIP3   OH268286   5.791   6.213   0.233  0.1774  0.1442  0.0790
15624TIP3    H168287   5.722   6.247   0.175 -0.0390 -1.8665 -0.9291
15624TIP3    H268288   5.853   6.172   0.173  1.0210 -0.1668  1.1550
15625TIP3   OH268289   1.633   4.187  13.693  0.0839 -0.1279 -0.1260
15625TIP3    H168290   1.562   4.235  13.651  1.9880  2.1219 -1.0171
15625TIP3    H268291   1.602   4.169  13.782 -2.3302 -1.0429 -1.0954
15626TIP3   OH268292   5.400   5.355  15.780  0.1397 -0.2338 -0.4180
15626TIP3    H168293   5.345   5.279  15.795 -0.1142  0.2713  1.5229
15626TIP3    H268294   5.471   5.346  15.844  0.0765  1.1464 -0.1204
15627TIP3   OH268295   4.847   0.861  16.123  0.1058 -0.0575 -0.2057
15627TIP3    H168296   4.793   0.937  16.144 -0.7882 -1.2401  2.2235
15627TIP3    H268297   4.926   0.873  16.175 -0.0116 -0.7187  0.1410
15628TIP3   OH268298   1.496   3.627   3.323  0.1042 -0.2667 -0.0407
15628TIP3    H168299   1.479   3.710   3.277  2.0297 -0.1781 -0.6884
15628TIP3    H268300   1.410   3.587   3.333 -0.8740  1.7765  0.2376
15629TIP3   OH268301   2.527   4.561  15.100 -0.4042 -0.1857 -0.0059
15629TIP3    H168302   2.442   4.579  15.059  0.2197  0.1217 -1.1994
15629TIP3    H268303   2.541   4.467  15.084 -0.3290 -0.1447 -0.1845
15630TIP3   OH268304   0.954   5.633  11.458  0.4980 -0.8105 -0.1418
15630TIP3    H168305   0.947   5.559  11.399  1.4929 -0.8780 -0.1895
15630TIP3    H268306   1.048   5.656  11.458  0.1218  0.9114 -0.7217
15631TIP3   OH268307   6.453   2.717  16.901 -0.5307  1.1203  0.1572
15631TIP3    H168308   6.421   2.807  16.900  1.8709  2.0893 -1.7588
15631TIP3    H268309   6.516   2.714  16.829  1.2005 -1.4501  1.6271
15632TIP3   OH268310   6.613   2.774   3.763  0.2554 -0.3418  0.1913
15632TIP3    H168311   6.658   2.806   3.842  0.7037 -1.0555  0.2261
15632TIP3    H268312   6.606   2.680   3.776 -2.1161 -0.1618  0.6278
15633TIP3   OH268313   0.177   2.693   0.135 -0.0462 -0.5565  0.3181
15633TIP3    H168314   0.175   2.692   0.039 -0.2879 -0.0538  0.3147
15633TIP3    H268315   0.086   2.678   0.160 -0.4367  1.6875  0.4329
15634TIP3   OH268316   2.547   1.412  11.117  0.1704 -0.3589 -0.7353
15634TIP3    H168317   2.496   1.332  11.110 -0.2291 -0.0169 -2.0384
15634TIP3    H268318   2.556   1.443  11.027  3.1703 -0.7106 -0.6787
15635TIP3   OH268319   4.249   3.093   1.428  0.0946 -0.0695 -0.2682
15635TIP3    H168320   4.205   3.130   1.351  0.8316  0.4851 -0.4323
15635TIP3    H268321   4.180   3.085   1.494  0.0694  2.6044  0.1397
15636TIP3   OH268322   6.623   2.045  14.261  0.4817 -0.2651  0.3537
15636TIP3    H168323   6.557   1.976  14.266  1.1620 -0.8988  0.8914
15636TIP3    H268324   6.576   2.121  14.228 -0.1329 -1.1840 -0.9821
15637TIP3   OH268325   1.254   5.313  13.306  0.3058 -0.2855  0.1337
15637TIP3    H168326   1.273   5.358  13.388  0.9054 -2.6676  1.3976
15637TIP3    H268327   1.324   5.247  13.299 -1.1823 -1.8139 -0.9608
15638TIP3   OH268328   1.704   6.018  13.433 -0.6380  0.5558 -0.2869
15638TIP3    H168329   1.657   6.002  13.351 -0.9649  0.0005  0.0061
15638TIP3    H268330   1.694   6.112  13.448  0.1965  0.8313 -1.3472
15639TIP3   OH268331   3.845   2.373  15.770  0.5306 -0.2818  0.0730
15639TIP3    H168332   3.841   2.363  15.865 -1.4636 -0.1573  0.0387
15639TIP3    H268333   3.762   2.415  15.747  1.6349  1.1436 -1.5599
15640TIP3   OH268334   0.040   3.129  11.377 -0.1837  0.4631  0.6233
15640TIP3    H168335   0.071   3.075  11.304 -0.1501  1.4690 -0.1159
15640TIP3    H268336   0.088   3.096  11.453  0.4807  0.0326  0.0298
15641TIP3   OH268337   4.079   5.639  14.260 -0.2890 -0.2380 -0.2261
15641TIP3    H168338   4.078   5.620  14.354 -0.0433 -2.1554 -0.5543
15641TIP3    H268339   4.157   5.691  14.247 -0.7885  0.7986  0.7385
15642TIP3   OH268340   3.139   4.395   0.733 -0.0139  0.4890 -0.5475
15642TIP3    H168341   3.181   4.308   0.730 -0.1070  0.4383 -0.3895
15642TIP3    H268342   3.181   4.444   0.662  0.1942  0.3841 -0.4982
15643TIP3   OH268343   1.217   4.026  16.042 -0.1542  0.0014 -0.5956
15643TIP3    H168344   1.210   3.960  16.111 -0.2464  1.0857  0.4578
15643TIP3    H268345   1.156   3.997  15.974 -1.2356 -0.2632  0.4637
15644TIP3   OH268346   5.356   4.812  14.463 -0.7869 -0.2112  0.1280
15644TIP3    H168347   5.277   4.763  14.443 -1.7299  0.6510  1.5175
15644TIP3    H268348   5.344   4.839  14.554  0.8430  0.4447  0.1730
15645TIP3   OH268349   5.760   5.356   0.901 -0.0213  0.5452  0.0158
15645TIP3    H168350   5.828   5.373   0.966 -0.4576 -0.0704  0.6340
15645TIP3    H268351   5.678   5.353   0.951 -0.4132  0.5184 -0.6179
15646TIP3   OH268352   0.187   6.629  16.407 -0.0003 -0.1144 -0.5870
15646TIP3    H168353   0.131   6.574  16.352  0.8150 -1.3696 -0.2124
15646TIP3    H268354   0.168   6.601  16.496  2.1227 -1.5495 -0.4974
15647TIP3   OH268355   6.749   4.006  11.823 -0.3020 -0.2156  0.4968
15647TIP3    H168356   6.747   4.095  11.788  0.2455 -0.0863  0.7851
15647TIP3    H268357   6.756   4.017  11.918 -1.7706 -0.5631  0.6590
15648TIP3   OH268358   1.733   3.310  15.256 -0.2466  0.2477 -0.8773
15648TIP3    H168359   1.741   3.351  15.342 -2.3617 -0.0923 -0.4477
15648TIP3    H268360   1.733   3.216  15.274 -1.4202  0.1783 -1.1131
15649TIP3   OH268361   4.877   0.169  14.398 -0.1793  0.0893 -0.3975
15649TIP3    H168362   4.877   0.265  14.398  0.2027  0.1006  1.0077
15649TIP3    H268363   4.915   0.144  14.482  0.4845 -1.3082 -1.0687
15650TIP3   OH268364   6.217   4.080  11.861  0.2371 -0.2946 -0.2886
15650TIP3    H168365   6.172   4.113  11.939  1.1508  0.0774  0.0906
15650TIP3    H268366   6.153   4.023  11.819 -0.5654  0.1673  0.2792
15651TIP3   OH268367   1.803   0.925   2.746 -0.1036  0.2096 -0.4556
15651TIP3    H168368   1.731   0.873   2.781  0.2036  0.9759  1.4814
15651TIP3    H268369   1.803   1.004   2.800  2.3770  0.0816 -0.1628
15652TIP3   OH268370   0.430   5.554  15.080 -0.2097 -0.5327 -0.7053
15652TIP3    H168371   0.494   5.546  15.009  1.2385  1.9627  0.2092
15652TIP3    H268372   0.462   5.494  15.148  0.7093  0.0291 -0.6182
15653TIP3   OH268373   1.023   1.434  15.065  0.4632 -0.5938 -0.7489
15653TIP3    H168374   1.011   1.404  15.155  0.1073 -0.1045 -0.6245
15653TIP3    H268375   1.088   1.504  15.072  2.2696 -2.1648 -1.2060
15654TIP3   OH268376   2.965   2.999   2.938 -0.5911  0.1412 -0.2731
15654TIP3    H168377   3.037   2.944   2.970  0.5525  1.9675  0.4552
15654TIP3    H268378   2.951   2.971   2.848  0.4732 -0.7947 -0.1676
15655TIP3   OH268379   3.413   5.764  15.911  0.2179  0.1796 -0.1444
15655TIP3    H168380   3.483   5.718  15.958  0.6606  0.2406 -0.7235
15655TIP3    H268381   3.334   5.715  15.931  0.1743  0.8727  1.6100
15656TIP3   OH268382   0.478   1.600  15.356 -0.6267 -0.3337 -0.4126
15656TIP3    H168383   0.569   1.571  15.354 -0.7078 -0.6258  0.1660
15656TIP3    H268384   0.483   1.694  15.372 -0.4626 -0.5814  1.1239
15657TIP3   OH268385   1.190   6.673  15.284 -0.0821  0.3267  0.2498
15657TIP3    H168386   1.146   6.706  15.363 -2.0520  0.7460 -0.9822
15657TIP3    H268387   1.162   6.582  15.277 -1.1772  0.7215 -0.7865
15658TIP3   OH268388   1.236   0.786   6.093 -0.3826 -0.3079 -0.7340
15658TIP3    H168389   1.206   0.748   6.010 -0.7082 -0.8667 -0.3618
15658TIP3    H268390   1.248   0.711   6.151  0.0822  0.0614 -0.3437
15659TIP3   OH268391   5.399   4.670   2.119  0.0287  0.1642 -0.2791
15659TIP3    H168392   5.435   4.620   2.193 -1.1638 -1.2184 -0.5721
15659TIP3    H268393   5.384   4.604   2.052 -1.5591  0.9304 -0.7150
15660TIP3   OH268394   0.496   1.335  17.380 -0.5470 -0.5302  0.3069
15660TIP3    H168395   0.542   1.395  17.439 -0.2697 -1.1932  0.7800
15660TIP3    H268396   0.457   1.270  17.438 -0.7783 -0.8496 -0.2019
15661TIP3   OH268397   2.612   3.130   5.818  0.3368 -0.3712 -0.0588
15661TIP3    H168398   2.573   3.193   5.878 -1.1742  0.2622 -1.6351
15661TIP3    H268399   2.702   3.119   5.850 -0.0585  0.8321  1.5830
15662TIP3   OH268400   4.131   0.960   1.221 -0.5463  0.0993  0.3868
15662TIP3    H168401   4.069   0.982   1.152 -1.0824  0.2449  0.9072
15662TIP3    H268402   4.171   0.877   1.193 -0.8810  0.0757 -0.0138
15663TIP3   OH268403   2.532   1.809  16.850 -0.2762 -0.7016 -0.2230
15663TIP3    H168404   2.457   1.771  16.806 -0.7542 -0.0357 -0.0006
15663TIP3    H268405   2.540   1.897  16.813 -2.5660  1.1152  3.0070
15664TIP3   OH268406   3.752   1.991   1.703  0.0261 -0.0301 -0.2014
15664TIP3    H168407   3.765   2.066   1.760 -1.7344 -1.1817  1.8574
15664TIP3    H268408   3.664   2.004   1.667  0.4456 -0.1976 -1.3198
15665TIP3   OH268409   1.483   6.525  15.567 -0.6548 -0.2710 -0.0276
15665TIP3    H168410   1.432   6.445  15.548 -1.0447  0.3757 -1.9301
15665TIP3    H268411   1.457   6.549  15.656 -2.1284 -1.1229 -0.1844
15666TIP3   OH268412   4.066   6.015   2.669  0.1812  0.3175 -0.0277
15666TIP3    H168413   3.999   5.982   2.609  1.1240  0.5907 -1.2736
15666TIP3    H268414   4.148   6.007   2.620  0.8371  1.5985  0.8099
15667TIP3   OH268415   5.920   5.296  13.239  0.1075 -0.1241 -0.2256
15667TIP3    H168416   5.856   5.368  13.240  0.4726  0.2172 -0.6502
15667TIP3    H268417   5.956   5.296  13.328 -1.9567 -1.6991  0.7008
15668TIP3   OH268418   1.729   0.442  11.929  0.2524  0.2211  0.0717
15668TIP3    H168419   1.815   0.426  11.891 -0.0252  2.1480 -1.5566
15668TIP3    H268420   1.742   0.518  11.986 -0.6468  1.5759 -1.4732
15669TIP3   OH268421   6.739   4.704  11.445  0.1347  0.0834  0.0022
15669TIP3    H168422   6.796   4.642  11.491 -0.3284  0.8933  1.7276
15669TIP3    H268423   6.780   4.714  11.359  1.2207 -1.2224  0.3327
15670TIP3   OH268424   4.227   1.875  13.026  0.4008 -0.3665  0.8697
15670TIP3    H168425   4.193   1.921  12.949  1.9287  1.1348  1.0285
15670TIP3    H268426   4.173   1.796  13.032 -0.0267 -0.3466 -1.5034
15671TIP3   OH268427   3.151   0.188  14.258  0.4044 -0.4021  0.9024
15671TIP3    H168428   3.137   0.097  14.284  1.9773 -0.5002  1.5199
15671TIP3    H268429   3.185   0.230  14.336  1.4983  0.2542  0.0964
15672TIP3   OH268430   0.745   1.321  11.532 -0.0741 -0.0724  0.6214
15672TIP3    H168431   0.835   1.316  11.565 -0.5159  0.0212  1.8720
15672TIP3    H268432   0.743   1.259  11.459  1.6337  1.6093 -0.9910
15673TIP3   OH268433   6.529   6.196   0.998  0.2452  1.1099  0.3557
15673TIP3    H168434   6.456   6.254   1.021 -1.2523 -0.6520  0.2081
15673TIP3    H268435   6.553   6.153   1.080  0.5636  1.0453  0.2316
15674TIP3   OH268436   6.271   2.382  14.022 -0.1523  0.2968  0.4152
15674TIP3    H168437   6.178   2.373  14.045 -0.3759  0.5892 -0.3432
15674TIP3    H268438   6.282   2.475  14.003  0.4987  0.4111  1.3270
15675TIP3   OH268439   2.940   4.890   1.397 -0.6274  1.0486  0.5882
15675TIP3    H168440   2.992   4.969   1.411 -0.8688  1.5799 -1.2442
15675TIP3    H268441   2.971   4.828   1.463  0.4218  2.2601  1.2677
15676TIP3   OH268442   1.310   2.869   5.544  0.5601 -0.2017  1.4169
15676TIP3    H168443   1.308   2.839   5.454  1.0321  1.0608  0.9634
15676TIP3    H268444   1.221   2.854   5.576 -0.0120  0.5913  0.2917
15677TIP3   OH268445   5.393   5.816   3.710 -0.2393 -0.1247  0.8781
15677TIP3    H168446   5.319   5.776   3.664  1.2220 -0.1322 -1.5961
15677TIP3    H268447   5.352   5.882   3.767 -2.2977 -1.7174  1.3897
15678TIP3   OH268448   6.239   3.067  15.555 -0.0443 -0.3725  0.1186
15678TIP3    H168449   6.245   3.139  15.618  2.3732 -1.0255  0.7616
15678TIP3    H268450   6.200   3.106  15.477  0.1992  1.3684  0.8230
15679TIP3   OH268451   3.381   0.653   2.807  0.5681  0.1678 -0.6813
15679TIP3    H168452   3.350   0.616   2.890  1.9427 -1.3035 -0.7865
15679TIP3    H268453   3.303   0.695   2.769 -0.2375  0.3332  1.0354
15680TIP3   OH268454   2.847   3.584  12.144  0.4202  0.0791  0.4185
15680TIP3    H168455   2.901   3.638  12.087 -0.8450 -0.1963 -1.1071
15680TIP3    H268456   2.847   3.498  12.103 -0.3914 -0.1641  0.9047
15681TIP3   OH268457   4.802   4.192  16.408  0.2002  0.0111  0.0598
15681TIP3    H168458   4.804   4.096  16.406 -0.6929 -0.0143 -0.1124
15681TIP3    H268459   4.893   4.217  16.422  0.9834 -0.7950 -2.8493
15682TIP3   OH268460   6.298   6.672   1.501  0.5478  0.4948  0.2127
15682TIP3    H168461   6.282   6.591   1.453  0.7387  1.0872 -0.8918
15682TIP3    H268462   6.211   6.709   1.516  0.4904  0.3463  0.2408
15683TIP3   OH268463   0.443   2.390  13.590 -0.3831  0.1560  0.9018
15683TIP3    H168464   0.362   2.432  13.619 -0.7475 -0.3703  0.6670
15683TIP3    H268465   0.432   2.298  13.614 -0.1207 -0.0329  0.3078
15684TIP3   OH268466   5.163   4.084   0.959 -0.4260  0.1193  0.6363
15684TIP3    H168467   5.239   4.115   0.909  0.3847 -1.0289  1.1198
15684TIP3    H268468   5.192   4.085   1.050 -0.4617 -1.6964  0.7123
15685TIP3   OH268469   5.757   5.076   4.829 -0.1557  0.6793 -0.0240
15685TIP3    H168470   5.723   4.987   4.824 -0.8539  0.9045  0.5111
15685TIP3    H268471   5.833   5.076   4.771 -0.5388 -0.0842 -0.5419
15686TIP3   OH268472   2.087   2.846  10.432  0.3469 -0.0079 -0.3364
15686TIP3    H168473   2.162   2.893  10.468 -0.4981 -0.1315  1.7583
15686TIP3    H268474   2.092   2.759  10.472 -1.0437  0.0748  0.0718
15687TIP3   OH268475   6.279   4.556  14.636  0.3100  0.3306  0.4199
15687TIP3    H168476   6.203   4.501  14.656 -1.2848  2.0209 -0.6437
15687TIP3    H268477   6.352   4.514  14.683 -0.7690 -2.6174 -0.2779
15688TIP3   OH268478   0.974   5.796   2.244 -0.0963  0.1002  0.4428
15688TIP3    H168479   1.061   5.823   2.215 -0.5810  2.2230  0.8087
15688TIP3    H268480   0.919   5.873   2.228 -1.4954 -0.5190  2.0269
15689TIP3   OH268481   5.432   5.727  13.245 -0.5639  0.2315  0.6096
15689TIP3    H168482   5.424   5.637  13.276  1.1118  0.0434  0.5947
15689TIP3    H268483   5.460   5.777  13.321  0.0459  0.4440  0.2505
15690TIP3   OH268484   6.476   3.856  16.734  0.2475  0.2052 -0.0060
15690TIP3    H168485   6.569   3.863  16.758  0.2774 -0.4071  0.0871
15690TIP3    H268486   6.457   3.762  16.743 -0.7032  0.4872  1.1933
15691TIP3   OH268487   1.540   0.397   1.663 -0.0930  0.1884  0.2145
15691TIP3    H168488   1.611   0.338   1.638  0.3369  0.6654  0.2911
15691TIP3    H268489   1.549   0.407   1.758  0.6559  1.3908  0.0447
15692TIP3   OH268490   2.972   1.201   6.319 -0.0406  0.2725  0.6892
15692TIP3    H168491   3.062   1.229   6.305 -0.0037  0.5366  1.4049
15692TIP3    H268492   2.935   1.192   6.231  0.6486  0.2670  0.3970
15693TIP3   OH268493   0.238   5.787   1.333 -0.1595  0.1339  0.1711
15693TIP3    H168494   0.275   5.723   1.272  0.1052  0.7080 -0.2809
15693TIP3    H268495   0.159   5.745   1.367 -0.0657 -0.3731 -0.2222
15694TIP3   OH268496   0.915   5.891   5.408  0.0593 -0.3647  0.1048
15694TIP3    H168497   0.837   5.837   5.396 -0.6567  0.6670  0.0242
15694TIP3    H268498   0.901   5.936   5.491  1.5726 -1.7921  1.1859
15695TIP3   OH268499   1.461   0.264  14.003 -0.6292 -0.5353  0.3173
15695TIP3    H168500   1.547   0.285  13.965 -0.3319 -0.6359  0.9285
15695TIP3    H268501   1.403   0.332  13.967  0.3556  1.5611  2.4275
15696TIP3   OH268502   4.067   6.451  11.514 -0.4878 -0.1531 -0.4896
15696TIP3    H168503   4.036   6.361  11.507  2.6456 -1.3930 -0.1750
15696TIP3    H268504   4.025   6.497  11.442 -0.8655 -2.3057 -1.7116
15697TIP3   OH268505   5.485   6.301   4.294  0.4504 -0.7338 -0.4753
15697TIP3    H168506   5.571   6.342   4.305 -0.0870 -0.2513  3.6077
15697TIP3    H268507   5.432   6.367   4.249  1.2848  0.5147  0.3013
15698TIP3   OH268508   0.088   3.880   3.135 -0.0422 -0.2029 -0.0739
15698TIP3    H168509   0.155   3.943   3.110 -0.9495  0.8812  0.1831
15698TIP3    H268510   0.118   3.844   3.219  1.2973 -1.3623 -0.9947
15699TIP3   OH268511   5.644   3.416  16.379  0.1848  0.5976  0.0164
15699TIP3    H168512   5.641   3.334  16.428 -0.7273  0.5088 -0.1710
15699TIP3    H268513   5.710   3.469  16.425 -2.9281  1.8550  3.5065
15700TIP3   OH268514   5.815   4.363   3.370 -0.3129 -0.2257  0.1457
15700TIP3    H168515   5.722   4.355   3.393  0.0051 -0.9904  1.3083
15700TIP3    H268516   5.826   4.304   3.295 -0.7145 -0.3708  0.1957
15701TIP3   OH268517   4.272   3.772   3.673  0.1908  0.1566  0.4092
15701TIP3    H168518   4.207   3.842   3.665 -0.9066 -0.8926 -0.0099
15701TIP3    H268519   4.355   3.819   3.684 -0.3756  1.5430 -0.8457
15702TIP3   OH268520   5.366   3.610   1.226  0.3899 -0.2743  0.0095
15702TIP3    H168521   5.392   3.664   1.152 -0.9466  2.3500  1.3362
15702TIP3    H268522   5.398   3.522   1.204  0.0231  0.3547 -3.6612
15703TIP3   OH268523   1.510   2.415   5.683  0.1092  0.3178 -0.1961
15703TIP3    H168524   1.525   2.345   5.619  2.1437  0.8079 -0.3491
15703TIP3    H268525   1.474   2.487   5.632  2.1551  0.8701 -0.9682
15704TIP3   OH268526   6.205   2.780  14.856  0.4497 -0.1789  0.1530
15704TIP3    H168527   6.201   2.839  14.781  1.6890 -1.3069 -0.8506
15704TIP3    H268528   6.245   2.832  14.926 -0.7828  0.9033  0.0991
15705TIP3   OH268529   4.339   5.317  16.482  0.4069  0.7128  0.5822
15705TIP3    H168530   4.280   5.254  16.522  0.5456  0.6129  0.6274
15705TIP3    H268531   4.364   5.376  16.553 -2.2358  2.7936 -0.0114
15706TIP3   OH268532   6.355   0.093   4.506 -0.4515  0.4825 -0.9173
15706TIP3    H168533   6.287   0.033   4.477 -1.0037  0.1612  0.9052
15706TIP3    H268534   6.431   0.037   4.522 -0.3951  0.5351 -1.0046
15707TIP3   OH268535   4.293   1.852  14.331  0.0767 -0.1208 -0.3930
15707TIP3    H168536   4.350   1.910  14.381 -0.7123  0.5092 -0.2074
15707TIP3    H268537   4.296   1.769  14.380 -0.2853  0.3356  0.4272
15708TIP3   OH268538   3.967   0.176   5.303 -0.0559  0.1616 -0.1740
15708TIP3    H168539   4.036   0.235   5.333 -1.2455  0.4360  2.2324
15708TIP3    H268540   3.979   0.097   5.354 -0.0458 -0.7556 -1.5443
15709TIP3   OH268541   1.959   5.102  16.886 -0.5266 -0.2151  0.0810
15709TIP3    H168542   1.952   5.006  16.889  0.3090 -0.3135 -0.5400
15709TIP3    H268543   1.984   5.121  16.795  1.5190  0.3956  0.7093
15710TIP3   OH268544   1.912   4.967  11.198  0.8148  0.4255  0.4189
15710TIP3    H168545   1.896   4.969  11.292 -0.1563  0.1808  0.2723
15710TIP3    H268546   1.981   4.902  11.187  0.2333 -0.2855  0.8827
15711TIP3   OH268547   5.853   5.368   6.380  0.0273 -0.2756  0.2545
15711TIP3    H168548   5.777   5.309   6.378 -0.9133  0.7756  2.3042
15711TIP3    H268549   5.927   5.310   6.398 -0.8137 -0.9333  1.8083
15712TIP3   OH268550   0.097   4.097  16.801 -0.4479  0.6501 -0.6434
15712TIP3    H168551   0.052   4.063  16.878 -1.1299  1.1796 -0.7990
15712TIP3    H268552   0.166   4.154  16.836  0.4227 -0.5117 -0.3943
15713TIP3   OH268553   2.725   4.916   4.638 -0.0108 -0.1328  0.3346
15713TIP3    H168554   2.644   4.967   4.636 -0.5713 -0.5844  3.8864
15713TIP3    H268555   2.788   4.974   4.681  1.8495  0.4020 -2.8182
15714TIP3   OH268556   5.162   0.300  16.208 -0.1527 -0.3509  0.1879
15714TIP3    H168557   5.128   0.320  16.295 -0.0483 -1.5979  0.5290
15714TIP3    H268558   5.251   0.268  16.223 -0.5046 -1.5825 -0.2645
15715TIP3   OH268559   4.068   4.984   5.071 -0.2408  0.1365 -0.1450
15715TIP3    H168560   4.000   5.006   5.007  0.0716 -3.2655 -1.8530
15715TIP3    H268561   4.024   4.926   5.134  0.4704  0.0992  0.3320
15716TIP3   OH268562   6.392   4.798   5.339 -0.3447  0.3989  0.1906
15716TIP3    H168563   6.456   4.728   5.325 -1.8043 -0.9167 -0.3332
15716TIP3    H268564   6.338   4.766   5.412 -0.1811  1.6531  0.8876
15717TIP3   OH268565   4.739   5.237   4.262  0.7413 -0.3196  0.2507
15717TIP3    H168566   4.740   5.236   4.166  1.9279  0.2626  0.2405
15717TIP3    H268567   4.735   5.145   4.287  0.1116 -0.4649 -0.3529
15718TIP3   OH268568   2.919   5.965   1.081 -0.3026  0.4271 -0.1749
15718TIP3    H168569   2.849   5.909   1.114  0.6036 -0.9505 -0.4960
15718TIP3    H268570   2.884   6.002   1.000 -1.5387  1.7119  0.8895
15719TIP3   OH268571   3.650   0.924  11.763  0.3328  0.1123  0.1363
15719TIP3    H168572   3.613   0.986  11.700  0.5547 -0.5878 -0.7029
15719TIP3    H268573   3.585   0.855  11.770  0.2319  0.2677  0.8230
15720TIP3   OH268574   3.892   0.990  16.126 -0.6297 -0.1986 -0.1270
15720TIP3    H168575   3.804   1.000  16.088 -0.3238  0.4959 -0.6744
15720TIP3    H268576   3.948   0.967  16.052 -0.1967  0.2212  0.0660
15721TIP3   OH268577   4.073   0.498   2.909  0.3195 -0.6440 -0.2446
15721TIP3    H168578   4.088   0.543   2.993  1.2058  0.2049 -0.8253
15721TIP3    H268579   4.084   0.567   2.843  0.7916 -1.5362 -1.1228
15722TIP3   OH268580   5.487   4.968  15.424  0.3797  0.9918  0.8658
15722TIP3    H168581   5.434   5.010  15.356 -1.2484  0.3127  1.6525
15722TIP3    H268582   5.568   4.944  15.379 -0.6896  0.4338 -0.8799
15723TIP3   OH268583   3.735   1.225  14.185  0.2457  0.7824 -0.2073
15723TIP3    H168584   3.745   1.168  14.109  1.2059  0.8410 -0.1451
15723TIP3    H268585   3.647   1.208  14.217  0.1448  0.1163 -0.8185
15724TIP3   OH268586   2.200   2.524  12.258  0.2558 -0.9209  0.2547
15724TIP3    H168587   2.294   2.534  12.243  0.1798 -2.2969 -1.4478
15724TIP3    H268588   2.194   2.451  12.319  0.3001 -0.3222  0.9885
15725TIP3   OH268589   6.173   2.778  10.923 -0.6549 -0.1481  0.4470
15725TIP3    H168590   6.161   2.772  10.828 -0.0325  1.9139  0.1802
15725TIP3    H268591   6.216   2.696  10.947 -0.2627 -0.4541 -1.1580
15726TIP3   OH268592   1.669   0.169   2.920  0.4103 -0.1106  0.3213
15726TIP3    H168593   1.583   0.210   2.917  0.9965  1.1597  0.1730
15726TIP3    H268594   1.677   0.125   2.835 -0.6951 -1.5764  0.9405
15727TIP3   OH268595   5.331   0.728   2.148 -0.2818  0.1532  0.2645
15727TIP3    H168596   5.304   0.791   2.214 -1.1070 -0.9649  1.0314
15727TIP3    H268597   5.397   0.674   2.191 -1.0331 -0.7670  0.2935
15728TIP3   OH268598   3.276   3.593   4.550 -0.1696  0.9273 -0.0319
15728TIP3    H168599   3.195   3.585   4.500 -1.1009  3.3967  0.9912
15728TIP3    H268600   3.306   3.502   4.561 -1.7542  0.0922 -2.0328
15729TIP3   OH268601   6.695   2.506   6.388  0.5295  0.3234  0.2344
15729TIP3    H168602   6.777   2.492   6.436 -0.8842 -2.4121  2.1448
15729TIP3    H268603   6.657   2.584   6.429  0.9715  0.0654  1.1708
15730TIP3   OH268604   3.571   2.738   3.655 -0.8584 -0.8915  0.2695
15730TIP3    H168605   3.661   2.707   3.643 -1.4235 -2.4486 -0.1797
15730TIP3    H268606   3.577   2.801   3.727  1.1030  1.5192 -1.7799
15731TIP3   OH268607   0.165   2.459  16.289  1.2557 -0.8030  0.0271
15731TIP3    H168608   0.149   2.545  16.328 -1.4439 -1.4071  0.4858
15731TIP3    H268609   0.256   2.439  16.312  1.4240  1.1806  1.3952
15732TIP3   OH268610   1.762   4.353   1.072 -0.3539 -0.0044 -0.3481
15732TIP3    H168611   1.849   4.378   1.041  0.7790 -1.5582  1.3951
15732TIP3    H268612   1.732   4.287   1.009  0.4127 -0.5848 -0.1139
15733TIP3   OH268613   4.514   0.237   1.012 -0.5434  0.6761 -0.2873
15733TIP3    H168614   4.577   0.293   1.056 -0.7897  1.1340 -0.5149
15733TIP3    H268615   4.430   0.283   1.021 -0.9646 -0.2023  0.5250
15734TIP3   OH268616   4.537   2.459  15.057  0.2513 -0.0224 -0.7336
15734TIP3    H168617   4.601   2.392  15.034 -0.4380 -0.5122 -1.2537
15734TIP3    H268618   4.459   2.437  15.006 -0.2091  0.7874 -0.4043
15735TIP3   OH268619   5.235   3.623  11.986 -0.0291 -0.5855  0.5046
15735TIP3    H168620   5.219   3.532  11.960  0.3136 -0.1976 -1.1213
15735TIP3    H268621   5.330   3.630  11.990 -0.0121  0.0672 -0.7724
15736TIP3   OH268622   3.128   1.421  11.149 -0.1586 -0.1117  0.2518
15736TIP3    H168623   3.165   1.507  11.131 -0.3398 -0.4320 -1.8881
15736TIP3    H268624   3.203   1.362  11.157 -0.0473 -0.3435 -1.8224
15737TIP3   OH268625   5.961   0.840   3.054  0.3252  0.2239  0.1904
15737TIP3    H168626   5.881   0.844   3.001  0.7821  0.1537 -0.5140
15737TIP3    H268627   5.929   0.829   3.144 -0.4442 -0.4426 -0.1513
15738TIP3   OH268628   2.770   3.760   0.418 -0.1698 -0.3073  0.4288
15738TIP3    H168629   2.781   3.742   0.511 -0.9847  0.4109  0.6779
15738TIP3    H268630   2.838   3.825   0.398  0.1778 -0.6612  0.4575
15739TIP3   OH268631   0.741   0.414   1.854  0.4744  0.4204  0.7679
15739TIP3    H168632   0.800   0.355   1.901 -0.6700 -0.8921  0.6389
15739TIP3    H268633   0.791   0.444   1.779  0.9578 -0.7434  0.6104
15740TIP3   OH268634   2.016   1.272   4.366  0.0152  0.3120  0.1069
15740TIP3    H168635   2.097   1.221   4.380 -0.0388 -0.0674 -0.9124
15740TIP3    H268636   1.946   1.212   4.394  0.0548  0.5303  0.6992
15741TIP3   OH268637   0.270   2.446   1.597  0.0554 -0.3702  0.3548
15741TIP3    H168638   0.184   2.403   1.600 -0.7936  1.0042 -1.7654
15741TIP3    H268639   0.303   2.426   1.509 -0.3779  3.1541 -0.7530
15742TIP3   OH268640   0.197   5.781  12.424  0.3014  0.0934 -0.2768
15742TIP3    H168641   0.226   5.856  12.475  1.6117 -0.3363 -0.3625
15742TIP3    H268642   0.208   5.706  12.483 -2.5023  0.0860  0.3884
15743TIP3   OH268643   6.034   4.020  14.416 -0.0724 -0.0854 -0.1724
15743TIP3    H168644   6.087   3.954  14.371  1.2866  2.1669 -2.1298
15743TIP3    H268645   5.960   4.034  14.357 -0.0979  0.4670 -0.0124
15744TIP3   OH268646   6.601   2.943  12.442  0.1453  0.1244  0.5288
15744TIP3    H168647   6.628   2.967  12.353  1.7119 -1.7586  0.4116
15744TIP3    H268648   6.663   2.987  12.499  0.9344 -0.9126  0.4979
15745TIP3   OH268649   6.142   2.816  13.169 -0.3556 -0.8877  0.2273
15745TIP3    H168650   6.121   2.888  13.229  0.8257  0.4787 -0.9236
15745TIP3    H268651   6.103   2.739  13.210 -2.8864  0.5944  0.8397
15746TIP3   OH268652   0.769   6.194  16.504 -0.4657  0.1917 -0.1367
15746TIP3    H168653   0.792   6.162  16.417  0.2597  2.7941 -0.9822
15746TIP3    H268654   0.852   6.228  16.539 -1.5165  3.1274 -0.2631
15747TIP3   OH268655   0.503   5.449  14.820  0.4934 -0.0726 -0.4247
15747TIP3    H168656   0.576   5.435  14.760  0.6704 -1.1919  0.0298
15747TIP3    H268657   0.442   5.505  14.772  0.4042 -1.3370 -1.8333
15748TIP3   OH268658   3.015   4.299  15.068 -0.1882 -0.2030 -0.1280
15748TIP3    H168659   2.957   4.314  14.993 -0.3864  3.0383  0.5140
15748TIP3    H268660   2.994   4.370  15.129  1.9858 -1.0386  1.7524
15749TIP3   OH268661   3.351   3.888   3.598 -0.0580 -0.2292  0.4125
15749TIP3    H168662   3.442   3.916   3.598 -0.0607 -0.2164  0.7251
15749TIP3    H268663   3.320   3.905   3.509 -0.1720  1.1453  0.6865
15750TIP3   OH268664   6.618   0.039  13.578  0.4388  0.5591 -0.1921
15750TIP3    H168665   6.668   0.073  13.504  1.7614 -0.6741  0.1030
15750TIP3    H268666   6.640   0.098  13.650  1.0144  0.3701 -0.2099
15751TIP3   OH268667   0.932   5.366  17.373  0.4172 -0.4212  0.5507
15751TIP3    H168668   0.877   5.372  17.294 -0.4870 -0.2829  1.1789
15751TIP3    H268669   1.013   5.324  17.343  1.1309  1.8564 -1.0104
15752TIP3   OH268670   4.278   6.519  15.750  0.0699  1.1701 -0.4607
15752TIP3    H168671   4.204   6.491  15.697 -0.0468  1.5198 -0.4835
15752TIP3    H268672   4.290   6.611  15.727 -0.8043  1.6989  1.0889
15753TIP3   OH268673   3.382   4.579  15.238  0.0062  0.0881  0.2907
15753TIP3    H168674   3.362   4.570  15.331 -0.2170 -0.3218  0.2022
15753TIP3    H268675   3.417   4.494  15.212  1.9000  0.7706  0.4435
15754TIP3   OH268676   2.057   6.269  16.597 -0.1014  0.2454  0.1754
15754TIP3    H168677   2.036   6.178  16.575  1.4204 -0.1672  0.3603
15754TIP3    H268678   2.130   6.263  16.658 -2.4811  1.4648  3.4296
15755TIP3   OH268679   2.157   1.087  11.718 -0.0207  0.3048 -0.1248
15755TIP3    H168680   2.120   1.065  11.633  1.9855 -0.5085 -0.8276
15755TIP3    H268681   2.221   1.155  11.700  0.5257  0.0356  0.7187
15756TIP3   OH268682   3.012   4.790  12.038  0.1082 -0.0445 -0.3036
15756TIP3    H168683   2.956   4.866  12.053 -0.5695 -0.5697 -0.1184
15756TIP3    H268684   3.041   4.798  11.947 -1.5812 -0.5952 -0.9207
15757TIP3   OH268685   0.080   5.803   3.968  0.0323  0.2323 -0.2364
15757TIP3    H168686   0.079   5.806   3.872 -1.4380 -1.3871 -0.3228
15757TIP3    H268687   0.160   5.850   3.993  0.5803  0.4607 -2.2506
15758TIP3   OH268688   2.322   6.184  10.602 -0.4995 -0.1428  0.3206
15758TIP3    H168689   2.249   6.230  10.643 -0.5018 -0.7113  0.9726
15758TIP3    H268690   2.365   6.251  10.547 -0.7947  0.5046  0.8644
15759TIP3   OH268691   1.864   1.643   0.790 -0.4682 -1.0559 -0.4292
15759TIP3    H168692   1.890   1.612   0.877 -1.3471  0.0459  0.2582
15759TIP3    H268693   1.876   1.567   0.733  0.2493 -1.7634  0.6278
15760TIP3   OH268694   0.023   5.770   3.025  0.3516  0.2355  0.8822
15760TIP3    H168695   0.094   5.742   3.083  1.3593  0.6961 -0.1020
15760TIP3    H268696   0.066   5.824   2.959 -0.5408 -1.3990 -1.1256
15761TIP3   OH268697   6.431   5.725   1.684 -0.1954 -0.1427  0.1182
15761TIP3    H168698   6.351   5.739   1.634 -0.6724  2.6226  1.4661
15761TIP3    H268699   6.442   5.630   1.687 -2.5328 -0.5251 -1.4431
15762TIP3   OH268700   6.720   4.510   4.454  0.0859  0.0812 -0.5324
15762TIP3    H168701   6.734   4.604   4.445 -3.9095  0.8892 -0.3287
15762TIP3    H268702   6.796   4.478   4.502  1.0612  3.3823  0.3621
15763TIP3   OH268703   3.072   0.950   4.423  0.3673  0.1418 -0.1700
15763TIP3    H168704   2.977   0.952   4.417  0.2767  0.6354  1.0206
15763TIP3    H268705   3.091   0.872   4.475  0.7635 -1.0939 -2.0677
15764TIP3   OH268706   6.356   2.610   5.478  0.5278 -0.0003 -0.1909
15764TIP3    H168707   6.406   2.630   5.398  1.8766 -0.2032  0.5670
15764TIP3    H268708   6.324   2.695   5.508  0.7895  0.1932 -0.4540
15765TIP3   OH268709   6.112   1.710  11.629  0.8672  0.7786 -0.3353
15765TIP3    H168710   6.016   1.713  11.631  0.7372 -1.6564  1.4638
15765TIP3    H268711   6.134   1.697  11.537 -0.4933  1.6571 -0.8114
15766TIP3   OH268712   6.679   4.339   0.806 -0.2714 -0.4311  0.1441
15766TIP3    H168713   6.586   4.326   0.789 -0.2934 -0.6323  0.4102
15766TIP3    H268714   6.707   4.404   0.741 -0.7893  0.2785  0.6270
15767TIP3   OH268715   6.436   2.876  16.574 -0.8615  0.0542 -0.1428
15767TIP3    H168716   6.486   2.955  16.558 -0.3805 -0.3586 -0.7134
15767TIP3    H268717   6.422   2.838  16.487  0.3947 -1.3770  0.2310
15768TIP3   OH268718   0.054   3.407   4.787 -0.8517 -0.1320 -0.1732
15768TIP3    H168719   0.068   3.467   4.714 -2.1588  1.2849  0.6818
15768TIP3    H268720  -0.028   3.362   4.766 -1.5183  0.6700  0.6468
15769TIP3   OH268721   3.286   2.357  11.135 -0.2012  0.4831 -0.5779
15769TIP3    H168722   3.338   2.398  11.066  0.6688  1.1314  0.4327
15769TIP3    H268723   3.204   2.407  11.136 -0.3103  0.3272 -1.2737
15770TIP3   OH268724   4.140   1.552   3.446  0.6251  0.4536 -0.2596
15770TIP3    H168725   4.218   1.500   3.468  0.5156  0.7767  0.9520
15770TIP3    H268726   4.067   1.499   3.478  0.3107  0.1032 -1.4863
15771TIP3   OH268727   4.745   2.661  13.580 -0.3014  0.0545 -0.3880
15771TIP3    H168728   4.677   2.627  13.522  0.1311 -0.7428 -0.4457
15771TIP3    H268729   4.719   2.752  13.598  0.2642  0.7951 -2.9206
15772TIP3   OH268730   5.773   0.677   6.520  0.1403  0.1754 -0.6883
15772TIP3    H168731   5.868   0.664   6.513 -0.0847 -2.6578  0.2577
15772TIP3    H268732   5.763   0.749   6.582  1.6382  1.1368 -1.5000
15773TIP3   OH268733   2.710   0.134  15.467 -0.6061  0.3789  0.5406
15773TIP3    H168734   2.699   0.183  15.549 -1.4900  0.6126  0.2936
15773TIP3    H268735   2.654   0.058  15.477  0.9708 -0.7829  1.0382
15774TIP3   OH268736   4.756   3.187   5.584 -0.6007 -0.0402  0.4975
15774TIP3    H168737   4.720   3.102   5.557  1.3891 -0.9015  0.3892
15774TIP3    H268738   4.723   3.249   5.520 -0.5393 -1.0772 -0.5768
15775TIP3   OH268739   5.955   3.494   0.448  0.0215  0.0033 -0.3060
15775TIP3    H168740   5.954   3.399   0.459  0.2596 -0.0364 -0.6091
15775TIP3    H268741   5.988   3.528   0.532 -0.9766 -0.1186  0.1570
15776TIP3   OH268742   3.955   3.321   5.047 -0.3958 -0.2237  0.7834
15776TIP3    H168743   3.906   3.239   5.058  0.8498 -0.9371  1.3045
15776TIP3    H268744   4.040   3.303   5.088  1.3938 -0.0482 -2.5616
15777TIP3   OH268745   0.009   4.968   1.892 -0.1208 -0.1229 -0.0291
15777TIP3    H168746   0.034   4.915   1.967 -0.6143 -1.8201 -1.0217
15777TIP3    H268747  -0.067   4.924   1.854  0.2199  0.5691 -1.6344
15778TIP3   OH268748   5.078   6.366   1.071  0.2250  0.0652  0.1799
15778TIP3    H168749   5.163   6.396   1.102  0.2189 -0.4276  0.7047
15778TIP3    H268750   5.072   6.275   1.102 -1.2084  0.6259  1.7264
15779TIP3   OH268751   5.277   0.387  17.332 -0.5832 -0.2690  0.3136
15779TIP3    H168752   5.208   0.326  17.309 -1.1415  1.0382 -1.6943
15779TIP3    H268753   5.323   0.405  17.250 -0.2434  1.7544  0.8824
15780TIP3   OH268754   6.187   0.871   0.796  0.0991 -0.0970  0.1541
15780TIP3    H168755   6.220   0.802   0.738  2.6866  0.4236  0.8735
15780TIP3    H268756   6.101   0.894   0.759 -0.1750 -2.5916 -0.9928
15781TIP3   OH268757   2.078   3.173  14.949 -0.3497 -0.4893 -0.1290
15781TIP3    H168758   2.064   3.087  14.990  0.1399 -0.7425 -0.4795
15781TIP3    H268759   2.163   3.165  14.906  0.0902  0.4441  0.5232
15782TIP3   OH268760   2.132   2.080   3.895 -0.3789  0.8331  0.0516
15782TIP3    H168761   2.187   2.039   3.962  0.1620  1.0177 -0.2652
15782TIP3    H268762   2.063   2.017   3.878 -0.0124  0.3996  0.1511
15783TIP3   OH268763   0.395   4.813   2.338  0.0423  0.3201 -0.0656
15783TIP3    H168764   0.464   4.752   2.362 -0.9721 -0.8351  0.0215
15783TIP3    H268765   0.387   4.804   2.243  0.7483  1.2816 -0.2308
15784TIP3   OH268766   3.415   5.393   5.096  0.6649 -0.1248  0.5798
15784TIP3    H168767   3.431   5.391   5.191 -1.9539  0.6994  1.1280
15784TIP3    H268768   3.340   5.451   5.086  0.3583 -0.8553 -1.9401
15785TIP3   OH268769   4.472   4.517  15.908  0.1215 -0.3255  0.3884
15785TIP3    H168770   4.389   4.470  15.901 -0.0549  0.2321 -2.2408
15785TIP3    H268771   4.534   4.464  15.857  0.6625  0.7211 -0.0632
15786TIP3   OH268772   4.675   4.427   4.300 -0.3231 -0.3044  0.2034
15786TIP3    H168773   4.733   4.410   4.374  1.0525 -0.4022 -0.8477
15786TIP3    H268774   4.678   4.347   4.248  0.8320  0.6561 -1.2897
15787TIP3   OH268775   1.397   1.356  12.736  0.1407  0.1698 -0.1613
15787TIP3    H168776   1.480   1.317  12.762 -0.8160 -1.7613  0.1643
15787TIP3    H268777   1.349   1.367  12.818 -0.4891 -0.1286 -0.4799
15788TIP3   OH268778   6.577   3.595  11.776 -0.4056  0.9843  0.4552
15788TIP3    H168779   6.491   3.582  11.816 -0.3477 -0.8321  0.0810
15788TIP3    H268780   6.639   3.577  11.847 -0.3310 -0.5959  0.0388
15789TIP3   OH268781   6.143   0.876   2.107 -0.6052  0.4721 -0.8987
15789TIP3    H168782   6.105   0.964   2.102 -1.2498  0.2390 -0.1658
15789TIP3    H268783   6.199   0.879   2.184 -1.2102  0.0146 -0.4412
15790TIP3   OH268784   6.089   5.203   0.881  0.0603  0.4005 -0.1233
15790TIP3    H168785   6.095   5.205   0.977 -0.0162  0.0968 -0.1102
15790TIP3    H268786   6.012   5.149   0.863  0.6527 -0.3814 -0.3675
15791TIP3   OH268787   5.151   0.771   0.596  0.4386  0.0990 -0.0340
15791TIP3    H168788   5.176   0.729   0.679  0.1697  0.8979  0.4586
15791TIP3    H268789   5.187   0.713   0.528  1.4762 -0.0726  0.6410
15792TIP3   OH268790   4.869   1.541   5.669 -0.1841  0.2541  0.3407
15792TIP3    H168791   4.962   1.558   5.655 -0.4418  1.0680 -0.5428
15792TIP3    H268792   4.830   1.554   5.582 -1.1132 -0.1063  0.6999
15793TIP3   OH268793   5.321   1.688   4.646 -0.4400 -0.1528  0.0356
15793TIP3    H168794   5.233   1.682   4.682 -0.2666 -2.6581  0.2055
15793TIP3    H268795   5.308   1.683   4.551 -0.5045 -0.2897  0.0507
15794TIP3   OH268796   5.273   3.448   3.082  0.4123  0.0256 -0.2621
15794TIP3    H168797   5.326   3.440   3.003 -0.2957 -0.8373 -0.6695
15794TIP3    H268798   5.316   3.391   3.146  1.8606  1.8940  0.4952
15795TIP3   OH268799   1.791   2.127  16.412  0.2617  0.1699 -0.2091
15795TIP3    H168800   1.739   2.046  16.414 -0.0912  0.4024  0.6071
15795TIP3    H268801   1.880   2.100  16.434 -0.2877  0.2724  2.5572
15796TIP3   OH268802   2.990   6.453   3.728 -0.5290  0.4236 -0.0917
15796TIP3    H168803   3.048   6.447   3.804  0.1711 -0.4862 -0.6816
15796TIP3    H268804   3.045   6.432   3.654 -0.6807  3.2765 -1.1499
15797TIP3   OH268805   3.584   3.895   4.776 -1.3157  0.0046 -0.2127
15797TIP3    H168806   3.549   3.806   4.764  0.3724 -0.6612 -0.4021
15797TIP3    H268807   3.594   3.929   4.687  0.0875 -0.4584 -0.2467
15798TIP3   OH268808   0.739   4.871   4.281  0.2161  0.4785  0.2481
15798TIP3    H168809   0.789   4.802   4.324  0.7321 -0.0872 -1.2102
15798TIP3    H268810   0.795   4.949   4.290 -0.1067  0.6002  1.3883
15799TIP3   OH268811   3.713   2.851   3.101 -0.1189 -0.2878  0.3632
15799TIP3    H168812   3.762   2.777   3.137 -1.1931 -0.7140  1.0226
15799TIP3    H268813   3.655   2.811   3.036 -0.0815  0.0988  0.0935
15800TIP3   OH268814   2.333   1.223  11.149  0.0011  0.3569 -0.9062
15800TIP3    H168815   2.265   1.175  11.104  0.4613  1.0996 -2.4495
15800TIP3    H268816   2.298   1.237  11.237 -0.2477 -2.5259 -0.4436
15801TIP3   OH268817   0.064   3.924   0.712  0.4240 -0.8684  0.2031
15801TIP3    H168818   0.121   3.857   0.675 -0.4983 -2.7914  2.0408
15801TIP3    H268819   0.005   3.947   0.641  1.1218 -1.5977 -0.6307
15802TIP3   OH268820   5.015   5.328   3.336  0.2331  0.1941  0.4223
15802TIP3    H168821   4.922   5.311   3.319  0.1565  0.4849  0.5310
15802TIP3    H268822   5.050   5.354   3.251  0.1043  0.5546  0.4773
15803TIP3   OH268823   2.540   3.862  13.932 -0.1165  0.0177 -0.4369
15803TIP3    H168824   2.510   3.941  13.888 -0.2056  0.1163 -0.2033
15803TIP3    H268825   2.577   3.808  13.863 -1.8566 -0.6023 -0.9378
15804TIP3   OH268826   1.444   3.279  13.711 -0.3642  0.3297  0.0441
15804TIP3    H168827   1.504   3.341  13.753  0.4977  0.0183 -0.6926
15804TIP3    H268828   1.391   3.333  13.653  0.4612  0.3924 -0.6842
15805TIP3   OH268829   6.283   6.117  13.360 -0.1786 -0.1020  0.2193
15805TIP3    H168830   6.248   6.170  13.432  3.5779  0.5733  1.7585
15805TIP3    H268831   6.287   6.178  13.286 -0.1377  0.4401  0.6622
15806TIP3   OH268832   2.172   6.733   3.002  0.7187  0.3437  0.2576
15806TIP3    H168833   2.214   6.739   2.916  0.9173  1.1417  0.3965
15806TIP3    H268834   2.228   6.675   3.053  0.0463 -0.9802 -0.4563
15807TIP3   OH268835   3.089   4.306  15.918 -0.0120  0.0444 -0.1345
15807TIP3    H168836   3.052   4.392  15.940 -0.1874 -0.4875  1.9485
15807TIP3    H268837   3.024   4.266  15.860  0.7320  1.8082 -2.2701
15808TIP3   OH268838   6.719   5.995  15.554 -0.5749  0.2138  0.3070
15808TIP3    H168839   6.802   5.998  15.506  0.1064 -1.8918  1.2001
15808TIP3    H268840   6.714   6.080  15.597  1.9535 -0.0913  1.4371
15809TIP3   OH268841   5.412   5.694  11.391  0.1937 -0.0360 -0.8860
15809TIP3    H168842   5.416   5.607  11.431 -0.3657  0.9188  1.4509
15809TIP3    H268843   5.318   5.710  11.379  0.3009  0.1770 -1.4623
15810TIP3   OH268844   0.003   6.380   0.075  0.1250 -0.2011 -0.2012
15810TIP3    H168845   0.086   6.420   0.101 -0.1455 -1.9175  4.1445
15810TIP3    H268846   0.028   6.315   0.009  2.3978 -1.0948  1.4081
15811TIP3   OH268847   6.017   1.709  13.649  0.2844  0.4339  0.5897
15811TIP3    H168848   6.020   1.779  13.583  0.0331 -0.2287 -0.1432
15811TIP3    H268849   5.996   1.630  13.599  1.8997 -0.4276  1.1900
15812TIP3   OH268850   1.968   0.799   2.296 -0.5856  0.2871 -0.2473
15812TIP3    H168851   1.953   0.867   2.361 -1.7612  0.8097 -1.0245
15812TIP3    H268852   1.919   0.723   2.328  0.2091 -0.0086  0.3003
15813TIP3   OH268853   5.090   5.111   5.371  0.8486 -0.3792 -1.0740
15813TIP3    H168854   5.108   5.193   5.326  2.5068  0.2633  0.5875
15813TIP3    H268855   5.009   5.127   5.418  1.8573  0.8872  0.3532
15814TIP3   OH268856   1.883   2.621   2.946 -0.4118  0.8707  0.0479
15814TIP3    H168857   1.937   2.699   2.937  1.5294 -0.4956 -0.6519
15814TIP3    H268858   1.900   2.570   2.867 -1.6391 -0.2705  0.4789
15815TIP3   OH268859   0.354   5.518  14.276  0.1323 -0.0265 -0.4345
15815TIP3    H168860   0.319   5.607  14.277 -0.2033 -0.1559 -0.6579
15815TIP3    H268861   0.311   5.474  14.348 -1.5524 -0.7054 -1.7922
15816TIP3   OH268862   3.510   2.430  12.402  0.1206 -0.8439  0.2193
15816TIP3    H168863   3.573   2.362  12.378 -0.8066 -1.4222 -0.6557
15816TIP3    H268864   3.486   2.471  12.319 -2.2249 -2.0532  0.2171
15817TIP3   OH268865   0.823   1.672  11.107 -0.3366  0.0647  0.5897
15817TIP3    H168866   0.863   1.600  11.154  1.3691  0.2314 -0.5238
15817TIP3    H268867   0.891   1.739  11.102 -0.5206  0.1522 -1.8367
15818TIP3   OH268868   4.686   6.496   4.183 -0.4226 -0.0889 -0.2459
15818TIP3    H168869   4.683   6.450   4.267 -1.0315 -1.7699 -1.1436
15818TIP3    H268870   4.596   6.523   4.167 -0.6083 -1.1614 -1.0749
15819TIP3   OH268871   4.576   2.707   2.335  0.0641 -0.5607  0.1525
15819TIP3    H168872   4.553   2.643   2.267 -1.1504 -0.4085  0.3995
15819TIP3    H268873   4.508   2.697   2.402 -0.0842  0.8815  0.2611
15820TIP3   OH268874   1.176   4.003   2.226 -0.0331 -0.0726 -0.0167
15820TIP3    H168875   1.148   4.072   2.286  1.8192  0.9662 -0.2523
15820TIP3    H268876   1.271   3.995   2.242 -0.3277 -3.4485  0.8646
15821TIP3   OH268877   0.915   3.888  14.861  0.0887  0.4591  0.1192
15821TIP3    H168878   0.912   3.806  14.911 -1.5424  0.0054 -0.6507
15821TIP3    H268879   0.914   3.956  14.928 -1.4655 -0.1408  0.7564
15822TIP3   OH268880   2.143   6.612  17.259  0.8773  0.1206 -0.2126
15822TIP3    H168881   2.057   6.583  17.228  1.1282  1.5239 -2.4550
15822TIP3    H268882   2.151   6.701  17.225  3.1298  0.0885  0.1352
15823TIP3   OH268883   5.495   0.392   5.592  0.1393  0.2979  0.7840
15823TIP3    H168884   5.519   0.482   5.612  1.6221  0.0604  0.2069
15823TIP3    H268885   5.524   0.379   5.502 -2.4341  0.0192 -0.0571
15824TIP3   OH268886   1.093   0.508   2.616 -0.1581  0.4329 -0.6507
15824TIP3    H168887   0.999   0.519   2.629 -0.2376  1.3532 -1.8526
15824TIP3    H268888   1.102   0.488   2.523  0.7743 -0.6179 -0.3563
15825TIP3   OH268889   5.042   2.969   3.551 -0.1798 -1.2554 -0.8476
15825TIP3    H168890   5.090   3.016   3.482  0.0416  1.0808  0.7627
15825TIP3    H268891   5.082   3.000   3.632 -2.9847 -0.8612  0.4933
15826TIP3   OH268892   0.224   1.291   1.842  0.1280  0.3839  0.5167
15826TIP3    H168893   0.173   1.299   1.761  1.9715 -0.0628 -0.7451
15826TIP3    H268894   0.173   1.230   1.896 -0.8472  0.2202 -0.5347
15827TIP3   OH268895   2.116   4.870  11.932 -0.0485  0.1494 -0.1993
15827TIP3    H168896   2.098   4.925  12.009  0.6403 -0.4636  0.4098
15827TIP3    H268897   2.050   4.898  11.868 -0.3557  0.9809  0.4471
15828TIP3   OH268898   3.668   2.826  14.195  0.3973  0.3665 -0.0986
15828TIP3    H168899   3.681   2.740  14.157  1.7062  1.2110 -1.6899
15828TIP3    H268900   3.602   2.868  14.139  0.3634  0.6969  0.1817
15829TIP3   OH268901   6.086   5.252   1.135  0.3854  0.4766  0.0752
15829TIP3    H168902   6.146   5.239   1.208  0.7489  0.2225 -0.2638
15829TIP3    H268903   5.999   5.249   1.175  0.5629 -0.1265  0.4304
15830TIP3   OH268904   5.174   5.980  11.059 -0.8190 -0.2170 -0.2076
15830TIP3    H168905   5.157   6.045  10.991 -1.5544 -0.0846  0.0918
15830TIP3    H268906   5.090   5.970  11.104 -1.0178 -2.1792 -0.9282
15831TIP3   OH268907   4.932   0.554  14.715 -0.5466  0.4410  0.0856
15831TIP3    H168908   4.968   0.608  14.785 -0.1010 -0.4019  0.5275
15831TIP3    H268909   4.871   0.494  14.759 -0.2379 -0.1208 -0.2319
15832TIP3   OH268910   3.715   0.951   2.810  0.6439 -0.4826  0.1135
15832TIP3    H168911   3.658   0.888   2.767  0.1438 -0.8499  1.2592
15832TIP3    H268912   3.775   0.980   2.742 -0.5434 -0.5201 -0.9835
15833TIP3   OH268913   5.140   2.733  16.628  0.0443  0.1986 -0.0021
15833TIP3    H168914   5.099   2.809  16.587  0.0629 -0.0287 -0.4515
15833TIP3    H268915   5.087   2.659  16.600 -0.5414  0.1388  1.2119
15834TIP3   OH268916   3.394   6.140   1.697 -0.0017  0.3129 -0.2902
15834TIP3    H168917   3.303   6.158   1.718 -0.7501 -0.5584 -2.5911
15834TIP3    H268918   3.417   6.064   1.751 -0.6917  0.3778  0.1008
15835TIP3   OH268919   6.123   0.536   6.073 -0.4454 -0.2503  0.5587
15835TIP3    H168920   6.088   0.482   6.143 -1.1449  0.3683  0.6926
15835TIP3    H268921   6.181   0.598   6.118 -1.4646  0.6255  0.6918
15836TIP3   OH268922   2.712   3.771  13.115 -0.0753  0.3740  0.4865
15836TIP3    H168923   2.638   3.821  13.150  0.1526  0.7752  0.4016
15836TIP3    H268924   2.786   3.830  13.121 -0.2435  0.8795 -1.7045
15837TIP3   OH268925   5.602   1.254   4.826  0.2055  0.1534  0.2710
15837TIP3    H168926   5.604   1.234   4.733  0.3309  0.2568  0.2519
15837TIP3    H268927   5.511   1.280   4.843  0.3042  0.6172  0.0790
15838TIP3   OH268928   0.366   3.486  15.459  0.1833  0.6129 -0.4469
15838TIP3    H168929   0.355   3.467  15.366  1.2623  1.4823 -0.7783
15838TIP3    H268930   0.332   3.408  15.504 -1.0772  0.5077 -1.5229
15839TIP3   OH268931   3.446   2.470  16.356 -0.1673 -0.0212  0.0537
15839TIP3    H168932   3.475   2.511  16.275  0.0826 -0.1335  0.0846
15839TIP3    H268933   3.367   2.518  16.380 -0.2621 -0.0089 -0.2735
15840TIP3   OH268934   5.708   2.244   4.854  0.0282  0.5807 -0.6847
15840TIP3    H168935   5.731   2.208   4.769 -0.0857  1.2722 -1.0176
15840TIP3    H268936   5.764   2.321   4.864 -1.2418  1.5955 -0.9759
15841TIP3   OH268937   2.639   2.097  12.169  0.1478 -0.1596  0.2043
15841TIP3    H168938   2.653   2.130  12.080  1.1069  2.1833  1.1436
15841TIP3    H268939   2.564   2.146  12.201  0.6950  0.0583  1.1737
15842TIP3   OH268940   6.379   3.845  13.875  0.0615 -0.2816  0.1985
15842TIP3    H168941   6.331   3.805  13.803 -0.5879  0.7267  0.0481
15842TIP3    H268942   6.328   3.923  13.899  0.7752 -0.0575  1.1019
15843TIP3   OH268943   6.070   5.372  12.932  0.0981 -0.3152 -0.6483
15843TIP3    H168944   6.113   5.323  13.001  1.3155 -0.2838 -1.3643
15843TIP3    H268945   6.112   5.458  12.932 -1.2397  0.3707 -0.1513
15844TIP3   OH268946   3.908   5.717   1.909  0.5107  0.0107  0.0124
15844TIP3    H168947   3.905   5.790   1.971  0.5062  0.2315 -0.2427
15844TIP3    H268948   3.971   5.655   1.947  1.1774  0.5464 -0.1880
15845TIP3   OH268949   0.707   3.498  12.507 -0.3702  0.2923  0.4703
15845TIP3    H168950   0.644   3.504  12.580 -0.0884  1.0898  0.6638
15845TIP3    H268951   0.700   3.408  12.476  0.2523 -0.3684  2.1531
15846TIP3   OH268952   4.158   5.653  11.879 -0.5489 -0.3980  0.8891
15846TIP3    H168953   4.227   5.588  11.892 -1.9315 -2.0102  0.5026
15846TIP3    H268954   4.172   5.685  11.790  1.5117  1.6225  1.8171
15847TIP3   OH268955   3.356   4.491  15.545  0.0307 -0.4008 -0.3477
15847TIP3    H168956   3.440   4.480  15.589 -0.8363 -0.0625  1.4910
15847TIP3    H268957   3.317   4.404  15.546 -0.2487 -0.2723  0.1167
15848TIP3   OH268958   4.251   0.521  17.031  0.0511  0.3043  0.1588
15848TIP3    H168959   4.230   0.531  16.938 -1.2482  0.9475  0.4913
15848TIP3    H268960   4.166   0.516  17.074  0.5454  2.1670  1.5132
15849TIP3   OH268961   2.807   1.717  11.407 -0.0663  0.1372 -0.1045
15849TIP3    H168962   2.866   1.656  11.450 -0.6172 -0.7469 -0.5767
15849TIP3    H268963   2.825   1.801  11.449 -1.3707 -0.8693  2.7055
15850TIP3   OH268964   1.580   3.889   1.682 -0.0910  0.6957 -0.3877
15850TIP3    H168965   1.622   3.939   1.752  1.1989 -0.9718  0.1284
15850TIP3    H268966   1.493   3.926   1.673  0.3826  2.1611  0.8140
15851TIP3   OH268967   3.720   4.197   5.555 -1.0008 -0.2115 -0.0515
15851TIP3    H168968   3.790   4.250   5.593  1.1115 -1.8776 -1.4042
15851TIP3    H268969   3.640   4.237   5.588  0.5051 -0.6502  5.0668
15852TIP3   OH268970   5.905   1.114   4.405 -0.4048 -0.0523  0.3646
15852TIP3    H168971   5.968   1.135   4.474  0.2095 -0.9649  0.0979
15852TIP3    H268972   5.918   1.020   4.389 -0.9903  0.0146 -0.5482
15853TIP3   OH268973   4.089   0.967   1.830  0.3695  0.1234  0.2548
15853TIP3    H168974   4.096   1.055   1.793  0.2287 -0.4442 -1.1848
15853TIP3    H268975   4.047   0.915   1.762  2.9968 -1.7358 -0.0966
15854TIP3   OH268976   0.199   6.611   4.588  0.1515  0.0598 -0.0519
15854TIP3    H168977   0.122   6.617   4.531 -0.3704 -1.9693  0.3515
15854TIP3    H268978   0.163   6.615   4.676  0.7013  0.7190  0.1469
15855TIP3   OH268979   0.118   5.758   5.081  0.8742  0.1180  0.4816
15855TIP3    H168980   0.179   5.728   5.149  2.8680 -0.6575 -1.5119
15855TIP3    H268981   0.175   5.789   5.010 -1.1173  1.4665 -0.6126
15856TIP3   OH268982   6.274   5.031   5.305 -0.3571 -0.4204 -0.3724
15856TIP3    H168983   6.342   4.964   5.301 -0.9838 -1.0109 -1.4715
15856TIP3    H268984   6.206   4.994   5.361  0.2753  0.2488  0.8861
15857TIP3   OH268985   1.998   3.209  12.621  0.2739  0.1091  0.2808
15857TIP3    H168986   2.081   3.161  12.616 -0.3506 -0.8708 -3.0714
15857TIP3    H268987   1.963   3.187  12.707  0.7257 -4.4404 -0.4392
15858TIP3   OH268988   6.150   1.677   0.189  0.3128  0.4023 -0.1105
15858TIP3    H168989   6.152   1.735   0.113  1.2522  0.7111  0.1446
15858TIP3    H268990   6.219   1.709   0.247  0.4631 -0.6069  0.3007
15859TIP3   OH268991   5.637   6.286  10.683 -0.3245  0.0016 -0.6386
15859TIP3    H168992   5.544   6.277  10.667 -0.6523  0.3409  0.9251
15859TIP3    H268993   5.676   6.206  10.648 -0.9700  0.5556 -2.7405
15860TIP3   OH268994   5.052   2.407  12.535 -0.4795  0.0707 -0.2835
15860TIP3    H168995   5.062   2.353  12.457 -1.5317 -1.6344  0.7018
15860TIP3    H268996   5.123   2.472  12.529  1.7005 -2.2247 -0.8565
15861TIP3   OH268997   1.762   5.894   0.942 -0.0782 -0.3472 -0.3060
15861TIP3    H168998   1.807   5.819   0.902 -1.0972 -0.4633 -1.3141
15861TIP3    H268999   1.808   5.971   0.909  1.1063 -0.5153  0.9023
15862TIP3   OH269000   5.652   3.579  11.274 -0.4898 -0.4557 -0.0791
15862TIP3    H169001   5.597   3.553  11.200  0.6272 -2.0479 -0.4037
15862TIP3    H269002   5.710   3.505  11.288  1.6000  1.1325  0.2133
15863TIP3   OH269003   1.629   5.105   2.187 -0.2331  0.7947  0.1157
15863TIP3    H169004   1.699   5.090   2.250 -0.5754  0.8048  0.5011
15863TIP3    H269005   1.667   5.167   2.123  0.4313  0.0487 -0.2287
15864TIP3   OH269006   4.754   4.067   3.643  0.4976 -0.0822  0.0873
15864TIP3    H169007   4.831   4.074   3.699  0.7510 -0.4987 -0.2124
15864TIP3    H269008   4.758   3.979   3.606  0.2816  0.1597 -0.5256
15865TIP3   OH269009   6.205   2.055  16.635 -0.1737  0.7075 -0.0790
15865TIP3    H169010   6.214   1.972  16.588 -0.4238  0.3506  0.4885
15865TIP3    H269011   6.117   2.085  16.613 -1.1291 -0.5018  1.7484
15866TIP3   OH269012   5.174   4.780  16.862  0.3497 -0.2704 -0.0776
15866TIP3    H169013   5.135   4.740  16.940 -0.4210 -0.5688 -0.6030
15866TIP3    H269014   5.268   4.778  16.879  0.1980 -0.4180  0.8031
15867TIP3   OH269015   1.843   0.712  14.713 -0.4810 -0.0615  0.2854
15867TIP3    H169016   1.836   0.722  14.808 -4.4242  0.7663  0.0643
15867TIP3    H269017   1.805   0.626  14.696  1.1933 -0.6706 -0.5179
15868TIP3   OH269018   5.490   4.966  13.816  0.1990 -0.3208 -0.5676
15868TIP3    H169019   5.569   5.020  13.828  1.9554 -2.7523 -0.4000
15868TIP3    H269020   5.466   4.940  13.905  0.1593 -0.8408 -0.7274
15869TIP3   OH269021   2.281   2.660   4.751 -0.0447  0.2971 -0.0450
15869TIP3    H169022   2.350   2.707   4.704  0.9744  0.3945  1.4883
15869TIP3    H269023   2.310   2.569   4.749  0.0490  0.3152  0.4626
15870TIP3   OH269024   5.989   6.495   1.013 -0.0455 -0.4489  0.1062
15870TIP3    H169025   5.966   6.533   0.928  1.5705 -1.3536 -0.7621
15870TIP3    H269026   5.923   6.427   1.027 -0.6173  0.0364 -0.1851
15871TIP3   OH269027   1.539   6.036  10.779 -0.1615  0.3908 -0.0960
15871TIP3    H169028   1.477   6.077  10.719 -0.2266  0.4778  0.0302
15871TIP3    H269029   1.608   6.001  10.722  0.3750  1.4761 -0.1515
15872TIP3   OH269030   2.362   1.343   2.152 -0.2802 -0.3122 -0.4795
15872TIP3    H169031   2.271   1.345   2.182  0.0286  0.2786  0.4328
15872TIP3    H269032   2.414   1.325   2.230  0.4745  0.4152 -0.8003
15873TIP3   OH269033   1.236   5.112   0.691 -0.3905  0.4228  0.0114
15873TIP3    H169034   1.170   5.152   0.634 -1.2716 -0.9432  0.0488
15873TIP3    H269035   1.310   5.173   0.688 -0.7080  0.7741 -1.9977
15874TIP3   OH269036   2.223   6.363   1.514 -0.1207 -0.2740 -0.6935
15874TIP3    H169037   2.254   6.448   1.545 -0.8828  0.1527 -1.0774
15874TIP3    H269038   2.190   6.380   1.426 -0.4878 -0.9269 -0.6912
15875TIP3   OH269039   1.314   2.789   5.247 -0.1821  0.1129  0.6464
15875TIP3    H169040   1.322   2.852   5.176 -2.1215  1.2085  1.3366
15875TIP3    H269041   1.307   2.704   5.203  2.2931  0.3181 -0.2991
15876TIP3   OH269042   1.005   2.985  16.070 -0.2275  0.5587  0.8512
15876TIP3    H169043   0.910   2.989  16.063 -0.1863  0.8843  0.3199
15876TIP3    H269044   1.031   2.922  16.002 -0.0816  0.2939  1.1545
15877TIP3   OH269045   0.116   4.202  16.193  0.3660 -0.3823  0.5489
15877TIP3    H169046   0.161   4.242  16.118 -0.7707 -0.7335 -0.3456
15877TIP3    H269047   0.173   4.129  16.218  1.1247  0.1847  0.4975
15878TIP3   OH269048   1.484   2.412   4.773  0.3233 -0.2078 -0.7503
15878TIP3    H169049   1.399   2.378   4.802  0.6248  0.7303  1.4970
15878TIP3    H269050   1.464   2.469   4.700 -1.1113  0.5711  0.2027
15879TIP3   OH269051   1.906   0.689   5.152 -0.0732  0.1371  0.1515
15879TIP3    H169052   1.979   0.636   5.184 -0.1563  0.3985  0.8058
15879TIP3    H269053   1.938   0.779   5.159 -0.5772  0.2753  0.7852
15880TIP3   OH269054   0.376   5.722  11.914 -0.2905 -0.3045  0.5708
15880TIP3    H169055   0.441   5.662  11.951  0.2488 -0.5592 -0.7468
15880TIP3    H269056   0.312   5.735  11.985  0.2929 -1.3734  1.3187
15881TIP3   OH269057   4.203   2.595   0.525  0.3389  0.8220 -0.4591
15881TIP3    H169058   4.248   2.560   0.602  1.1458  1.5865 -0.5702
15881TIP3    H269059   4.114   2.560   0.531  0.6899  0.0222  0.2519
15882TIP3   OH269060   0.842   3.297  11.419 -0.1131 -0.2020 -0.1215
15882TIP3    H169061   0.886   3.273  11.337  1.2270 -1.7706  0.9823
15882TIP3    H269062   0.801   3.215  11.448 -1.6320  0.6300  0.1897
15883TIP3   OH269063   1.823   3.973  13.863 -0.2420 -0.4306  0.8551
15883TIP3    H169064   1.910   3.980  13.904  0.1313  0.7836 -0.0657
15883TIP3    H269065   1.842   3.968  13.769 -1.1534 -1.0085  0.6933
15884TIP3   OH269066   3.201   0.804   2.957 -0.7880 -0.3382 -0.5240
15884TIP3    H169067   3.177   0.846   3.040 -0.3955 -1.4716  0.1912
15884TIP3    H269068   3.130   0.827   2.897 -1.5107 -0.1801  0.3612
15885TIP3   OH269069   3.925   1.512   3.604  0.0834 -0.0829  0.1500
15885TIP3    H169070   3.966   1.590   3.640  1.1131 -0.5593  0.0651
15885TIP3    H269071   3.841   1.542   3.570  1.4040  1.5035 -1.9978
15886TIP3   OH269072   5.287   2.782  14.487 -0.1022 -0.6534 -0.3420
15886TIP3    H169073   5.281   2.718  14.558 -2.0937 -0.0171  0.1192
15886TIP3    H269074   5.203   2.777  14.443 -0.2518  1.5167 -0.4154
15887TIP3   OH269075   4.943   1.553  15.334  0.2667  0.1197  0.1716
15887TIP3    H169076   5.004   1.566  15.406 -0.2074  2.1410  0.2816
15887TIP3    H269077   4.912   1.641  15.313 -1.9736 -0.7428 -0.4436
15888TIP3   OH269078   3.540   5.394   3.471  0.2057 -0.4455 -0.1698
15888TIP3    H169079   3.615   5.451   3.491  1.0884 -0.8806 -1.9972
15888TIP3    H269080   3.579   5.315   3.433 -1.1369 -1.0659 -0.3288
15889TIP3   OH269081   4.558   2.589   4.266 -0.4276  0.3077 -0.9639
15889TIP3    H169082   4.618   2.662   4.253  0.5946  0.0102  1.5895
15889TIP3    H269083   4.511   2.611   4.346  0.4201 -2.1103  0.2872
15890TIP3   OH269084   6.129   3.773   3.621  0.4161 -0.6864  0.4936
15890TIP3    H169085   6.073   3.846   3.592  1.7740 -0.6742 -2.4880
15890TIP3    H269086   6.068   3.702   3.641 -0.7769 -0.3762 -1.7282
15891TIP3   OH269087   1.509   1.305  16.201  0.2527  0.5150 -0.3702
15891TIP3    H169088   1.447   1.232  16.209  0.7789  0.0804 -0.1606
15891TIP3    H269089   1.575   1.272  16.139 -0.5253  1.5367 -1.8038
15892TIP3   OH269090   1.988   5.097   0.376 -0.0552 -0.3008  0.0686
15892TIP3    H169091   1.912   5.124   0.325  0.5657 -1.0343 -1.3145
15892TIP3    H269092   2.060   5.097   0.313  0.4453 -2.7511  0.5571
15893TIP3   OH269093   3.618   0.329   4.530 -0.1762 -0.2666  0.2280
15893TIP3    H169094   3.583   0.304   4.445 -0.0709  0.7437 -0.1251
15893TIP3    H269095   3.662   0.251   4.562  0.0112 -0.5801 -0.7610
15894TIP3   OH269096   3.819   4.366  13.909 -1.0058 -0.2253  0.3990
15894TIP3    H169097   3.910   4.390  13.921 -0.8390 -1.2469  1.3069
15894TIP3    H269098   3.771   4.448  13.926 -0.2589  0.4202 -0.5008
15895TIP3   OH269099   2.144   5.244  13.515 -0.6456 -0.0567  0.4067
15895TIP3    H169100   2.083   5.184  13.474  1.5286 -0.3374 -2.7520
15895TIP3    H269101   2.206   5.267  13.446  2.1234  1.1406  3.0349
15896TIP3   OH269102   5.741   1.047  14.987  0.0979  0.2264 -0.4708
15896TIP3    H169103   5.717   1.085  15.072  1.3893 -2.5066  1.2278
15896TIP3    H269104   5.677   0.977  14.973  1.1126 -0.6872 -0.7032
15897TIP3   OH269105   5.649   2.570  14.455 -0.2706  0.4168  0.3772
15897TIP3    H169106   5.616   2.505  14.517  0.0489  1.1511  1.3397
15897TIP3    H269107   5.571   2.600  14.408 -0.6702  0.6033  1.1462
15898TIP3   OH269108   5.649   0.183   4.922  0.7109  0.0099 -0.2364
15898TIP3    H169109   5.620   0.239   4.850 -0.1639 -0.1219  0.0040
15898TIP3    H269110   5.668   0.098   4.881 -0.9575 -0.4356 -0.1581
15899TIP3   OH269111   0.607   6.500   1.837 -0.4116  0.3145  0.6109
15899TIP3    H169112   0.573   6.589   1.828 -1.7302 -0.1585  0.6831
15899TIP3    H269113   0.536   6.444   1.807  1.4365 -0.6757 -2.4031
15900TIP3   OH269114   5.719   3.632   4.434  0.2692  0.9820 -0.0186
15900TIP3    H169115   5.760   3.657   4.352 -1.3620 -0.1164 -1.2407
15900TIP3    H269116   5.781   3.572   4.476 -0.2131 -1.1451 -2.1016
15901TIP3   OH269117   5.053   1.808  17.243  0.8468 -0.1905  0.1748
15901TIP3    H169118   5.018   1.879  17.296  2.4026  0.1564  0.8010
15901TIP3    H269119   5.015   1.728  17.279 -0.8950  0.2848 -0.5196
15902TIP3   OH269120   4.197   2.966  12.135  0.1610 -0.0872  0.4200
15902TIP3    H169121   4.281   2.919  12.141  0.3832  0.4611  2.4097
15902TIP3    H269122   4.171   2.958  12.043  1.8610 -1.1886 -0.0070
15903TIP3   OH269123   6.045   1.359  15.355  0.6667 -0.0892 -0.4777
15903TIP3    H169124   6.127   1.310  15.350  0.5582 -0.2452 -0.7702
15903TIP3    H269125   6.053   1.426  15.288  0.7561  0.2066 -0.1742
15904TIP3   OH269126   3.223   3.291   0.504 -0.1560 -0.3615  0.1989
15904TIP3    H169127   3.259   3.209   0.536  0.7244  0.9345  2.7742
15904TIP3    H269128   3.298   3.335   0.463  0.7540  1.2269  3.2898
15905TIP3   OH269129   6.741   0.568  16.497 -0.3469 -0.3150 -0.1204
15905TIP3    H169130   6.771   0.488  16.454  0.2671  0.4811 -1.2357
15905TIP3    H269131   6.646   0.562  16.495 -0.4110  0.1878 -2.6836
15906TIP3   OH269132   0.323   3.648  12.325  0.1096 -0.3154 -0.4694
15906TIP3    H169133   0.358   3.615  12.242  0.1670  0.0893 -0.6082
15906TIP3    H269134   0.345   3.742  12.325  0.3922 -0.3773  0.1486
15907TIP3   OH269135   1.583   6.389   0.321 -0.7220 -0.3802 -0.2181
15907TIP3    H169136   1.667   6.433   0.308 -1.6683  0.9260 -2.4121
15907TIP3    H269137   1.600   6.298   0.297 -0.0067 -0.0495 -1.0333
15908TIP3   OH269138   0.333   1.129  17.234 -0.2957  0.6787 -0.3227
15908TIP3    H169139   0.311   1.037  17.218 -0.3235  0.6590 -0.1748
15908TIP3    H269140   0.416   1.126  17.282 -0.9954  0.6671  0.9442
15909TIP3   OH269141   1.191   1.796  11.733 -0.3591  0.1453  0.3581
15909TIP3    H169142   1.265   1.772  11.677 -0.8470 -1.1767  0.2590
15909TIP3    H269143   1.229   1.855  11.798  0.4043  0.9741 -0.7911
15910TIP3   OH269144   2.906   3.965   5.364  0.0202  0.2185 -0.1816
15910TIP3    H169145   2.997   3.976   5.337  0.4428 -0.3850  0.9484
15910TIP3    H269146   2.858   3.951   5.282  1.2316 -1.4495 -0.6479
15911TIP3   OH269147   0.689   5.810  11.755 -0.5374 -0.2032  0.5700
15911TIP3    H169148   0.667   5.877  11.821 -0.4196  0.1820  0.2211
15911TIP3    H269149   0.784   5.814  11.748 -0.5580 -0.1834  0.3119
15912TIP3   OH269150   3.814   2.607  16.648 -0.6431 -0.3104 -1.1457
15912TIP3    H169151   3.751   2.563  16.705 -0.0370  0.8364  0.4807
15912TIP3    H269152   3.768   2.684  16.615 -1.4072 -1.5900 -3.2858
15913TIP3   OH269153   4.302   2.626   1.472  0.5999  0.8139  0.3159
15913TIP3    H169154   4.363   2.700   1.477  0.4919  0.9943 -0.7061
15913TIP3    H269155   4.237   2.654   1.407 -0.4278  0.5200  1.1970
15914TIP3   OH269156   3.473   3.644   0.209  0.9115  0.4559 -0.0173
15914TIP3    H169157   3.490   3.652   0.116  1.5199  0.9924  0.1312
15914TIP3    H269158   3.481   3.551   0.228  0.3173  0.2850 -0.5796
15915TIP3   OH269159   5.286   4.847   4.623 -0.1933  0.4425  0.1033
15915TIP3    H169160   5.248   4.919   4.674 -0.8981  0.6049 -0.6314
15915TIP3    H269161   5.210   4.805   4.582  0.2856 -0.2564 -0.0666
15916TIP3   OH269162   4.574   2.707   5.432  0.7278  0.6947  0.8153
15916TIP3    H169163   4.570   2.647   5.357  2.7492  0.1398  1.1156
15916TIP3    H269164   4.531   2.659   5.503  1.6609 -0.1111  0.8540
15917TIP3   OH269165   4.164   2.898  13.642  0.7583 -0.4893 -0.1323
15917TIP3    H169166   4.169   2.973  13.582  0.0412 -0.9812 -0.8112
15917TIP3    H269167   4.246   2.851  13.627  1.2271  0.1549  0.3157
15918TIP3   OH269168   6.677   4.888   4.885  0.7388  0.2731 -0.3382
15918TIP3    H169169   6.642   4.944   4.815  1.2890 -0.3073 -1.0938
15918TIP3    H269170   6.602   4.871   4.942  0.4152  1.2363 -0.4597
15919TIP3   OH269171   5.512   4.814   5.777 -0.5676  0.1529 -0.6289
15919TIP3    H169172   5.506   4.878   5.848  0.4869 -0.9722  0.5214
15919TIP3    H269173   5.480   4.733   5.815 -1.7510 -0.0901 -2.0258
15920TIP3   OH269174   2.677   4.343  17.232  0.8002  0.4610 -0.2663
15920TIP3    H169175   2.671   4.431  17.270  0.6021  0.2654  0.1571
15920TIP3    H269176   2.742   4.352  17.162  1.0342  0.8671 -0.0033
15921TIP3   OH269177   4.796   1.024   4.421 -0.1535 -0.2713 -0.1640
15921TIP3    H169178   4.861   0.988   4.482 -0.6867 -0.8160  0.1011
15921TIP3    H269179   4.714   1.022   4.470 -0.4598 -0.0532 -0.6600
15922TIP3   OH269180   5.907   4.239  11.343 -0.0956  0.1210 -0.5191
15922TIP3    H169181   5.937   4.268  11.430  0.1742 -1.7303  0.0595
15922TIP3    H269182   5.977   4.265  11.283  0.2625  0.3975  0.0112
15923TIP3   OH269183   2.789   4.520  13.315  0.4514  0.9905  0.0906
15923TIP3    H169184   2.717   4.468  13.350  1.2014 -0.1605 -0.0326
15923TIP3    H269185   2.867   4.485  13.358  1.1897  0.7448 -1.4012
15924TIP3   OH269186   5.913   1.146   5.785  0.3053  0.4727  0.0764
15924TIP3    H169187   6.003   1.179   5.790  0.2683  0.9197 -1.5724
15924TIP3    H269188   5.922   1.057   5.752  0.1125  0.7898 -0.8528
15925TIP3   OH269189   4.355   4.143  12.083  0.4935 -0.3057  0.1109
15925TIP3    H169190   4.274   4.166  12.129  1.0759  0.6392  0.7042
15925TIP3    H269191   4.325   4.104  12.000 -0.5609 -0.3856  0.5102
15926TIP3   OH269192   2.014   3.728  15.348  0.0051  0.4650 -0.0483
15926TIP3    H169193   1.920   3.745  15.341 -0.5339 -2.4518 -1.0667
15926TIP3    H269194   2.054   3.814  15.337 -2.5168  1.8328  0.6131
15927TIP3   OH269195   0.376   3.471   4.708 -0.4772 -0.2101 -0.0499
15927TIP3    H169196   0.306   3.536   4.699 -0.3919  0.2577  2.1743
15927TIP3    H269197   0.354   3.423   4.788  0.1111 -2.1554 -0.9963
15928TIP3   OH269198   3.492   4.060   2.655 -0.5486  0.4303 -0.2969
15928TIP3    H169199   3.555   4.003   2.612 -0.8764 -1.0515  1.0912
15928TIP3    H269200   3.489   4.139   2.600 -0.2259 -0.9500 -2.4027
15929TIP3   OH269201   0.932   6.292   4.177 -0.3674 -0.0944 -0.1726
15929TIP3    H169202   0.924   6.370   4.233 -0.8433  1.1137 -1.8387
15929TIP3    H269203   1.020   6.260   4.194 -0.1337  0.8551  0.5138
15930TIP3   OH269204   2.366   3.628   2.448 -0.2099  0.3201 -0.1569
15930TIP3    H169205   2.375   3.572   2.525 -2.4056 -0.2734 -0.2551
15930TIP3    H269206   2.434   3.694   2.459 -2.8496  2.8391  4.5611
15931TIP3   OH269207   2.054   4.145   4.658  0.1426 -0.2555 -0.0007
15931TIP3    H169208   2.021   4.227   4.621  1.2415  0.6727  0.9911
15931TIP3    H269209   2.149   4.157   4.661  0.1731 -0.6374  2.2364
15932TIP3   OH269210   3.801   3.215  16.984 -0.2367 -0.3126 -0.3962
15932TIP3    H169211   3.796   3.120  16.998  2.3217 -0.5165 -0.4629
15932TIP3    H269212   3.865   3.225  16.914 -1.8652  1.4351 -1.7403
15933TIP3   OH269213   6.649   0.330   0.956 -0.0700 -1.3099 -0.2314
15933TIP3    H169214   6.591   0.341   1.032  0.2872 -1.1160  0.0170
15933TIP3    H269215   6.704   0.255   0.979 -0.0557 -1.3382 -0.3598
15934TIP3   OH269216   4.922   5.839  15.059  0.1163  0.0818 -0.0729
15934TIP3    H169217   4.868   5.896  15.005 -1.3244 -1.6751 -0.6118
15934TIP3    H269218   4.914   5.753  15.018 -0.8745 -1.3024  2.7434
15935TIP3   OH269219   2.730   5.931   5.908  0.3740  0.1923 -0.3361
15935TIP3    H169220   2.649   5.955   5.952 -0.4554 -0.7878 -1.2697
15935TIP3    H269221   2.787   5.898   5.978 -0.9362 -1.4025  0.0262
15936TIP3   OH269222   5.403   0.156   2.697  0.0184 -0.5434 -0.6696
15936TIP3    H169223   5.318   0.158   2.741  0.1560  0.8572 -0.4257
15936TIP3    H269224   5.439   0.244   2.710  0.7537 -0.5778 -2.2313
15937TIP3   OH269225   2.141   6.617  12.628 -0.1633 -0.0909  0.0153
15937TIP3    H169226   2.097   6.584  12.550 -0.3476  1.3923 -0.5351
15937TIP3    H269227   2.201   6.684  12.595  0.5410 -0.1907  1.0460
15938TIP3   OH269228   0.157   4.265   4.309 -0.7536  0.1755  0.8754
15938TIP3    H169229   0.123   4.279   4.220  1.7570 -0.2273 -0.2460
15938TIP3    H269230   0.227   4.329   4.318  0.8166 -1.5262  1.4734
15939TIP3   OH269231   3.746   3.762  16.736  0.4348  0.1796  0.4596
15939TIP3    H169232   3.759   3.854  16.758 -0.2551  0.6005 -0.8209
15939TIP3    H269233   3.654   3.745  16.756 -0.1301  0.4882 -1.6253
15940TIP3   OH269234   1.409   3.969  17.017 -0.1337 -0.0330  0.1680
15940TIP3    H169235   1.444   4.026  17.085 -0.1280 -0.2781  0.3696
15940TIP3    H269236   1.486   3.924  16.982 -0.1264  0.1533 -0.0572
15941TIP3   OH269237   2.719   6.416  13.964 -0.0501 -0.1051  0.0270
15941TIP3    H169238   2.791   6.478  13.966 -1.1168  1.1967 -0.7175
15941TIP3    H269239   2.646   6.463  14.004 -2.0195  0.6880 -4.0556
15942TIP3   OH269240   3.877   5.947   1.733 -0.1662  0.0094 -0.4246
15942TIP3    H169241   3.883   5.855   1.758  0.5252 -0.2505 -1.5006
15942TIP3    H269242   3.784   5.960   1.711 -0.5400 -0.0663  0.9968
15943TIP3   OH269243   5.827   3.023  12.213  0.0958 -0.5710 -0.1905
15943TIP3    H169244   5.777   3.095  12.252  2.3773  1.4479 -0.7114
15943TIP3    H269245   5.818   3.036  12.118  1.0617 -0.5628 -0.2862
15944TIP3   OH269246   2.676   5.222  15.420 -0.3342 -0.3021  0.5334
15944TIP3    H169247   2.679   5.126  15.427 -1.4847 -0.3560  0.4545
15944TIP3    H269248   2.605   5.248  15.477  2.0733  0.8335  3.2525
15945TIP3   OH269249   4.376   6.202  12.388 -0.1337 -0.1731 -0.2191
15945TIP3    H169250   4.438   6.178  12.319  0.9470  0.4487  0.5006
15945TIP3    H269251   4.397   6.293  12.408  0.3708 -0.6734  1.7127
15946TIP3   OH269252   1.365   3.622  16.535  0.1525  0.1926  0.1173
15946TIP3    H169253   1.281   3.589  16.567  0.5458  1.0618  2.2631
15946TIP3    H269254   1.421   3.623  16.613  1.4217  1.8674 -0.7507
15947TIP3   OH269255   4.852   6.640   4.019 -0.3824 -0.8139 -0.4230
15947TIP3    H169256   4.858   6.705   4.089  2.3432 -1.0837 -0.2930
15947TIP3    H269257   4.803   6.568   4.058 -1.5019  0.2253  0.1736
15948TIP3   OH269258   6.719   5.363   0.334 -0.0077 -0.2144 -0.1731
15948TIP3    H169259   6.638   5.410   0.313  0.6394  1.3842  0.7285
15948TIP3    H269260   6.768   5.423   0.390  1.5728 -1.3623 -0.2460
15949TIP3   OH269261   2.747   3.151  16.604 -0.0423  0.9135 -0.0150
15949TIP3    H169262   2.714   3.145  16.514  1.1975 -1.5418 -0.3847
15949TIP3    H269263   2.686   3.099  16.656  1.5849 -1.4432 -0.2746
15950TIP3   OH269264   4.310   1.376   1.995  0.1372  0.2527  0.4781
15950TIP3    H169265   4.328   1.463   2.031  1.0566  1.0473 -1.6738
15950TIP3    H269266   4.390   1.326   2.013  0.1002  0.2518  0.6381
15951TIP3   OH269267   1.157   0.696  15.191  0.5135  0.0194 -0.0266
15951TIP3    H169268   1.112   0.774  15.159 -0.9340 -1.2660 -1.3011
15951TIP3    H269269   1.240   0.729  15.226  0.6078  1.9430 -1.8706
15952TIP3   OH269270   1.565   3.241  13.313 -0.1232  0.1811 -0.2230
15952TIP3    H169271   1.471   3.225  13.300 -0.7315  3.0216  0.1226
15952TIP3    H269272   1.578   3.234  13.407  0.3578 -1.5330 -0.3746
15953TIP3   OH269273   2.691   0.099   6.567 -0.0871  0.0070 -0.3160
15953TIP3    H169274   2.773   0.150   6.567 -0.0465 -0.0582 -0.3055
15953TIP3    H269275   2.720   0.008   6.565 -0.1599 -0.0164 -0.2920
15954TIP3   OH269276   1.938   6.101  13.979 -0.1749 -0.1418 -0.4174
15954TIP3    H169277   1.949   6.044  13.903  0.8401  0.4515 -0.7249
15954TIP3    H269278   2.027   6.125  14.004 -0.4978 -0.2204  0.8887
15955TIP3   OH269279   0.785   3.379  11.860 -0.3566 -0.6674 -0.3324
15955TIP3    H169280   0.820   3.395  11.773 -0.9232  3.2073 -0.0137
15955TIP3    H269281   0.862   3.361  11.914  0.5145  1.3417 -0.8455
15956TIP3   OH269282   3.364   2.175  10.280  0.4308  0.3076  0.7096
15956TIP3    H169283   3.394   2.155  10.368  1.5667  2.8685  0.9851
15956TIP3    H269284   3.424   2.126  10.223  0.5006 -0.3400  1.3271
15957TIP3   OH269285   0.003   3.317  15.686  0.3355 -0.1985  0.3397
15957TIP3    H169286   0.016   3.399  15.735  0.6830  0.0852 -0.2181
15957TIP3    H269287  -0.069   3.273  15.732 -1.5898  1.5765 -0.7913
15958TIP3   OH269288   4.887   0.605   3.209  1.1349  0.3289  0.0658
15958TIP3    H169289   4.834   0.591   3.287 -0.5515  0.3666 -1.0279
15958TIP3    H269290   4.831   0.654   3.149  2.3095  0.1482 -1.2541
15959TIP3   OH269291   2.537   3.985   2.404 -0.3900 -0.1492  0.2903
15959TIP3    H169292   2.577   4.068   2.429 -2.4231  0.8527  0.4055
15959TIP3    H269293   2.527   3.937   2.487  0.1353 -0.2104  0.3188
15960TIP3   OH269294   3.884   1.828   4.807  0.0734 -0.0847  0.2656
15960TIP3    H169295   3.980   1.831   4.807  0.2411 -2.5940 -1.0218
15960TIP3    H269296   3.860   1.836   4.900  1.4033  1.9006  0.4911
15961TIP3   OH269297   2.282   6.259  12.022 -0.2060  0.1895  0.5521
15961TIP3    H169298   2.367   6.301  12.029  1.1530 -1.8861 -1.9468
15961TIP3    H269299   2.287   6.184  12.082  0.0668 -0.4057 -0.2028
15962TIP3   OH269300   5.859   3.483   4.612 -0.6532  0.2808 -0.0458
15962TIP3    H169301   5.875   3.389   4.621  1.5551  0.7269  1.6630
15962TIP3    H269302   5.863   3.517   4.702 -1.2245  2.0396 -0.6378
15963TIP3   OH269303   5.274   5.341   1.934 -0.3336  0.1621  0.0764
15963TIP3    H169304   5.183   5.313   1.942 -0.7719  1.2733 -0.7538
15963TIP3    H269305   5.325   5.273   1.979 -1.5304 -0.6996  0.1537
15964TIP3   OH269306   0.844   0.773   6.216  0.0168  0.1266  0.1872
15964TIP3    H169307   0.753   0.746   6.232  0.3012 -1.1217 -0.2086
15964TIP3    H269308   0.894   0.727   6.283  0.2452  1.7315  1.1481
15965TIP3   OH269309   1.017   4.326   1.497 -0.1357 -0.0235 -0.2020
15965TIP3    H169310   0.949   4.368   1.550  1.8287  0.1781  2.3570
15965TIP3    H269311   0.999   4.232   1.504 -0.2948  0.0382  0.2543
15966TIP3   OH269312   1.051   2.552   5.753 -0.7674 -0.2172  0.0847
15966TIP3    H169313   1.130   2.591   5.790  0.3686 -1.7130 -0.6249
15966TIP3    H269314   1.030   2.480   5.813  1.1019 -2.6813 -1.9823
15967TIP3   OH269315   1.313   0.199   4.502  0.4540 -1.0749 -0.0190
15967TIP3    H169316   1.248   0.193   4.573  0.9290  0.2957  0.5768
15967TIP3    H269317   1.318   0.293   4.483  0.3133 -1.4073 -1.9258
15968TIP3   OH269318   5.480   1.837   0.887 -0.4292 -0.4072  0.1532
15968TIP3    H169319   5.392   1.875   0.881 -0.2979  0.2032  1.7126
15968TIP3    H269320   5.464   1.747   0.918 -0.5299 -0.5144 -0.1993
15969TIP3   OH269321   6.667   4.340   5.419 -0.0862 -0.3889  0.3062
15969TIP3    H169322   6.596   4.385   5.465  0.2096  0.0766  0.3242
15969TIP3    H269323   6.646   4.247   5.427 -1.7726 -0.2166 -1.4387
15970TIP3   OH269324   2.072   5.064   5.590  0.3078  0.1403  0.3280
15970TIP3    H169325   1.979   5.041   5.591  0.2123  0.5097  1.4654
15970TIP3    H269326   2.087   5.104   5.676  1.4485  0.3599  0.0326
15971TIP3   OH269327   6.617   0.398   9.898  0.2911 -0.2214 -0.3058
15971TIP3    H169328   6.601   0.479   9.849  1.4319 -0.4694 -1.1328
15971TIP3    H269329   6.532   0.376   9.936 -0.5592  0.2057 -1.8403
15972TIP3   OH269330   0.486   0.228   1.957 -0.0278 -0.4819  0.4070
15972TIP3    H169331   0.391   0.214   1.952 -0.1003  0.1185  0.1221
15972TIP3    H269332   0.495   0.312   2.002  0.3379  0.0923 -0.7175
15973TIP3   OH269333   3.415   6.016  15.059  0.1434  0.3035  0.3143
15973TIP3    H169334   3.399   6.018  14.965  0.6744 -0.9757  0.1693
15973TIP3    H269335   3.345   6.070  15.097 -1.2990 -0.8020 -0.6616
15974TIP3   OH269336   3.567   5.604   0.690 -1.1106 -0.4052 -0.1576
15974TIP3    H169337   3.490   5.553   0.664 -1.4683 -2.7254  4.4478
15974TIP3    H269338   3.534   5.664   0.757  0.9347 -1.0112  1.4561
15975TIP3   OH269339   0.758   0.723  17.214  0.3820 -0.3100 -0.4686
15975TIP3    H169340   0.687   0.676  17.259 -0.6852 -0.9158 -2.6098
15975TIP3    H269341   0.714   0.799  17.174  1.1354 -0.1425 -0.9899
15976TIP3   OH269342   4.062   2.767  15.240  0.0296  0.1633  0.6006
15976TIP3    H169343   4.046   2.676  15.216  0.3684  0.5048 -1.0356
15976TIP3    H269344   4.033   2.817  15.163  2.5055  1.2485  0.3007
15977TIP3   OH269345   4.701   2.669   6.796 -0.0464 -0.2153 -0.1508
15977TIP3    H169346   4.656   2.656   6.712  0.4377 -3.6933 -0.0461
15977TIP3    H269347   4.651   2.615   6.858  0.7643  0.7071  1.3536
15978TIP3   OH269348   5.369   4.124  13.003  0.0345 -0.4712 -0.1551
15978TIP3    H169349   5.443   4.092  13.054  1.2973 -0.7306 -2.0357
15978TIP3    H269350   5.298   4.063  13.022  0.6748 -0.9557  0.7405
15979TIP3   OH269351   4.852   4.380   2.130 -0.0365  0.3394  0.7959
15979TIP3    H169352   4.891   4.293   2.136  0.4562  0.4711 -0.2169
15979TIP3    H269353   4.925   4.437   2.104 -0.3339  1.0756  1.5293
15980TIP3   OH269354   4.117   2.959   5.621 -0.6242 -0.4065 -0.1008
15980TIP3    H169355   4.121   2.888   5.556 -0.1180 -1.2086  0.7796
15980TIP3    H269356   4.204   2.959   5.661 -1.1086 -0.3219  0.9776
15981TIP3   OH269357   3.024   1.290  15.158  0.6420 -0.1987  0.3903
15981TIP3    H169358   2.972   1.336  15.091  0.6378  0.4861  0.8563
15981TIP3    H269359   3.019   1.198  15.132  0.4085  0.0229 -0.3977
15982TIP3   OH269360   1.321   3.190   2.971  0.1454  0.2386 -0.5136
15982TIP3    H169361   1.398   3.199   3.027 -0.9395  0.2254  1.0366
15982TIP3    H269362   1.254   3.244   3.013 -1.5127 -1.8545 -0.2775
15983TIP3   OH269363   4.750   3.110  17.205 -0.3218 -0.2049 -0.0690
15983TIP3    H169364   4.698   3.158  17.270 -0.5249 -1.1408  0.4774
15983TIP3    H269365   4.710   3.132  17.121 -1.7549 -1.0798  0.3633
15984TIP3   OH269366   2.125   5.270  16.319 -0.2687  0.1804  0.1265
15984TIP3    H169367   2.203   5.253  16.268  0.3496 -0.4554  1.2433
15984TIP3    H269368   2.063   5.201  16.295  0.3563 -0.6678  0.8778
15985TIP3   OH269369   1.500   4.065   5.323  0.5320 -0.8595 -0.2790
15985TIP3    H169370   1.499   4.040   5.416 -2.3749  0.7363  0.2398
15985TIP3    H269371   1.506   4.161   5.325 -0.3311 -0.7526 -1.6990
15986TIP3   OH269372   2.966   6.309  12.585 -0.2392 -0.3937  0.4062
15986TIP3    H169373   2.997   6.370  12.517  0.9281  0.4247  1.6311
15986TIP3    H269374   2.945   6.229  12.537 -1.5444  0.8543 -1.2224
15987TIP3   OH269375   5.444   3.078   1.046  0.1092  0.1010 -0.2953
15987TIP3    H169376   5.515   3.082   1.110  0.7573  1.2367 -1.0695
15987TIP3    H269377   5.426   2.984   1.038 -0.1377 -0.0733  1.6828
15988TIP3   OH269378   5.272   6.244  15.993  0.7980  0.2267 -1.0009
15988TIP3    H169379   5.184   6.212  16.014  1.1524 -0.1118  0.0470
15988TIP3    H269380   5.330   6.181  16.036  1.5342  1.1400 -0.6376
15989TIP3   OH269381   0.997   3.147   5.724  0.1316 -0.2906  0.5226
15989TIP3    H169382   1.052   3.171   5.798  0.3765  3.1386 -0.6046
15989TIP3    H269383   0.908   3.148   5.759  0.3488 -0.1481  1.0719
15990TIP3   OH269384   3.257   2.385  12.079  0.5712 -0.2182 -0.4520
15990TIP3    H169385   3.198   2.437  12.024  1.3942  0.7378 -0.4710
15990TIP3    H269386   3.203   2.358  12.153 -0.1097 -0.0932 -0.8887
15991TIP3   OH269387   5.984   5.317   3.823  0.2496 -0.4842  0.1767
15991TIP3    H169388   5.984   5.402   3.780  2.3729 -0.8887 -0.7614
15991TIP3    H269389   5.971   5.254   3.752  1.0261 -1.0470  0.5241
15992TIP3   OH269390   5.628   5.644   1.083  0.5633  0.5250  1.4790
15992TIP3    H169391   5.714   5.604   1.072  0.1654 -0.1956  0.8735
15992TIP3    H269392   5.582   5.587   1.145  0.0851  0.1761  0.8164
15993TIP3   OH269393   2.898   5.413   4.056  0.0844 -0.2355  0.1676
15993TIP3    H169394   2.978   5.414   4.003  0.0802 -2.3826  0.0273
15993TIP3    H269395   2.838   5.357   4.007 -0.6115 -0.7104  1.5130
15994TIP3   OH269396   3.013   1.247  13.570 -0.1447  0.2116  0.1728
15994TIP3    H169397   2.941   1.297  13.533 -1.0610 -1.6902 -0.7791
15994TIP3    H269398   3.084   1.255  13.506 -0.9773 -1.2700 -1.0040
15995TIP3   OH269399   2.327   3.144   0.772  0.1642 -0.0825  0.0546
15995TIP3    H169400   2.303   3.235   0.758  0.0540 -0.2170 -0.7152
15995TIP3    H269401   2.324   3.132   0.867  1.9911  1.2026  0.3300
15996TIP3   OH269402   2.951   3.546   0.963  0.2659  0.1493 -0.1125
15996TIP3    H169403   2.954   3.471   1.023 -0.7372  2.8202  3.5914
15996TIP3    H269404   2.905   3.512   0.886 -0.4699 -2.9567  1.5110
15997TIP3   OH269405   2.178   3.083   3.415  0.1915 -0.4459  0.0364
15997TIP3    H169406   2.176   3.171   3.379  1.5932  0.3286  1.7293
15997TIP3    H269407   2.096   3.074   3.464 -1.0562 -0.9961 -2.0175
15998TIP3   OH269408   3.806   1.995  13.124  0.0879  0.2467  0.7483
15998TIP3    H169409   3.735   2.036  13.076 -0.6178 -1.8754 -0.1111
15998TIP3    H269410   3.843   1.930  13.064  0.9877 -0.5669  2.1097
15999TIP3   OH269411   3.773   4.607   2.825  0.1622  0.3164 -0.2614
15999TIP3    H169412   3.687   4.598   2.784  0.2163 -1.4570 -0.0813
15999TIP3    H269413   3.816   4.677   2.777 -1.2861  1.0566 -0.5147
16000TIP3   OH269414   0.935   3.995  14.362  0.6267 -0.7698  0.5817
16000TIP3    H169415   1.028   3.982  14.342  0.7011 -2.0585  1.6291
16000TIP3    H269416   0.916   3.930  14.429 -0.2711  1.4994  2.6797
16001TIP3   OH269417   2.692   4.347  15.315  0.0260  0.0628  0.8538
16001TIP3    H169418   2.599   4.345  15.339 -0.0376 -0.2265  0.5863
16001TIP3    H269419   2.709   4.439  15.295 -0.2517  0.0838  0.7068
16002TIP3   OH269420   0.389   6.590   6.457  0.1709  0.0642 -0.0931
16002TIP3    H169421   0.462   6.650   6.441  0.8680 -0.1898  1.8406
16002TIP3    H269422   0.390   6.531   6.382  0.7717  1.1860 -1.0076
16003TIP3   OH269423   0.299   4.167  11.232  0.1693 -0.1251 -0.2291
16003TIP3    H169424   0.249   4.147  11.311 -2.1307 -0.8945 -1.7532
16003TIP3    H269425   0.243   4.228  11.183  1.5047  0.3015 -1.2942
16004TIP3   OH269426   6.025   4.803  16.745 -0.5221 -0.3677  0.8308
16004TIP3    H169427   6.113   4.774  16.767  0.3210 -0.1391 -1.8194
16004TIP3    H269428   6.017   4.785  16.651 -2.8537  0.7449  0.7401
16005TIP3   OH269429   3.482   4.724  17.128  0.1668  0.4217 -0.4635
16005TIP3    H169430   3.462   4.667  17.053  0.0592  1.1222 -0.9783
16005TIP3    H269431   3.563   4.768  17.104  1.5185 -1.1779  0.9146
16006TIP3   OH269432   6.578   6.638  17.067 -0.1061 -0.1980  0.0425
16006TIP3    H169433   6.548   6.579  17.136  0.1825 -1.1078 -0.5951
16006TIP3    H269434   6.517   6.624  16.994  0.8061 -0.7737 -0.6306
16007TIP3   OH269435   3.774   4.089   2.384 -0.0542  0.1017 -0.0501
16007TIP3    H169436   3.735   4.163   2.430 -0.9776 -0.5348  0.2121
16007TIP3    H269437   3.864   4.085   2.417 -0.3579  0.3623  0.8466
16008TIP3   OH269438   5.135   4.024  14.872  0.1452  0.1418 -0.6941
16008TIP3    H169439   5.180   3.963  14.813  1.0240  0.5066 -0.4204
16008TIP3    H269440   5.189   4.025  14.951 -0.5697  0.2915 -0.1933
16009TIP3   OH269441   5.781   1.657  17.179  0.0698 -0.1686  0.3526
16009TIP3    H169442   5.743   1.581  17.222 -2.6381  0.4123 -0.7816
16009TIP3    H269443   5.826   1.705  17.249 -0.2852 -1.5402  1.5542
16010TIP3   OH269444   5.211   4.398   5.796 -0.1867  0.5716  0.1700
16010TIP3    H169445   5.119   4.378   5.814  0.1375  0.4405  1.7712
16010TIP3    H269446   5.256   4.315   5.807  0.1011  0.5719 -0.9094
16011TIP3   OH269447   0.541   5.064   2.377 -0.4361 -0.3908 -0.2707
16011TIP3    H169448   0.623   5.031   2.415 -0.6564 -0.9767 -0.2869
16011TIP3    H269449   0.483   4.988   2.377 -0.9409 -0.0092 -0.3735
16012TIP3   OH269450   3.081   6.567   0.805  0.0953  0.8071 -0.7596
16012TIP3    H169451   3.091   6.642   0.863 -1.2644  0.0577  0.5133
16012TIP3    H269452   2.991   6.572   0.774 -0.2400 -0.6790 -0.0877
16013TIP3   OH269453   3.237   4.543   0.505 -0.0367 -0.4923  0.0138
16013TIP3    H169454   3.169   4.608   0.519 -0.1122 -0.3320 -1.0166
16013TIP3    H269455   3.232   4.523   0.411 -0.6450 -2.6590  0.4469
16014TIP3   OH269456   5.647   0.364  16.975 -0.6380 -0.3688  0.4290
16014TIP3    H169457   5.709   0.438  16.979 -1.6151  0.4142  2.6004
16014TIP3    H269458   5.696   0.290  17.011 -1.1241  0.4506  2.9765
16015TIP3   OH269459   2.860   2.580  12.199 -0.2525 -1.0042 -0.0443
16015TIP3    H169460   2.797   2.622  12.141 -3.3915 -2.5379  1.9660
16015TIP3    H269461   2.928   2.645  12.213 -0.8630  0.4398 -3.0554
16016TIP3   OH269462   5.127   0.370   6.475  0.3431  0.2330  0.0077
16016TIP3    H169463   5.165   0.302   6.420  0.9466  1.3388 -0.9765
16016TIP3    H269464   5.034   0.369   6.454 -0.0991 -1.7918  1.6817
16017TIP3   OH269465   6.381   4.327   3.099 -0.1183  0.8374  0.3206
16017TIP3    H169466   6.431   4.268   3.154 -0.0578  0.3679 -0.2312
16017TIP3    H269467   6.441   4.400   3.082 -0.1093  0.9418  0.8044
16018TIP3   OH269468   2.168   4.151   3.903  0.6506 -0.0851 -0.7820
16018TIP3    H169469   2.084   4.132   3.944  1.0798 -0.7211 -0.1811
16018TIP3    H269470   2.148   4.153   3.809  0.1539 -1.3390 -0.7297
16019TIP3   OH269471   5.474   3.476   5.827  0.2290 -0.1010  0.0810
16019TIP3    H169472   5.455   3.559   5.782 -0.6277  0.5377  1.5432
16019TIP3    H269473   5.543   3.498   5.889 -0.1283 -0.4393  0.5998
16020TIP3   OH269474   2.591   4.547   0.795  0.1052 -0.1841  0.0694
16020TIP3    H169475   2.648   4.504   0.858  0.5319 -0.8803 -0.7680
16020TIP3    H269476   2.573   4.633   0.833 -0.1330 -0.8022  1.3998
16021TIP3   OH269477   2.795   0.995   2.376 -0.1703  0.3808  0.2260
16021TIP3    H169478   2.720   1.013   2.318 -0.0742  0.0317 -0.0075
16021TIP3    H269479   2.755   0.972   2.460 -0.3002  1.6194  0.5231
16022TIP3   OH269480   4.725   5.521   5.364  0.5623 -0.3940  0.1955
16022TIP3    H169481   4.660   5.455   5.343  0.8384 -0.2662 -1.1397
16022TIP3    H269482   4.809   5.475   5.359  0.6437 -0.3902  1.2139
16023TIP3   OH269483   5.086   3.023   2.700 -0.2268 -0.4429  0.1925
16023TIP3    H169484   5.119   3.079   2.770 -1.2910 -0.0217  0.3798
16023TIP3    H269485   5.066   3.083   2.628 -0.5153 -0.6859  0.0637
16024TIP3   OH269486   4.108   2.478  15.217  0.3252  0.0424  0.2804
16024TIP3    H169487   4.017   2.462  15.241  0.2151  1.3353  0.8187
16024TIP3    H269488   4.159   2.423  15.276 -0.1031 -1.1002 -0.3857
16025TIP3   OH269489   3.067   3.509   4.430  0.0896 -0.0019 -0.0809
16025TIP3    H169490   2.993   3.555   4.391 -0.7019 -2.1511 -1.2573
16025TIP3    H269491   3.028   3.458   4.502  0.3706 -1.2156 -0.7626
16026TIP3   OH269492   3.460   2.212  16.281  0.1583  0.4383 -0.2561
16026TIP3    H169493   3.480   2.302  16.308 -0.5159  0.3657  0.5244
16026TIP3    H269494   3.412   2.221  16.199  1.0382  0.7348 -0.7448
16027TIP3   OH269495   3.996   2.313  12.578 -0.1444 -0.3030  0.8128
16027TIP3    H169496   4.079   2.358  12.562 -0.7381 -0.0556 -2.2318
16027TIP3    H269497   3.930   2.372  12.542 -1.4136 -1.5084  1.1001
16028TIP3   OH269498   3.496   4.825  16.844 -0.1659 -0.6280  0.1702
16028TIP3    H169499   3.473   4.733  16.832 -0.6498 -0.3780 -0.8913
16028TIP3    H269500   3.592   4.825  16.847 -0.1720 -1.4283  2.5845
16029TIP3   OH269501   4.931   1.675  16.462 -0.6150 -1.1065 -0.0278
16029TIP3    H169502   5.002   1.639  16.515  0.6578  0.4811 -0.5540
16029TIP3    H269503   4.858   1.615  16.475  0.1371 -1.6245  2.2758
16030TIP3   OH269504   0.800   3.024  12.453  0.3362 -0.1644  0.5264
16030TIP3    H169505   0.877   3.072  12.483  0.1191 -0.3440  1.4071
16030TIP3    H269506   0.733   3.092  12.441  1.4693  0.4677 -3.3882
16031TIP3   OH269507   3.973   3.974   4.679  0.6553  0.0717  0.2885
16031TIP3    H169508   3.965   4.067   4.657 -1.1474  0.6554  2.8273
16031TIP3    H269509   3.965   3.928   4.595  0.5710  2.1688 -0.9154
16032TIP3   OH269510   1.476   3.696  10.806 -0.0463 -0.5505 -0.3179
16032TIP3    H169511   1.545   3.753  10.772 -1.8556  1.9379 -0.0626
16032TIP3    H269512   1.522   3.614  10.829  2.9429  1.1921  0.4856
16033TIP3   OH269513   3.189   1.678   0.100  0.0692 -0.7680 -0.4095
16033TIP3    H169514   3.115   1.737   0.087  0.7249 -0.1002 -1.3501
16033TIP3    H269515   3.150   1.591   0.108 -0.7981 -0.4904 -1.3703
16034TIP3   OH269516   0.916   5.228   2.345  0.0055  0.2533 -0.1314
16034TIP3    H169517   0.904   5.299   2.282 -0.9256  0.8111  0.6283
16034TIP3    H269518   0.968   5.267   2.415  0.4065 -0.1346 -0.2144
16035TIP3   OH269519   5.029   4.832  14.720  0.1837 -0.0674 -0.0420
16035TIP3    H169520   5.017   4.791  14.805 -0.1992  0.1982  0.0308
16035TIP3    H269521   5.118   4.807  14.694 -0.0516 -0.9723 -0.0186
16036TIP3   OH269522   4.719   5.629   6.151  0.2071 -0.0056 -0.1335
16036TIP3    H169523   4.639   5.682   6.152 -0.2603 -0.6952 -0.2999
16036TIP3    H269524   4.772   5.664   6.222 -1.6341 -1.6108  2.1696
16037TIP3   OH269525   5.496   4.003   4.613 -0.4472 -0.0304  0.6353
16037TIP3    H169526   5.570   3.947   4.587  1.1665  2.0301  0.5089
16037TIP3    H269527   5.513   4.024   4.705  0.0750  1.7629  0.1697
16038TIP3   OH269528   4.530   3.736   3.194 -0.0661  0.3031  0.6169
16038TIP3    H169529   4.521   3.807   3.258  0.2306  1.9591 -1.1035
16038TIP3    H269530   4.451   3.741   3.140 -0.1966 -0.9154  0.6512
16039TIP3   OH269531   6.228   0.407  17.167  0.1964  0.0534  0.2531
16039TIP3    H169532   6.141   0.446  17.154  1.2890  2.3716 -0.7764
16039TIP3    H269533   6.264   0.454  17.242  1.5024  1.0368 -0.9373
16040TIP3   OH269534   3.912   6.483   0.063 -1.3174  0.1647 -0.0207
16040TIP3    H169535   3.835   6.428   0.048 -0.6783 -1.4243  1.9645
16040TIP3    H269536   3.954   6.443   0.140  1.4408  1.0167 -0.9889
16041TIP3   OH269537   5.293   0.647   0.387 -0.8781  0.0921  0.2892
16041TIP3    H169538   5.377   0.667   0.346 -0.8464 -0.1107  0.2544
16041TIP3    H269539   5.243   0.603   0.319 -1.5319  1.4276 -0.1446
16042TIP3   OH269540   4.633   0.198   4.938 -0.0201 -0.3181  0.1385
16042TIP3    H169541   4.611   0.255   5.011 -0.2285  0.5060 -0.5468
16042TIP3    H269542   4.727   0.182   4.947  0.3455  1.3025 -0.4340
16043TIP3   OH269543   4.086   4.543   2.043  0.3336 -0.5127  0.3704
16043TIP3    H169544   4.106   4.487   2.118  1.0223 -1.1957 -0.3030
16043TIP3    H269545   4.168   4.548   1.994 -0.4158 -1.1353 -1.0224
16044TIP3   OH269546   1.831   4.209  14.882 -0.1075  0.1646 -0.0006
16044TIP3    H169547   1.750   4.182  14.925 -1.2712  1.0308 -1.5455
16044TIP3    H269548   1.842   4.301  14.908 -1.0701  0.8411 -1.7991
16045TIP3   OH269549   2.666   2.116   1.689 -1.0818  0.2390 -0.4989
16045TIP3    H169550   2.725   2.100   1.763 -2.5924  0.8416  0.8927
16045TIP3    H269551   2.634   2.029   1.664 -0.1658 -0.0202 -0.8195
16046TIP3   OH269552   0.291   4.864  15.862 -1.1165  0.0398 -0.3924
16046TIP3    H169553   0.366   4.910  15.825 -0.1123 -1.8613 -0.8099
16046TIP3    H269554   0.239   4.933  15.904  1.2812  1.2862  0.6703
16047TIP3   OH269555   2.478   2.004   2.791  0.3245 -0.4642  0.0454
16047TIP3    H169556   2.444   1.923   2.755 -0.1717 -0.3139  0.1757
16047TIP3    H269557   2.488   2.062   2.716 -1.9706  0.3097  0.2730
16048TIP3   OH269558   1.823   4.426  13.795  0.1393  0.7159 -0.1431
16048TIP3    H169559   1.902   4.469  13.763 -0.1038  0.1599 -1.5465
16048TIP3    H269560   1.850   4.336  13.814  0.0887  0.8199  0.4506
16049TIP3   OH269561   4.210   2.171  12.285 -0.0564 -0.7888 -1.0291
16049TIP3    H169562   4.179   2.242  12.341  1.1515 -0.9887 -0.0795
16049TIP3    H269563   4.130   2.128  12.254 -0.7461 -0.6897  0.5557
16050TIP3   OH269564   1.328   3.624  14.833  0.6192 -0.4590 -0.1221
16050TIP3    H169565   1.258   3.571  14.871  0.9112 -1.3940 -0.8441
16050TIP3    H269566   1.337   3.590  14.744  1.0492  0.5903 -0.4883
16051TIP3   OH269567   0.149   1.620  12.396 -0.3988 -0.1346  0.2622
16051TIP3    H169568   0.209   1.694  12.402 -0.3304 -0.0508 -1.0228
16051TIP3    H269569   0.177   1.573  12.317 -0.8749 -1.1333  0.6761
16052TIP3   OH269570   5.521   2.380  15.495 -0.3094  0.2054 -0.1980
16052TIP3    H169571   5.438   2.409  15.533  0.2518  3.1201 -0.8783
16052TIP3    H269572   5.587   2.430  15.543  1.1584 -2.4426  0.6897
16053TIP3   OH269573   0.676   1.520  12.519 -0.2873  0.1107  0.0154
16053TIP3    H169574   0.698   1.612  12.504 -1.9424  0.2221 -2.5575
16053TIP3    H269575   0.583   1.521  12.543 -0.3309 -0.8624 -0.0512
16054TIP3   OH269576   2.680   6.469  15.756  0.0778  0.4707  0.1661
16054TIP3    H169577   2.722   6.511  15.681 -0.0071 -0.3971 -0.3851
16054TIP3    H269578   2.696   6.528  15.829  1.7796  0.4535 -0.1461
16055TIP3   OH269579   2.883   1.386  10.450  0.4876 -0.1872 -0.4288
16055TIP3    H169580   2.812   1.396  10.387 -1.7225 -1.1804  1.7619
16055TIP3    H269581   2.913   1.475  10.467 -0.9167  0.3475 -0.6590
16056TIP3   OH269582   0.571   2.394   0.283  0.2803 -0.4813  0.1550
16056TIP3    H169583   0.492   2.447   0.270 -0.6755 -1.9844 -0.4650
16056TIP3    H269584   0.546   2.333   0.353  0.5406 -1.5707 -0.6724
16057TIP3   OH269585   4.764   5.485   0.846  0.3256 -0.1785  0.3744
16057TIP3    H169586   4.760   5.457   0.938 -1.3739  0.3637  0.5141
16057TIP3    H269587   4.857   5.485   0.825  0.7688 -0.2378  2.1184
16058TIP3   OH269588   5.913   5.990   5.168 -0.4095  0.2473  0.1843
16058TIP3    H169589   5.873   5.918   5.216  1.6448 -2.3969 -1.7627
16058TIP3    H269590   5.999   6.002   5.209  0.3655 -0.3627 -1.1773
16059TIP3   OH269591   4.052   0.725   2.747 -0.3250 -0.1178 -0.3194
16059TIP3    H169592   4.036   0.804   2.799 -0.7949  0.1920 -0.9258
16059TIP3    H269593   4.138   0.740   2.707 -1.1029  0.8378 -1.7362
16060TIP3   OH269594   1.921   5.975  13.733  0.1129  0.1018 -0.1043
16060TIP3    H169595   1.922   5.910  13.663 -1.3227 -0.9499  0.7831
16060TIP3    H269596   1.917   6.059  13.688  0.6815 -0.4764 -1.2782
16061TIP3   OH269597   2.409   2.979   3.021 -0.0551  0.1131 -0.0683
16061TIP3    H169598   2.396   2.953   3.112 -0.7605  0.0648 -0.1779
16061TIP3    H269599   2.378   2.903   2.970 -0.8538  0.6205 -0.3674
16062TIP3   OH269600   3.430   1.069  13.553  0.5466 -0.1089  0.0400
16062TIP3    H169601   3.476   1.020  13.621 -0.6060 -0.8066  0.3529
16062TIP3    H269602   3.443   1.161  13.577  1.7325 -0.2790  0.1246
16063TIP3   OH269603   5.146   0.977   5.194  0.0545 -0.2351 -0.3408
16063TIP3    H169604   5.144   0.896   5.246 -0.6762 -1.9784 -2.8797
16063TIP3    H269605   5.056   1.009   5.195 -0.0349 -0.4622 -0.7642
16064TIP3   OH269606   2.582   5.731   4.104 -0.9030  0.7102 -0.4076
16064TIP3    H169607   2.638   5.727   4.027  0.4097 -1.1322  0.5501
16064TIP3    H269608   2.496   5.703   4.073 -0.0486 -1.4770 -0.9710
16065TIP3   OH269609   1.297   3.363   5.958 -0.3991 -0.0636 -0.3067
16065TIP3    H169610   1.237   3.300   5.918 -0.2893  1.0865 -2.4759
16065TIP3    H269611   1.249   3.446   5.956  0.1444  0.2907  0.7642
16066TIP3   OH269612   6.603   2.793  14.660 -0.9355  0.0392  0.0874
16066TIP3    H169613   6.509   2.780  14.676 -0.8384 -0.7078  0.0947
16066TIP3    H269614   6.645   2.717  14.700 -0.4428 -0.3243 -1.0743
16067TIP3   OH269615   5.670   4.529  16.501 -0.1041  0.4867  0.3257
16067TIP3    H169616   5.585   4.492  16.480  0.1172 -1.1083  1.9454
16067TIP3    H269617   5.653   4.621  16.520 -1.0248  0.8036 -1.8174
16068TIP3   OH269618   1.919   4.032   3.130  0.4858  0.5785 -0.0162
16068TIP3    H169619   1.881   3.956   3.173 -0.1094  0.9899  0.2028
16068TIP3    H269620   2.002   4.001   3.094 -0.3100 -0.4793 -0.9874
16069TIP3   OH269621   6.312   2.624  13.449  0.0162 -1.3610  0.1295
16069TIP3    H169622   6.242   2.648  13.510  1.4608  1.4646  0.8478
16069TIP3    H269623   6.366   2.703  13.443  2.2008 -2.8908 -1.7078
16070TIP3   OH269624   2.366   4.924  16.554 -0.2330  0.0882 -0.0519
16070TIP3    H169625   2.388   4.831  16.561  0.0790  0.0689 -1.1245
16070TIP3    H269626   2.399   4.950  16.468 -1.7679  0.7875 -0.4752
16071TIP3   OH269627   3.711   4.781   6.047  1.1159 -0.2181 -0.1316
16071TIP3    H169628   3.719   4.686   6.033  0.0171 -0.5467  1.2217
16071TIP3    H269629   3.794   4.805   6.089  1.1784 -0.6978  0.0310
16072TIP3   OH269630   5.388   0.562  14.958  0.2384  0.2150 -0.5565
16072TIP3    H169631   5.413   0.476  14.924  2.6693  0.4813  0.3289
16072TIP3    H269632   5.310   0.546  15.011 -2.2200 -0.5936 -4.0610
16073TIP3   OH269633   4.722   4.729  16.610  0.3327 -0.1736 -0.2598
16073TIP3    H169634   4.676   4.666  16.555 -0.7934 -0.3915  0.8909
16073TIP3    H269635   4.797   4.681  16.643 -0.3722 -0.8518  0.4006
16074TIP3   OH269636   2.426   3.466   2.656  0.4238 -0.0949  0.2997
16074TIP3    H169637   2.449   3.375   2.635 -0.1385  0.0410 -1.0153
16074TIP3    H269638   2.342   3.459   2.700 -0.6848 -0.1346 -1.6746
16075TIP3   OH269639   1.919   6.230  13.617  0.1905  0.8835 -0.5319
16075TIP3    H169640   2.014   6.216  13.608  0.1241 -0.2500  0.3640
16075TIP3    H269641   1.892   6.262  13.531  1.1364 -0.2413 -1.2890
16076TIP3   OH269642   4.889   0.554   3.737 -0.0023 -0.3870  0.0536
16076TIP3    H169643   4.878   0.640   3.778 -2.3422 -0.2572 -0.6959
16076TIP3    H269644   4.949   0.570   3.664  1.2272  0.1325  1.1225
16077TIP3   OH269645   1.356   0.763  15.356 -0.8231  0.3567 -0.4953
16077TIP3    H169646   1.328   0.784  15.445  0.1381  1.6778 -0.4629
16077TIP3    H269647   1.361   0.848  15.312  0.0547 -0.1347 -1.4011
16078TIP3   OH269648   4.953   6.093   4.470  0.3211 -0.2577 -0.3107
16078TIP3    H169649   5.042   6.058   4.470  0.6906  0.5726  1.6045
16078TIP3    H269650   4.937   6.118   4.380  2.1048 -0.2280 -0.6489
16079TIP3   OH269651   3.737   4.766   0.065 -0.2246 -0.3359  0.2753
16079TIP3    H169652   3.703   4.839   0.118 -0.5758  0.0753 -0.5073
16079TIP3    H269653   3.812   4.803   0.019 -1.3314  0.0127 -1.3320
16080TIP3   OH269654   5.742   0.537   3.894  0.2153 -0.0762  0.2012
16080TIP3    H169655   5.679   0.465   3.899 -0.6118  0.5197 -0.9678
16080TIP3    H269656   5.825   0.495   3.874 -0.1101 -0.7626  0.2634
16081TIP3   OH269657   6.469   5.340   4.474 -0.1871 -0.3628  0.2057
16081TIP3    H169658   6.539   5.314   4.534 -1.0436 -2.0666  0.5270
16081TIP3    H269659   6.392   5.350   4.530  0.0617  3.1785  0.1356
16082TIP3   OH269660   3.043   2.596  17.228  0.1083  0.2391 -0.1025
16082TIP3    H169661   3.041   2.616  17.135 -0.9424 -0.2785 -0.2110
16082TIP3    H269662   3.076   2.506  17.232  0.6044  0.4272  0.0599
16083TIP3   OH269663   0.299   0.248   3.263 -0.2749  0.0062 -0.4297
16083TIP3    H169664   0.342   0.290   3.188  0.5649 -0.6365 -0.3307
16083TIP3    H269665   0.345   0.282   3.339 -0.0455 -0.5581 -0.3108
16084TIP3   OH269666   5.642   1.521   2.334  0.5664  0.1259  0.2078
16084TIP3    H169667   5.578   1.593   2.339  0.8098  0.2295  2.4608
16084TIP3    H269668   5.610   1.466   2.262 -0.5454  1.5863 -0.4701
16085TIP3   OH269669   6.469   1.317   1.271  0.7948  0.1619  0.1024
16085TIP3    H169670   6.427   1.365   1.342  2.6891  0.3619  1.1394
16085TIP3    H269671   6.465   1.225   1.298 -0.0666  0.0253 -0.4221
16086TIP3   OH269672   0.353   1.624  14.487  0.4113  0.3142  0.5168
16086TIP3    H169673   0.334   1.556  14.552  0.2955  1.1233  1.3548
16086TIP3    H269674   0.449   1.627  14.483  0.4274  0.7752  1.2084
16087TIP3   OH269675   4.111   1.210   4.278 -0.8099  0.1992  0.1611
16087TIP3    H169676   4.115   1.304   4.257 -0.0074 -0.0859 -1.0829
16087TIP3    H269677   4.197   1.190   4.315 -0.9612 -0.0497  0.3753
16088TIP3   OH269678   4.889   1.467   2.121 -0.6270 -0.1335 -0.0310
16088TIP3    H169679   4.836   1.534   2.079  1.0212  0.3464 -1.5093
16088TIP3    H269680   4.972   1.511   2.141  0.2311 -1.5042 -0.3751
16089TIP3   OH269681   4.130   5.014  13.662  0.0612 -0.2729 -0.5347
16089TIP3    H169682   4.122   4.962  13.742  0.3828  1.9294  1.0238
16089TIP3    H269683   4.224   5.031  13.654 -0.1309  0.9462 -0.3700
16090TIP3   OH269684   2.365   3.702  16.357  0.3691  0.1663 -0.0030
16090TIP3    H169685   2.317   3.619  16.353 -1.1412  1.0084 -0.1243
16090TIP3    H269686   2.300   3.768  16.332  1.2865  1.4903  1.0015
16091TIP3   OH269687   0.932   2.311  17.287  0.2636 -0.2277  0.4647
16091TIP3    H169688   0.865   2.243  17.290 -0.1650  0.0920 -1.0448
16091TIP3    H269689   0.884   2.392  17.306 -0.0610  0.1569 -1.7392
16092TIP3   OH269690   0.935   2.156  10.683 -0.7387  0.0639  0.2015
16092TIP3    H169691   0.975   2.097  10.619  0.4032  0.6687  0.3387
16092TIP3    H269692   0.841   2.148  10.667 -0.4760  0.5363 -1.8649
16093TIP3   OH269693   6.240   5.722   3.068  0.0195 -0.2741 -0.2882
16093TIP3    H169694   6.261   5.803   3.114  0.1997 -1.0077  0.9530
16093TIP3    H269695   6.160   5.743   3.020 -0.1871  0.5140  0.3669
16094TIP3   OH269696   2.385   3.009   4.866  0.2581  0.4153 -0.5885
16094TIP3    H169697   2.419   3.051   4.944 -0.1456 -0.6687  0.1927
16094TIP3    H269698   2.462   2.978   4.818  0.4880 -2.2186  1.2668
16095TIP3   OH269699   3.695   0.853   4.859 -0.0577 -0.2138 -0.3312
16095TIP3    H169700   3.698   0.865   4.764  1.0169 -0.8404 -0.3816
16095TIP3    H269701   3.601   0.848   4.879 -0.3469  1.2215 -1.1828
16096TIP3   OH269702   6.593   6.497  13.068 -0.4146 -0.3169 -0.2640
16096TIP3    H169703   6.680   6.504  13.029 -0.3187  0.4870  0.0832
16096TIP3    H269704   6.594   6.559  13.141 -0.8254 -1.2683  0.5889
16097TIP3   OH269705   1.977   4.938   4.270 -0.2019 -0.2970  0.2635
16097TIP3    H169706   2.042   4.915   4.203 -1.6313 -0.2999 -1.2054
16097TIP3    H269707   2.022   4.999   4.328  1.3081 -0.8356 -0.2861
16098TIP3   OH269708   0.163   1.552   2.217  0.2635  0.0084  0.3600
16098TIP3    H169709   0.233   1.607   2.181  2.0259 -2.1629  0.1788
16098TIP3    H269710   0.210   1.479   2.258 -1.9231 -1.3640  0.5690
16099TIP3   OH269711   1.313   4.274   0.159 -0.0666 -0.1367  0.1406
16099TIP3    H169712   1.270   4.194   0.191  0.7455 -0.7105 -0.1571
16099TIP3    H269713   1.393   4.242   0.117  1.6129  1.0022  2.2800
16100TIP3   OH269714   0.783   5.514  13.883 -0.5185 -0.1490  0.1453
16100TIP3    H169715   0.748   5.569  13.812 -2.0577  1.2367  1.8497
16100TIP3    H269716   0.707   5.465  13.915 -0.1240  0.0731  1.5002
16101TIP3   OH269717   2.497   5.799  13.276 -0.0071  0.5392 -0.4985
16101TIP3    H169718   2.482   5.883  13.232  0.6186  1.6561  1.3277
16101TIP3    H269719   2.587   5.776  13.253  0.0946  0.7781 -0.3426
16102TIP3   OH269720   4.708   2.089   3.054 -0.5265  0.0061 -0.1222
16102TIP3    H169721   4.797   2.063   3.080  0.3297 -0.4347 -3.1741
16102TIP3    H269722   4.652   2.024   3.097  0.7030 -0.4945  0.8130
16103TIP3   OH269723   4.139   4.310   1.118  0.0536 -0.8433 -0.1347
16103TIP3    H169724   4.118   4.398   1.149 -0.6500 -1.1882  0.4081
16103TIP3    H269725   4.194   4.324   1.041 -0.9925  0.0968 -0.7421
16104TIP3   OH269726   5.872   1.526   2.137 -0.2103  0.1157 -0.0994
16104TIP3    H169727   5.822   1.509   2.217  1.3658 -0.4001  0.8320
16104TIP3    H269728   5.833   1.469   2.072  0.0544 -1.3719  0.9822
16105TIP3   OH269729   2.644   4.233  11.202 -0.6595 -0.0127 -0.0525
16105TIP3    H169730   2.680   4.232  11.113 -1.6722  1.8145 -0.5221
16105TIP3    H269731   2.552   4.256  11.190 -0.6995  0.7313  1.5020
16106TIP3   OH269732   6.584   0.715  13.464  0.9863 -0.1472 -0.3069
16106TIP3    H169733   6.579   0.798  13.512 -0.4623 -0.2668 -0.2055
16106TIP3    H269734   6.678   0.699  13.454  1.4632 -0.7952  3.6523
16107TIP3   OH269735   4.492   4.708   3.030 -0.0754  0.0117 -0.2528
16107TIP3    H169736   4.492   4.784   3.089  0.3730  0.0498 -0.2940
16107TIP3    H269737   4.430   4.732   2.961  1.8554  1.4440 -1.6150
16108TIP3   OH269738   4.418   0.714   0.795  0.4361  0.1454 -0.3525
16108TIP3    H169739   4.402   0.660   0.717  2.2078  0.2442 -0.8201
16108TIP3    H269740   4.482   0.665   0.846 -0.4161  0.2747  0.8830
16109TIP3   OH269741   6.352   4.352   4.392  0.0601 -0.2643  0.5995
16109TIP3    H169742   6.298   4.358   4.313 -0.3272 -0.0089  0.8841
16109TIP3    H269743   6.340   4.262   4.422 -0.4624 -0.1113  0.8459
16110TIP3   OH269744   6.416   1.232  10.936  0.1734 -0.4689 -0.9905
16110TIP3    H169745   6.361   1.159  10.908 -2.8275  0.5418  1.6864
16110TIP3    H269746   6.481   1.193  10.994 -0.4123 -1.2170 -0.8232
16111TIP3   OH269747   4.743   3.756   4.820 -0.5478  0.3768 -0.0290
16111TIP3    H169748   4.741   3.662   4.799 -0.5792  0.2024  0.7251
16111TIP3    H269749   4.750   3.799   4.735  1.1689 -0.3672 -0.3232
16112TIP3   OH269750   5.303   1.397  15.982  0.1626  0.2640  0.7535
16112TIP3    H169751   5.251   1.476  15.994  2.4665  2.0380 -0.2958
16112TIP3    H269752   5.267   1.356  15.903  1.1668  2.2217 -0.7881
16113TIP3   OH269753   2.124   2.380  13.003  0.4065 -0.4997 -0.3235
16113TIP3    H169754   2.166   2.331  12.932  1.3717 -1.8146  1.1139
16113TIP3    H269755   2.161   2.468  12.995  0.6796 -0.6881 -1.3115
16114TIP3   OH269756   4.724   3.577   4.585 -0.0982  0.1549 -0.5260
16114TIP3    H169757   4.675   3.552   4.507  0.3998 -0.3582 -0.6809
16114TIP3    H269758   4.680   3.532   4.657 -0.7934  0.9361 -0.4480
16115TIP3   OH269759   3.404   6.636  13.215  0.6220 -0.5226 -0.4534
16115TIP3    H169760   3.401   6.667  13.124 -0.0514  2.8365  0.5864
16115TIP3    H269761   3.496   6.614  13.229  0.7035 -1.2897 -1.9705
16116TIP3   OH269762   1.311   0.236   1.603 -0.3095 -0.6484  0.6665
16116TIP3    H169763   1.339   0.195   1.521  0.2577 -1.2726  1.1609
16116TIP3    H269764   1.389   0.282   1.635 -0.5511 -0.3409  0.8217
16117TIP3   OH269765   4.975   3.292   1.842 -0.3127  0.0875  0.2588
16117TIP3    H169766   5.069   3.293   1.858 -0.4949  0.5690  1.3979
16117TIP3    H269767   4.938   3.251   1.920 -1.1644  1.3438  0.5283
16118TIP3   OH269768   6.442   5.332  15.449  0.3787  0.5610 -0.0106
16118TIP3    H169769   6.350   5.323  15.424  0.1478  1.8924  0.2854
16118TIP3    H269770   6.459   5.256  15.505 -0.0622 -0.5812 -1.3695
16119TIP3   OH269771   1.976   1.155  14.300  0.5787 -0.2005  0.1381
16119TIP3    H169772   1.894   1.122  14.337  0.3517 -0.9191 -0.9376
16119TIP3    H269773   2.021   1.077  14.268  1.4506  0.2430  0.2520
16120TIP3   OH269774   2.795   2.185   3.014  0.0016 -0.1604  0.2718
16120TIP3    H169775   2.823   2.100   3.049  0.2302 -0.8124 -1.3886
16120TIP3    H269776   2.844   2.249   3.065  1.7501 -1.1396 -0.0844
16121TIP3   OH269777   3.569   5.021  17.291 -0.8970 -0.4675  0.5979
16121TIP3    H169778   3.644   4.966  17.313 -1.9951 -2.4974 -0.4911
16121TIP3    H269779   3.528   5.041  17.375  0.4501  0.1438  1.1460
16122TIP3   OH269780   4.683   3.739  13.086  0.0982 -0.2618 -0.2239
16122TIP3    H169781   4.709   3.718  12.997  0.2234  0.8245 -0.4550
16122TIP3    H269782   4.751   3.799  13.117 -2.0677  2.6966 -0.8643
16123TIP3   OH269783   3.750   4.883  16.590  0.1908  0.3450 -0.0870
16123TIP3    H169784   3.700   4.961  16.569 -1.8129 -0.8936 -0.1381
16123TIP3    H269785   3.766   4.889  16.684 -0.1910  0.6786 -0.0424
16124TIP3   OH269786   1.863   0.123   0.572  1.0093 -0.2344  0.2160
16124TIP3    H169787   1.897   0.043   0.611  2.4401  0.0827 -0.3257
16124TIP3    H269788   1.939   0.181   0.566  0.5529  0.2369 -1.6752
16125TIP3   OH269789   4.859   3.812  13.992  0.1466 -0.1747 -0.4330
16125TIP3    H169790   4.853   3.734  14.047  4.2605 -2.1840 -2.3518
16125TIP3    H269791   4.795   3.797  13.923 -1.2364 -0.2917  0.8349
16126TIP3   OH269792   5.935   0.242   2.036 -0.4618 -0.0836 -0.4019
16126TIP3    H169793   6.000   0.258   2.104  0.0710 -1.2239 -0.6109
16126TIP3    H269794   5.976   0.178   1.978 -1.6848 -0.6888 -0.6480
16127TIP3   OH269795   3.459   1.432  16.380  0.3477  0.7487 -0.4414
16127TIP3    H169796   3.477   1.343  16.411 -0.3424  0.4178 -0.9688
16127TIP3    H269797   3.446   1.483  16.460  0.8951  0.4083 -0.1322
16128TIP3   OH269798   5.316   5.312   3.173 -0.1498  0.2447  0.1761
16128TIP3    H169799   5.397   5.306   3.122  0.5000 -1.6287  1.3145
16128TIP3    H269800   5.247   5.327   3.108  0.5641 -2.6228 -1.3799
16129TIP3   OH269801   0.316   3.345   1.601  0.2702  0.0126 -0.1581
16129TIP3    H169802   0.338   3.437   1.585 -1.3857  0.3889 -0.4896
16129TIP3    H269803   0.320   3.304   1.515 -0.0520  0.0271 -0.1809
16130TIP3   OH269804   4.865   1.190   2.159  0.1229 -0.3246 -0.1022
16130TIP3    H169805   4.947   1.153   2.193 -0.2515 -0.9817  0.1025
16130TIP3    H269806   4.879   1.285   2.161  0.0096 -0.2832  2.2181
16131TIP3   OH269807   2.377   0.540   5.774 -0.5098  0.6731  0.4542
16131TIP3    H169808   2.337   0.620   5.741  0.9079  1.6413  0.9657
16131TIP3    H269809   2.313   0.506   5.837 -1.8936  0.4295 -1.0342
16132TIP3   OH269810   2.418   0.427  15.719  0.1452 -0.1979 -0.0038
16132TIP3    H169811   2.492   0.366  15.715 -0.5181 -0.9342 -2.3378
16132TIP3    H269812   2.441   0.487  15.790  1.6665 -2.0450  1.1817
16133TIP3   OH269813   2.012   0.737  13.935  0.0117  0.5013  0.7365
16133TIP3    H169814   1.964   0.655  13.930 -0.1963  0.6110  0.8819
16133TIP3    H269815   1.949   0.803  13.906  0.9724  0.3415 -2.0095
16134TIP3   OH269816   0.749   6.664   0.425  0.4078 -0.0232  0.1796
16134TIP3    H169817   0.760   6.757   0.404 -3.0138  0.7176  1.0437
16134TIP3    H269818   0.719   6.663   0.516  0.1417 -1.9691  0.1200
16135TIP3   OH269819   3.138   2.142  10.939  0.1775 -0.7429 -0.7905
16135TIP3    H169820   3.085   2.220  10.957  0.9689 -0.7700  2.0386
16135TIP3    H269821   3.077   2.080  10.900 -1.5790 -0.2918  1.1150
16136TIP3   OH269822   2.714   2.225  13.400 -0.3402  0.1879  0.0893
16136TIP3    H169823   2.771   2.191  13.470  1.0224  1.9981 -0.0731
16136TIP3    H269824   2.748   2.313  13.382 -1.0829  0.0359 -2.3850
16137TIP3   OH269825   6.434   5.465   3.782  0.0534 -0.0345 -0.0021
16137TIP3    H169826   6.525   5.438   3.791  0.7491  2.2823  0.4691
16137TIP3    H269827   6.407   5.432   3.696  1.1924 -1.0388 -0.0016
16138TIP3   OH269828   0.396   6.718  15.048  0.2161  0.2126  0.5435
16138TIP3    H169829   0.356   6.735  15.133 -1.0976 -0.6742  0.1371
16138TIP3    H269830   0.401   6.623  15.043  0.7497  0.2734 -0.1594
16139TIP3   OH269831   3.858   6.540  15.413  0.0499  0.5258  0.5299
16139TIP3    H169832   3.786   6.476  15.409  0.1157  0.4851 -0.2135
16139TIP3    H269833   3.855   6.583  15.328  2.3215 -1.0348 -0.4461
16140TIP3   OH269834   5.143   4.090   0.660  0.2201 -0.1650 -0.1878
16140TIP3    H169835   5.104   4.176   0.643  1.0983  0.5490  1.2292
16140TIP3    H269836   5.237   4.104   0.650  0.4155 -0.7918  0.6816
16141TIP3   OH269837   2.685   2.266  15.064 -0.3124 -0.5687  0.0042
16141TIP3    H169838   2.739   2.338  15.032 -2.1059  0.6536 -0.4454
16141TIP3    H269839   2.611   2.262  15.003 -1.0498 -1.7738  0.9203
16142TIP3   OH269840   1.287   5.608   2.104 -0.2782 -0.4102 -0.2629
16142TIP3    H169841   1.283   5.693   2.061 -2.1630  0.4092  1.3736
16142TIP3    H269842   1.244   5.548   2.042 -2.0954  0.5527 -0.0105
16143TIP3   OH269843   6.382   1.768  12.684  0.0536  0.0998  0.2763
16143TIP3    H169844   6.344   1.847  12.724  3.1588  0.3575  3.1863
16143TIP3    H269845   6.441   1.802  12.617 -0.2487  0.0979  0.0081
16144TIP3   OH269846   5.201   6.475   0.387  0.7867 -0.2533  0.7258
16144TIP3    H169847   5.266   6.544   0.372 -0.7481  1.0725 -0.0462
16144TIP3    H269848   5.168   6.455   0.299 -1.7199  1.0118  1.3002
16145TIP3   OH269849   3.459   2.875   0.995 -0.1330 -0.1819  0.7456
16145TIP3    H169850   3.463   2.970   1.006 -1.1765  0.0328 -0.4834
16145TIP3    H269851   3.394   2.847   1.059 -1.9110  0.3286 -0.7408
16146TIP3   OH269852   2.215   6.443   3.565  0.2220 -0.1640 -0.1399
16146TIP3    H169853   2.166   6.488   3.496  1.4869 -0.4049 -1.2428
16146TIP3    H269854   2.294   6.496   3.577  0.5955 -0.7885  0.2355
16147TIP3   OH269855   3.229   2.474   5.461  0.2785  0.0909  0.1923
16147TIP3    H169856   3.228   2.383   5.491 -0.5671 -0.5507 -1.6300
16147TIP3    H269857   3.255   2.468   5.369  0.4545  1.7276  0.1117
16148TIP3   OH269858   0.283   5.701  17.190  0.3879 -0.1114 -0.9831
16148TIP3    H169859   0.216   5.715  17.257  0.0438 -1.0501 -1.1233
16148TIP3    H269860   0.360   5.672  17.240 -0.2774 -2.1825 -1.0730
16149TIP3   OH269861   3.288   2.708  11.752  0.3738  0.1068 -0.9041
16149TIP3    H169862   3.262   2.640  11.691 -0.3483 -0.0713 -0.4084
16149TIP3    H269863   3.251   2.789  11.715 -0.1126 -0.0093 -0.6856
16150TIP3   OH269864   2.402   5.180   4.026 -0.1497  0.8872  0.2774
16150TIP3    H169865   2.438   5.259   4.065  2.2910  1.4901 -2.7876
16150TIP3    H269866   2.319   5.208   3.987  2.0003  2.9891 -3.3497
16151TIP3   OH269867   6.262   5.207   4.677  0.4041  0.3598 -0.0518
16151TIP3    H169868   6.307   5.188   4.759  1.2764  0.2868 -0.5407
16151TIP3    H269869   6.286   5.134   4.620 -2.2714 -1.0139  0.4051
16152TIP3   OH269870   3.472   5.581  15.448  0.4638  0.2037  0.1166
16152TIP3    H169871   3.516   5.665  15.453  0.6173  0.1862 -0.7473
16152TIP3    H269872   3.445   5.562  15.538  3.2210 -0.3291  0.9178
16153TIP3   OH269873   4.225   6.494   4.674 -0.1019 -0.3516  0.2096
16153TIP3    H169874   4.285   6.516   4.746  1.5134 -2.4745 -0.3862
16153TIP3    H269875   4.190   6.579   4.645  1.8607  0.8849  1.2355
16154TIP3   OH269876   1.925   4.533  10.877 -0.4445  0.0784  0.6407
16154TIP3    H169877   1.903   4.625  10.893 -3.2552  0.0935 -2.1900
16154TIP3    H269878   1.997   4.536  10.814 -1.7292  0.4727 -0.8704
16155TIP3   OH269879   1.084   1.868   3.932 -0.0124  0.5967  0.0856
16155TIP3    H169880   1.057   1.866   4.024  0.2548  0.4353  0.1619
16155TIP3    H269881   1.151   1.800   3.925 -1.4891 -0.8528 -0.6871
16156TIP3   OH269882   2.843   0.213   3.009 -0.1973 -0.0612 -0.9081
16156TIP3    H169883   2.765   0.253   2.971  0.6414  0.5618 -2.0391
16156TIP3    H269884   2.813   0.176   3.092 -1.9042 -0.7023 -1.7584
16157TIP3   OH269885   1.607   4.613  11.484 -0.4073  0.5046 -0.0556
16157TIP3    H169886   1.602   4.552  11.411 -2.5194 -0.0969  0.5035
16157TIP3    H269887   1.550   4.686  11.459  0.6342  1.3791  0.0608
16158TIP3   OH269888   2.961   5.890   2.206 -0.0341 -0.3811 -0.4145
16158TIP3    H169889   2.899   5.950   2.248  1.1606  1.6694 -1.4157
16158TIP3    H269890   3.015   5.858   2.279 -1.5830 -1.4486  0.3317
16159TIP3   OH269891   0.214   1.570  15.474 -0.5303  0.2512 -0.3410
16159TIP3    H169892   0.295   1.586  15.426 -0.5558 -0.0285 -0.4801
16159TIP3    H269893   0.222   1.623  15.553  1.2676 -2.2652  1.3110
16160TIP3   OH269894   6.218   6.627  15.814 -0.1890  0.3655 -0.3697
16160TIP3    H169895   6.296   6.678  15.791  0.9618 -1.1196  0.1047
16160TIP3    H269896   6.198   6.576  15.735 -1.1209  1.2466 -0.7228
16161TIP3   OH269897   1.211   0.766  11.602  0.2296  0.2834  0.1269
16161TIP3    H169898   1.127   0.754  11.647  0.7534 -2.6881  0.5872
16161TIP3    H269899   1.234   0.857  11.617 -0.4915 -0.0251  4.5246
16162TIP3   OH269900   0.757   2.456  16.598 -0.1697 -0.3581 -0.4676
16162TIP3    H169901   0.666   2.485  16.602 -0.1220 -0.2661 -0.0294
16162TIP3    H269902   0.770   2.430  16.507 -0.3315  0.6397 -0.7951
16163TIP3   OH269903   3.271   5.125   5.302 -0.1195 -0.4276 -0.0745
16163TIP3    H169904   3.346   5.184   5.296 -0.9632  0.9328  1.6435
16163TIP3    H269905   3.270   5.096   5.393 -1.5276 -0.6109 -0.1182
16164TIP3   OH269906   6.746   2.811   4.013  0.0724 -0.1470  0.8629
16164TIP3    H169907   6.820   2.795   4.071  2.2859  2.2455 -1.0263
16164TIP3    H269908   6.702   2.888   4.050 -0.4343 -0.5202  1.0462
16165TIP3   OH269909   6.546   1.141   3.018  0.1350 -1.1033  0.2269
16165TIP3    H169910   6.465   1.153   2.969  0.6840  0.2243 -0.4050
16165TIP3    H269911   6.597   1.079   2.965  0.6682  0.2154 -0.8472
16166TIP3   OH269912   4.725   6.167  15.919 -0.4804  0.0900 -0.4248
16166TIP3    H169913   4.740   6.240  15.859 -1.5541  0.7610  0.0848
16166TIP3    H269914   4.795   6.174  15.984 -0.5528  0.6523 -0.4043
16167TIP3   OH269915   0.033   0.480  11.519 -0.4367 -0.7352  0.0474
16167TIP3    H169916  -0.012   0.476  11.434 -0.2172  3.8555 -0.5766
16167TIP3    H269917   0.124   0.500  11.497 -0.2173 -0.2123  1.3394
16168TIP3   OH269918   6.422   2.370  15.020  0.1848  0.0062  0.8169
16168TIP3    H169919   6.412   2.394  14.928 -0.0852 -0.6617  0.6632
16168TIP3    H269920   6.506   2.406  15.046 -0.0517  0.7971  0.5025
16169TIP3   OH269921   3.674   2.980   0.238  0.0441 -0.1761  0.2891
16169TIP3    H169922   3.700   2.889   0.254  1.0803  0.2528  1.1179
16169TIP3    H269923   3.731   3.009   0.167  1.2973  0.4977  1.5292
16170TIP3   OH269924   2.585   1.041   1.633  0.0613  0.2221 -0.0425
16170TIP3    H169925   2.611   0.956   1.598  1.4541  0.1257  1.1276
16170TIP3    H269926   2.525   1.076   1.567 -0.3032 -1.5119 -0.7030
16171TIP3   OH269927   1.506   5.979  11.653 -0.2991 -0.6997  0.6272
16171TIP3    H169928   1.419   5.981  11.612 -0.3201  1.3430  0.6824
16171TIP3    H269929   1.514   5.890  11.687 -1.9177 -1.2557 -0.3156
16172TIP3   OH269930   6.607   4.619  14.045 -0.0373  0.0721  0.2432
16172TIP3    H169931   6.643   4.590  14.129 -0.0763 -0.4195  0.0976
16172TIP3    H269932   6.521   4.577  14.041  1.3086 -2.9103 -1.5898
16173TIP3   OH269933   5.232   0.618  12.516 -0.1540 -0.0838  0.1409
16173TIP3    H169934   5.162   0.680  12.539 -0.7147 -0.2259 -1.1168
16173TIP3    H269935   5.188   0.534  12.505  0.4196 -0.4560  0.6129
16174TIP3   OH269936   4.821   4.262   4.760 -0.1227 -0.8320  0.0030
16174TIP3    H169937   4.727   4.249   4.744  0.0132 -1.1440 -0.5602
16174TIP3    H269938   4.836   4.224   4.847 -0.5339 -0.6865  0.1407
16175TIP3   OH269939   4.849   6.562  11.624 -0.1633  0.0348  0.1298
16175TIP3    H169940   4.779   6.538  11.684 -0.5422 -0.2270 -0.4046
16175TIP3    H269941   4.804   6.585  11.543  0.2694  1.4295  0.2622
16176TIP3   OH269942   0.245   1.801  16.977  0.2836 -0.2110 -0.3779
16176TIP3    H169943   0.291   1.801  17.061 -1.1892  2.5276  0.5403
16176TIP3    H269944   0.289   1.869  16.925 -1.8623  1.6227  0.0912
16177TIP3   OH269945   5.358   1.965   4.096 -0.1971 -0.1171  0.0175
16177TIP3    H169946   5.332   1.954   4.188 -2.4240  0.0806 -0.5263
16177TIP3    H269947   5.285   2.012   4.056  0.2403 -1.1230 -2.0965
16178TIP3   OH269948   3.390   6.503   3.805  0.0027  0.1305 -0.4897
16178TIP3    H169949   3.326   6.545   3.861  0.7483  1.2669 -0.4755
16178TIP3    H269950   3.338   6.462   3.736 -0.9145 -1.1922  0.9271
16179TIP3   OH269951   3.217   6.172  15.416  0.2685 -0.3547 -0.3468
16179TIP3    H169952   3.218   6.247  15.475 -1.4795  0.0875 -0.8110
16179TIP3    H269953   3.129   6.136  15.425  0.5389 -1.3422 -1.3804
16180TIP3   OH269954   5.497   0.655  15.979 -0.1935 -0.3977  0.2665
16180TIP3    H169955   5.501   0.669  16.073  0.4143  0.3122  0.1476
16180TIP3    H269956   5.496   0.744  15.942 -0.0654 -0.6683 -0.4000
16181TIP3   OH269957   5.345   6.209   2.110 -0.0124 -0.1008 -0.7275
16181TIP3    H169958   5.374   6.281   2.165  0.6400 -0.9433  0.0724
16181TIP3    H269959   5.278   6.247   2.053  2.3370  1.8297 -2.3754
16182TIP3   OH269960   1.744   3.656  13.459  0.2251  0.2243 -0.1467
16182TIP3    H169961   1.701   3.663  13.373 -2.6470  0.4639  1.1852
16182TIP3    H269962   1.802   3.581  13.450 -0.3297 -0.0258 -2.1891
16183TIP3   OH269963   0.598   1.528   0.142 -0.3187  0.2806 -0.2686
16183TIP3    H169964   0.567   1.481   0.220  0.0110  0.6139  0.0702
16183TIP3    H269965   0.675   1.576   0.172 -0.8540  1.3283 -0.5137
16184TIP3   OH269966   6.573   0.907  16.962 -0.3628  0.2267 -0.1014
16184TIP3    H169967   6.619   0.826  16.985 -1.7878 -0.9423 -1.1528
16184TIP3    H269968   6.557   0.899  16.868 -0.9356  1.5278 -0.1281
16185TIP3   OH269969   0.770   4.230  12.134 -0.5971 -0.2833  0.2879
16185TIP3    H169970   0.738   4.145  12.103 -0.6051 -0.4476  0.7455
16185TIP3    H269971   0.864   4.226  12.121 -0.6224 -0.2724  0.0943
16186TIP3   OH269972   4.024   0.542  11.892 -0.0110 -0.6450  0.3147
16186TIP3    H169973   4.003   0.453  11.864 -0.5816 -0.6614  0.7678
16186TIP3    H269974   3.945   0.593  11.872  0.6105 -0.0499 -0.7238
16187TIP3   OH269975   5.445   5.836  11.658  0.1087  0.3348 -0.7612
16187TIP3    H169976   5.372   5.883  11.618  1.1491  0.2066 -2.9378
16187TIP3    H269977   5.452   5.755  11.607 -0.3044 -1.2496  1.5518
16188TIP3   OH269978   5.066   1.141   2.705 -0.3695 -0.2505 -0.1590
16188TIP3    H169979   5.033   1.227   2.731 -3.1869 -2.0730  2.9774
16188TIP3    H269980   5.012   1.115   2.631 -1.5701 -0.4767  0.7729
16189TIP3   OH269981   2.689   1.106  11.775 -0.2273  0.1893 -0.1438
16189TIP3    H169982   2.654   1.027  11.733  1.6919 -0.4483 -0.6433
16189TIP3    H269983   2.695   1.082  11.868  1.2715 -0.6528 -0.4306
16190TIP3   OH269984   1.696   6.194   2.509 -0.1626 -0.3050  0.5058
16190TIP3    H169985   1.777   6.151   2.537 -0.3372 -0.6064  0.5557
16190TIP3    H269986   1.636   6.180   2.582 -0.3395 -0.3061  0.3582
16191TIP3   OH269987   1.551   2.379  10.219 -0.7015 -0.0684 -0.2284
16191TIP3    H169988   1.638   2.419  10.217 -1.4092  1.5703 -0.1577
16191TIP3    H269989   1.552   2.323  10.297  0.5169 -0.6621 -0.6522
16192TIP3   OH269990   1.110   3.478   6.268  0.0553 -0.4178 -0.5313
16192TIP3    H169991   1.092   3.453   6.177  0.6936  0.2664 -0.8607
16192TIP3    H269992   1.024   3.487   6.308 -0.2853  0.4213 -1.3995
16193TIP3   OH269993   0.150   5.567   0.893  0.3762 -0.3816  0.3625
16193TIP3    H169994   0.115   5.478   0.894  0.0093 -0.2417  0.7870
16193TIP3    H269995   0.093   5.615   0.954 -0.8196  0.6739 -1.5084
16194TIP3   OH269996   6.006   5.179   2.236  0.6319  0.0375  0.4266
16194TIP3    H169997   6.049   5.183   2.151  1.0231 -1.1872  0.5629
16194TIP3    H269998   5.978   5.270   2.252  1.7049  0.5392 -0.3958
16195TIP3   OH269999   2.528   5.632   2.375  0.1304 -0.1816 -0.0132
16195TIP3    H170000   2.532   5.697   2.445 -1.4982  0.6574 -0.6347
16195TIP3    H270001   2.603   5.652   2.319 -0.7404  1.7102 -0.5893
16196TIP3   OH270002   6.707   1.644  13.411 -0.2021 -0.7003  0.2842
16196TIP3    H170003   6.789   1.637  13.362 -0.0089  0.1167  0.4697
16196TIP3    H270004   6.655   1.569  13.383  0.4416 -0.9846 -0.1575
16197TIP3   OH270005   2.963   3.188  13.454  0.1150  0.3541 -0.4483
16197TIP3    H170006   3.020   3.179  13.530 -0.3037  2.1734  0.1350
16197TIP3    H270007   2.924   3.102  13.442  1.7187 -0.5000  0.1361
16198TIP3   OH270008   4.454   6.451  12.496 -0.4867 -0.6031 -0.6473
16198TIP3    H170009   4.437   6.444  12.590 -0.6173  0.7869 -0.5444
16198TIP3    H270010   4.545   6.479  12.490 -0.9652  1.0005 -0.8464
16199TIP3   OH270011   5.918   4.773   4.506 -0.4132 -0.3870  0.0286
16199TIP3    H170012   5.903   4.803   4.416 -1.0096 -1.3160 -0.1905
16199TIP3    H270013   5.970   4.693   4.496  1.8676  0.9035  0.6369
16200TIP3   OH270014   4.235   2.167   5.366 -0.0454 -0.0066 -0.0717
16200TIP3    H170015   4.268   2.200   5.450  1.5395 -1.5570 -0.0106
16200TIP3    H270016   4.304   2.190   5.303 -0.1983 -0.7634 -0.5269
16201TIP3   OH270017   0.195   1.771   2.923 -0.3869  0.0056  0.7403
16201TIP3    H170018   0.161   1.851   2.882 -0.2305 -1.4002 -2.4599
16201TIP3    H270019   0.247   1.729   2.854  3.2232 -0.7871  3.6262
16202TIP3   OH270020   1.896   5.100  15.061  0.9871 -0.3025 -0.2290
16202TIP3    H170021   1.991   5.094  15.070  1.0084  0.3464  0.0347
16202TIP3    H270022   1.865   5.113  15.151  0.4898 -2.3242 -0.0512
16203TIP3   OH270023   2.153   0.920   2.557  0.2531 -0.0783 -0.5268
16203TIP3    H170024   2.183   0.990   2.499 -0.3336 -0.5024 -1.3643
16203TIP3    H270025   2.087   0.961   2.612  0.9100  0.3628 -0.0620
16204TIP3   OH270026   5.625   1.386   2.600  0.1917  0.1194  0.3910
16204TIP3    H170027   5.560   1.440   2.555 -1.3147 -1.9180 -0.0171
16204TIP3    H270028   5.614   1.408   2.693  0.4265  1.3329  0.1439
16205TIP3   OH270029   2.085   1.745  11.030  0.1931  0.3786  0.3776
16205TIP3    H170030   2.132   1.683  11.085  0.6796  2.1503  2.0938
16205TIP3    H270031   1.995   1.713  11.029 -0.1920  1.0432  3.5596
16206TIP3   OH270032   3.317   0.558   3.468  0.4229  0.4653  0.1964
16206TIP3    H170033   3.226   0.581   3.487 -0.2365 -2.0978  0.4257
16206TIP3    H270034   3.357   0.550   3.555  0.6912  0.9142  0.1151
16207TIP3   OH270035   4.142   4.388  16.635 -0.0520 -0.4549 -0.0738
16207TIP3    H170036   4.143   4.315  16.572 -0.6540  0.5908 -1.3455
16207TIP3    H270037   4.234   4.412  16.646  0.1168 -1.1502  0.0545
16208TIP3   OH270038   3.589   0.159   2.484 -0.0711  0.0702  1.0123
16208TIP3    H170039   3.626   0.179   2.570 -1.1899  1.8071  1.1325
16208TIP3    H270040   3.537   0.080   2.498  2.6988 -1.9067  1.0339
16209TIP3   OH270041   3.257   5.897   4.141  0.0662  0.0738  0.3773
16209TIP3    H170042   3.277   5.985   4.171 -1.3242 -0.1180  2.0804
16209TIP3    H270043   3.325   5.842   4.181  0.1401  0.2200  0.4523
16210TIP3   OH270044   2.921   0.267   0.128  0.1486  0.2320  0.2469
16210TIP3    H170045   2.923   0.178   0.094  0.6553 -0.2334  1.4291
16210TIP3    H270046   2.981   0.316   0.072 -0.5672 -0.0279 -0.7603
16211TIP3   OH270047   3.588   1.437  13.782  0.3369 -0.1289 -0.3611
16211TIP3    H170048   3.617   1.523  13.752  1.6103 -0.5811 -0.5139
16211TIP3    H270049   3.624   1.429  13.870  0.4269 -0.5995 -0.4388
16212TIP3   OH270050   2.044   4.546  16.725 -0.1869  0.1520  0.4533
16212TIP3    H170051   1.976   4.543  16.791  1.2987 -0.2541  2.0420
16212TIP3    H270052   2.113   4.488  16.758  1.4916  1.5298 -0.4244
16213TIP3   OH270053   2.730   4.717  14.933 -0.1409  0.7065  0.0912
16213TIP3    H170054   2.723   4.622  14.934 -1.0711  0.7639  1.7108
16213TIP3    H270055   2.803   4.735  14.874 -0.8202 -0.9285 -1.3042
16214TIP3   OH270056   5.925   2.420  17.396  0.1521 -0.2348  0.0031
16214TIP3    H170057   5.999   2.359  17.392  0.5668  0.2809 -0.4430
16214TIP3    H270058   5.885   2.416  17.309  0.1520  0.0864 -0.0148
16215TIP3   OH270059   2.761   2.912   5.965  0.5419 -0.2230  0.3068
16215TIP3    H170060   2.702   2.862   5.908 -2.3039  0.2801  2.5540
16215TIP3    H270061   2.825   2.848   5.994 -0.3868 -1.4861 -0.2982
16216TIP3   OH270062   1.138   3.471   5.069  0.7378 -0.2452  0.0165
16216TIP3    H170063   1.145   3.382   5.103  0.8188  0.3629  1.6649
16216TIP3    H270064   1.136   3.460   4.974  0.3892 -2.0182  0.1994
16217TIP3   OH270065   5.682   2.150  11.478  0.5458 -0.9781  0.2178
16217TIP3    H170066   5.676   2.073  11.421 -0.3195  0.8498 -2.3430
16217TIP3    H270067   5.718   2.219  11.422  0.1514  0.8393  2.0440
16218TIP3   OH270068   3.638   6.081   9.710 -0.2785  0.1065  0.0259
16218TIP3    H170069   3.613   6.172   9.697  0.3747  0.3777  0.6192
16218TIP3    H270070   3.648   6.072   9.805 -1.5836 -0.9214  0.0988
16219TIP3   OH270071   3.613   3.113   0.739  0.3416 -0.1514 -0.1053
16219TIP3    H170072   3.533   3.113   0.687 -0.5775  0.9603  1.2329
16219TIP3    H270073   3.667   3.044   0.701 -1.0637 -0.6168 -1.3237
16220TIP3   OH270074   4.691   1.136   3.514  0.5393  0.2115 -0.3789
16220TIP3    H170075   4.654   1.070   3.573 -0.6233  0.1731 -1.1269
16220TIP3    H270076   4.782   1.145   3.543  0.2738 -0.5384  0.7643
16221TIP3   OH270077   3.275   3.036   4.993 -0.3557  0.1018 -0.1443
16221TIP3    H170078   3.330   3.054   4.917 -1.1835  0.6868 -0.6279
16221TIP3    H270079   3.314   3.088   5.064 -1.1565  1.7728 -0.8681
16222TIP3   OH270080   6.225   6.214  13.651 -0.0134 -0.1725  0.1398
16222TIP3    H170081   6.150   6.266  13.625  0.1930  0.2552  0.3902
16222TIP3    H270082   6.258   6.257  13.730  1.6569  0.7711 -1.0289
16223TIP3   OH270083   0.876   3.672  14.182  0.1704  0.2240 -0.3383
16223TIP3    H170084   0.957   3.631  14.214 -0.8546 -1.7549 -0.1438
16223TIP3    H270085   0.814   3.661  14.254 -0.6194  0.6144 -0.9545
16224TIP3   OH270086   4.094   2.712   5.448  0.0784 -0.4661 -0.0838
16224TIP3    H170087   4.177   2.678   5.481 -0.0257 -1.6862 -1.0159
16224TIP3    H270088   4.027   2.660   5.493 -0.1111 -0.7663 -0.6903
16225TIP3   OH270089   4.201   0.419   5.381  0.3137 -0.1811 -0.2311
16225TIP3    H170090   4.235   0.331   5.365  0.2839 -0.0475 -1.1086
16225TIP3    H270091   4.275   0.468   5.416 -0.2510 -1.1341  2.5374
16226TIP3   OH270092   6.450   4.211  16.613 -0.3277 -0.6795 -0.2793
16226TIP3    H170093   6.466   4.185  16.523 -1.6256 -0.7400 -0.5082
16226TIP3    H270094   6.495   4.295  16.622  0.5116 -1.0696 -0.7179
16227TIP3   OH270095   3.198   4.278   3.267  0.7673 -0.3740 -0.5391
16227TIP3    H170096   3.232   4.204   3.316 -0.0212 -0.9576 -0.8652
16227TIP3    H270097   3.176   4.343   3.333 -1.8741 -1.7706  0.0930
16228TIP3   OH270098   2.729   1.720  13.631 -0.5365 -0.7661  0.0318
16228TIP3    H170099   2.716   1.693  13.540 -0.1194 -0.8726 -0.0018
16228TIP3    H270100   2.689   1.807  13.637  2.6771  1.0191 -1.3038
16229TIP3   OH270101   5.724   1.755   3.698  0.5426  0.4595 -0.2175
16229TIP3    H170102   5.645   1.716   3.734  0.2601 -0.2846 -1.5837
16229TIP3    H270103   5.753   1.817   3.765 -1.9314  1.7382 -0.2467
16230TIP3   OH270104   4.984   5.983   5.324 -0.3209 -0.0253 -0.4118
16230TIP3    H170105   4.963   6.003   5.233  2.7032 -0.9108 -1.4261
16230TIP3    H270106   5.037   6.057   5.353 -3.1596  1.4395  1.5608
16231TIP3   OH270107   0.006   6.482  16.907 -0.2897 -0.1072 -0.0751
16231TIP3    H170108   0.067   6.434  16.962  0.5799  0.4556 -0.5218
16231TIP3    H270109  -0.065   6.507  16.966 -0.9732 -2.2440  0.0779
16232TIP3   OH270110   3.384   4.326  12.228 -0.4404  0.6387  0.4290
16232TIP3    H170111   3.385   4.236  12.261 -1.3079  0.6962  0.6470
16232TIP3    H270112   3.320   4.371  12.284 -0.9068  1.0911 -0.4475
16233TIP3   OH270113   5.889   4.292  15.348 -0.3661 -0.1762 -0.1119
16233TIP3    H170114   5.954   4.361  15.331 -1.8224  1.1621 -0.4962
16233TIP3    H270115   5.893   4.278  15.442  0.4059 -0.0494 -0.1177
16234TIP3   OH270116   1.476   0.101   4.292  0.1187  0.2326 -0.3145
16234TIP3    H170117   1.447   0.152   4.368 -0.3695 -0.0826 -0.2854
16234TIP3    H270118   1.397   0.055   4.263  1.1261 -2.8219  1.3932
16235TIP3   OH270119   1.302   0.815   3.605 -0.1561 -0.7744  0.3299
16235TIP3    H170120   1.370   0.872   3.570 -0.9356  0.6268  0.9749
16235TIP3    H270121   1.224   0.836   3.553 -0.7258 -0.4238  1.2965
16236TIP3   OH270122   4.775   6.688   5.113 -0.0164  0.0164 -0.0997
16236TIP3    H170123   4.696   6.730   5.145 -0.8149  0.1203 -2.0391
16236TIP3    H270124   4.818   6.653   5.191 -1.9901 -0.0954  0.9960
16237TIP3   OH270125   5.592   1.717  11.490 -0.2346 -0.4330 -0.1723
16237TIP3    H170126   5.587   1.622  11.480 -0.8686 -0.5567  1.1487
16237TIP3    H270127   5.680   1.739  11.458 -0.5712 -1.2586 -1.7970
16238TIP3   OH270128   3.448   2.155   3.826  0.2064  0.1930 -0.1079
16238TIP3    H170129   3.497   2.237   3.838  2.0307 -1.1222  2.3407
16238TIP3    H270130   3.359   2.177   3.854  0.5107  1.4780 -0.0695
16239TIP3   OH270131   3.588   2.826  14.512 -0.2239 -0.1473 -0.3108
16239TIP3    H170132   3.525   2.799  14.446  1.8609 -1.4334 -1.9316
16239TIP3    H270133   3.652   2.879  14.464  0.7771 -0.2233  0.8828
16240TIP3   OH270134   5.888   5.635  13.371  0.0715 -0.3198  0.5060
16240TIP3    H170135   5.938   5.573  13.424 -0.2983 -1.4404 -0.3912
16240TIP3    H270136   5.808   5.587  13.347  0.3959 -0.0076 -1.3470
16241TIP3   OH270137   6.720   1.083  14.214 -0.6730 -0.2701  0.0584
16241TIP3    H170138   6.712   1.130  14.297  2.8863  0.7053 -0.0158
16241TIP3    H270139   6.704   1.150  14.147  0.7659 -0.0009 -0.0316
16242TIP3   OH270140   3.612   4.020  11.615 -0.0065 -0.0570 -0.2662
16242TIP3    H170141   3.696   3.993  11.652 -1.0018  0.9248  3.0760
16242TIP3    H270142   3.566   3.938  11.598  1.0096 -0.5749 -0.5968
16243TIP3   OH270143   4.701   2.911  16.324  0.0308 -0.3599 -0.3308
16243TIP3    H170144   4.650   2.847  16.275 -1.7419  0.6897  0.0348
16243TIP3    H270145   4.651   2.924  16.405  0.4828  1.2279 -0.2706
16244TIP3   OH270146   0.017   5.214   5.551  0.3848  0.5570 -0.2617
16244TIP3    H170147  -0.054   5.216   5.486  0.8767  0.0140 -0.8137
16244TIP3    H270148   0.097   5.224   5.500  1.0186 -2.6934 -0.1015
16245TIP3   OH270149   6.052   2.830  12.517 -0.5244 -0.2575 -0.0219
16245TIP3    H170150   6.115   2.758  12.519 -0.5834 -0.4187 -1.8066
16245TIP3    H270151   6.102   2.906  12.487 -0.5977  0.3304  1.2689
16246TIP3   OH270152   2.011   5.308   0.681 -0.1435  0.3218  0.3467
16246TIP3    H170153   1.936   5.282   0.734 -0.6420 -3.5449 -1.8746
16246TIP3    H270154   2.085   5.263   0.722  0.0085 -0.0775 -0.3414
16247TIP3   OH270155   5.579   0.242  14.061 -0.0234 -0.3311  0.3416
16247TIP3    H170156   5.525   0.210  14.133  0.5035 -2.6325 -0.2053
16247TIP3    H270157   5.528   0.224  13.982 -0.0286  0.9512  0.0153
16248TIP3   OH270158   0.800   1.900  13.765  0.5250  0.1605  0.5737
16248TIP3    H170159   0.742   1.974  13.784 -2.9955 -2.1706 -0.2230
16248TIP3    H270160   0.851   1.929  13.689 -1.6470  1.4176 -0.5118
16249TIP3   OH270161   0.763   0.833  13.618 -0.2515  0.3106  0.1182
16249TIP3    H170162   0.709   0.826  13.539  1.4835 -1.3040 -1.0138
16249TIP3    H270163   0.817   0.910  13.603  0.1774 -0.0763 -0.3711
16250TIP3   OH270164   1.891   1.490  16.785 -0.0017 -0.1429 -0.0933
16250TIP3    H170165   1.882   1.585  16.778  1.0458 -0.0560 -0.3492
16250TIP3    H270166   1.851   1.455  16.705  0.0702  0.1078 -0.2383
16251TIP3   OH270167   3.403   5.230  12.014  0.5205  0.5560 -0.1554
16251TIP3    H170168   3.385   5.316  11.976  1.0087  0.1016 -1.4679
16251TIP3    H270169   3.468   5.247  12.083  1.5436  1.1122 -1.2133
16252TIP3   OH270170   2.760   2.470   5.974  0.1082 -0.5587 -0.0105
16252TIP3    H170171   2.837   2.506   5.930 -0.2846 -0.0967 -0.3381
16252TIP3    H270172   2.753   2.520   6.055 -0.1512 -0.2203 -0.2344
16253TIP3   OH270173   5.214   3.766  15.526 -0.4922 -0.0157 -0.3484
16253TIP3    H170174   5.267   3.817  15.464  0.8570 -0.1624  0.6523
16253TIP3    H270175   5.205   3.822  15.603 -0.8828 -0.4300 -0.0824
16254TIP3   OH270176   1.084   2.326   5.449 -0.2582  0.1516 -0.1958
16254TIP3    H170177   1.090   2.390   5.378 -2.1153  0.0208 -0.5123
16254TIP3    H270178   1.147   2.258   5.424 -0.6762  0.2463 -1.5751
16255TIP3   OH270179   5.441   5.910   4.974  0.4481 -0.2365  0.0100
16255TIP3    H170180   5.525   5.923   5.017  0.3659  1.4558 -0.2501
16255TIP3    H270181   5.449   5.826   4.930  2.2265  0.1475 -0.4926
16256TIP3   OH270182   2.855   1.187  16.629 -0.0171 -0.0216 -0.1790
16256TIP3    H170183   2.848   1.278  16.657  0.8664  0.2904 -0.9040
16256TIP3    H270184   2.879   1.139  16.708  1.6272  0.7092 -0.1901
16257TIP3   OH270185   2.960   5.586   2.596  0.0958 -0.2173 -0.4469
16257TIP3    H170186   2.924   5.510   2.551  0.4773 -0.2103 -0.7670
16257TIP3    H270187   3.022   5.550   2.659  0.0065 -0.1931 -0.3453
16258TIP3   OH270188   0.451   5.786   4.253  0.4169 -0.1618 -0.0472
16258TIP3    H170189   0.395   5.708   4.260  1.7397 -1.3475 -1.7834
16258TIP3    H270190   0.392   5.859   4.271 -1.2889 -1.4574 -0.0938
16259TIP3   OH270191   3.404   5.438  16.554 -0.0684  0.0217 -0.2574
16259TIP3    H170192   3.368   5.448  16.466  0.4177 -0.9988 -0.5952
16259TIP3    H270193   3.330   5.452  16.612 -1.1150 -2.2016 -0.9387
16260TIP3   OH270194   1.751   5.779  12.386 -0.2987  0.0270 -0.0449
16260TIP3    H170195   1.667   5.741  12.414  0.4138 -2.1834 -0.6805
16260TIP3    H270196   1.727   5.855  12.333 -1.8384  0.3076  0.9828
16261TIP3   OH270197   1.472   1.494  15.179  0.4731  0.2647  0.1136
16261TIP3    H170198   1.467   1.470  15.272  0.3731  1.2713  0.3843
16261TIP3    H270199   1.564   1.483  15.157  0.2145 -1.5682 -0.1283
16262TIP3   OH270200   1.248   2.571  11.421  0.1724 -0.3909 -0.2409
16262TIP3    H170201   1.272   2.547  11.331  2.5383  0.3225  0.1253
16262TIP3    H270202   1.239   2.487  11.466  1.2894 -0.7407 -0.6249
16263TIP3   OH270203   3.477   4.210  14.869 -0.1377  0.3442 -0.0145
16263TIP3    H170204   3.483   4.184  14.777  1.8315 -3.2324  0.9471
16263TIP3    H270205   3.388   4.186  14.896 -0.2088 -0.0438 -0.5957
16264TIP3   OH270206   5.080   0.394   3.100 -0.1444  0.1651  0.2461
16264TIP3    H170207   5.027   0.353   3.032 -2.3596  0.6744  1.5787
16264TIP3    H270208   5.021   0.457   3.142  0.7681 -0.8682  3.3137
16265TIP3   OH270209   2.941   2.803   0.124 -0.0249  0.0981  0.5222
16265TIP3    H170210   2.921   2.728   0.180 -1.5484  0.5086  0.5925
16265TIP3    H270211   2.858   2.821   0.079  0.4693  1.3708  0.0806
16266TIP3   OH270212   5.615   3.569   2.518  0.2615  0.0179  0.3759
16266TIP3    H170213   5.545   3.512   2.550  0.8694 -0.3055  1.1580
16266TIP3    H270214   5.696   3.521   2.537  0.6680 -0.6755 -2.5925
16267TIP3   OH270215   5.671   5.740   4.448 -0.4476 -0.3038 -0.3274
16267TIP3    H170216   5.586   5.721   4.488  0.0494 -0.8260  0.5012
16267TIP3    H270217   5.652   5.807   4.383 -1.3807  0.1284  0.3690
16268TIP3   OH270218   5.438   6.658   5.124 -0.3113 -0.5488 -0.2994
16268TIP3    H170219   5.381   6.582   5.111  0.5294 -1.1040 -0.7783
16268TIP3    H270220   5.500   6.654   5.052  1.5534 -1.0551  1.2544
16269TIP3   OH270221   1.531   2.427   5.282 -0.0625 -0.8039 -0.1199
16269TIP3    H170222   1.509   2.362   5.349 -0.1843  0.4317  1.0871
16269TIP3    H270223   1.554   2.375   5.205 -1.8726 -2.2469  0.2461
16270TIP3   OH270224   5.128   2.004   2.900 -0.2819  0.3476 -0.0488
16270TIP3    H170225   5.083   2.085   2.923  0.2332  0.7859 -0.5453
16270TIP3    H270226   5.080   1.935   2.946 -2.3592  0.6173 -1.6375
16271TIP3   OH270227   6.160   5.576   0.937  0.2383 -0.4283 -0.6464
16271TIP3    H170228   6.177   5.618   0.853 -0.1624 -1.7062 -1.3998
16271TIP3    H270229   6.075   5.533   0.926 -0.2566  0.1262  0.7297
16272TIP3   OH270230   5.359   0.583  11.963 -0.2114 -0.1267  0.6465
16272TIP3    H170231   5.432   0.610  12.018 -0.4654  0.4865  0.6906
16272TIP3    H270232   5.284   0.633  11.997 -0.3502  0.3402 -0.3276
16273TIP3   OH270233   1.502   4.915  15.508  0.1389  0.3933  0.5504
16273TIP3    H170234   1.593   4.940  15.490  0.4348 -0.4821  0.7816
16273TIP3    H270235   1.455   4.937  15.428  1.0170 -1.4019 -0.5137
16274TIP3   OH270236   2.385   0.767   2.432 -0.0279  0.1715  0.0304
16274TIP3    H170237   2.352   0.710   2.363 -2.7008 -0.0623  1.3846
16274TIP3    H270238   2.320   0.761   2.502  1.1722  2.5144  1.4843
16275TIP3   OH270239   2.714   0.470   1.642 -0.3507 -0.2156 -0.2814
16275TIP3    H170240   2.673   0.427   1.717  0.7016  1.9044  1.6504
16275TIP3    H270241   2.808   0.466   1.661 -0.0613  0.4089 -1.4741
16276TIP3   OH270242   3.163   4.006  17.152  0.3236  0.0153  0.1258
16276TIP3    H170243   3.109   3.934  17.121  3.1603 -1.2180 -2.5454
16276TIP3    H270244   3.165   3.997  17.247 -0.6474 -2.4877 -0.0397
16277TIP3   OH270245   4.269   4.919  11.195 -0.2443  0.0147  0.2582
16277TIP3    H170246   4.349   4.906  11.244  0.5586 -1.0983 -1.2641
16277TIP3    H270247   4.233   5.002  11.229  1.6931  0.7062  0.7492
16278TIP3   OH270248   6.176   1.077   1.823 -0.3495 -0.0229 -0.0458
16278TIP3    H170249   6.233   1.027   1.765 -1.3407 -0.3948 -0.7245
16278TIP3    H270250   6.234   1.106   1.894  0.2373 -2.1906  0.4316
16279TIP3   OH270251   3.120   0.041  13.688  0.2755  0.1537 -0.3500
16279TIP3    H170252   3.097  -0.051  13.700  1.0707  0.0997  1.0949
16279TIP3    H270253   3.179   0.042  13.613  0.6282 -0.5953 -0.0886
16280TIP3   OH270254   0.539   5.143  12.625  0.2524  0.4244  0.0780
16280TIP3    H170255   0.537   5.227  12.669  2.2461 -0.5011  2.1229
16280TIP3    H270256   0.491   5.084  12.683  1.3250 -0.4387  0.1183
16281TIP3   OH270257   1.954   4.442   0.563 -0.4776 -0.4347  0.9662
16281TIP3    H170258   1.979   4.473   0.476 -0.4490 -1.9557  0.3991
16281TIP3    H270259   2.038   4.422   0.605 -0.4889  0.3508  1.3816
16282TIP3   OH270260   2.791   0.626  15.055 -0.6845  0.1380  0.0973
16282TIP3    H170261   2.703   0.610  15.091 -1.2202 -0.9436 -1.5791
16282TIP3    H270262   2.839   0.545  15.073 -0.9698 -0.4390 -1.5456
16283TIP3   OH270263   3.228   5.162   1.959 -0.1458  0.2811  0.8346
16283TIP3    H170264   3.152   5.195   1.911  1.1235  0.5803 -1.0685
16283TIP3    H270265   3.241   5.074   1.924  1.0396  0.6493  0.3091
16284TIP3   OH270266   5.138   4.346   3.188 -0.3321 -0.2950 -0.3007
16284TIP3    H170267   5.050   4.383   3.196  0.0220  0.5349 -0.0934
16284TIP3    H270268   5.188   4.387   3.259 -0.0006 -1.4655  0.1702
16285TIP3   OH270269   5.677   3.206  16.574 -0.4977  0.1669  0.1301
16285TIP3    H170270   5.710   3.221  16.662  0.2852 -0.6322 -0.0056
16285TIP3    H270271   5.583   3.195  16.584 -0.2823 -1.0019  1.0229
16286TIP3   OH270272   5.164   5.849  15.618  0.1555 -0.1857 -0.2611
16286TIP3    H170273   5.165   5.896  15.535  0.4570  0.6868  0.2325
16286TIP3    H270274   5.071   5.840  15.639  0.0989  0.3688 -0.2616
16287TIP3   OH270275   1.145   3.050  13.564 -0.0902  0.2432  0.0380
16287TIP3    H170276   1.075   3.077  13.623 -0.5708 -1.1533  0.1420
16287TIP3    H270277   1.221   3.040  13.621 -0.6825 -1.6310  0.5829
16288TIP3   OH270278   5.125   2.240  11.132 -0.2105 -0.1979 -0.1293
16288TIP3    H170279   5.183   2.291  11.076 -0.9649  1.1445  0.2555
16288TIP3    H270280   5.135   2.150  11.102  0.1611  0.3510 -1.7354
16289TIP3   OH270281   3.975   3.906  13.161  0.0213 -0.3785  0.1244
16289TIP3    H170282   3.908   3.899  13.093  1.3491 -1.0354 -1.1617
16289TIP3    H270283   3.958   3.991  13.203 -2.3210 -1.0356  0.6664
16290TIP3   OH270284   0.265   3.742  16.064  0.0754 -0.3597  0.2895
16290TIP3    H170285   0.209   3.802  16.015 -0.7341 -2.3162 -1.3014
16290TIP3    H270286   0.306   3.687  15.997  0.8097 -1.5747  1.6864
16291TIP3   OH270287   0.061   0.627  13.404 -0.1554 -0.4849  0.4958
16291TIP3    H170288   0.117   0.692  13.447  0.4963  0.0360 -1.0657
16291TIP3    H270289   0.112   0.598  13.328 -1.2271 -1.4241  0.1057
16292TIP3   OH270290   5.545   1.316  13.278  0.5890 -0.3588  0.8098
16292TIP3    H170291   5.454   1.292  13.292  0.2741 -0.0374 -0.5978
16292TIP3    H270292   5.554   1.402  13.320 -0.0773  0.1578 -0.0851
16293TIP3   OH270293   3.027   5.095   6.171 -0.1542 -0.2624  0.5101
16293TIP3    H170294   3.073   5.089   6.254 -0.7598  1.0376  0.9652
16293TIP3    H270295   3.025   5.188   6.151 -0.6580 -0.4881 -0.6038
16294TIP3   OH270296   4.783   0.352  11.481 -0.2744  0.5603 -0.6462
16294TIP3    H170297   4.784   0.342  11.385 -0.0168 -1.6806 -0.4746
16294TIP3    H270298   4.694   0.327  11.506  0.0530 -0.1803 -0.2050
16295TIP3   OH270299   4.863   3.427  17.093  0.2643 -0.4696 -1.0267
16295TIP3    H170300   4.959   3.428  17.095  0.2572  0.3747 -0.2931
16295TIP3    H270301   4.838   3.411  17.184 -0.2981 -1.4342 -1.3375
16296TIP3   OH270302   3.896   5.263   2.894 -0.1227  0.3071 -0.2116
16296TIP3    H170303   3.959   5.213   2.843  1.8593  1.0095  1.4043
16296TIP3    H270304   3.950   5.326   2.943 -2.2024  1.7099  0.4016
16297TIP3   OH270305   5.893   4.624   0.208  0.5488  0.3660  0.2388
16297TIP3    H170306   5.955   4.641   0.138  0.1973 -1.4483 -0.5753
16297TIP3    H270307   5.810   4.662   0.177  0.3282 -0.6622 -0.4933
16298TIP3   OH270308   2.065   4.101   0.589 -0.0213 -0.4638  0.1657
16298TIP3    H170309   2.125   4.167   0.554  1.1154 -1.2578  0.5693
16298TIP3    H270310   2.102   4.018   0.559  0.2550 -1.0952  2.1476
16299TIP3   OH270311   1.041   0.111   4.584  0.6876 -0.5371 -0.6012
16299TIP3    H170312   1.080   0.035   4.626 -2.2879 -2.3360 -0.7881
16299TIP3    H270313   0.980   0.147   4.649  0.5474  0.4357 -1.2380
16300TIP3   OH270314   0.978   0.296  16.637 -0.3051 -0.4067  0.4686
16300TIP3    H170315   1.007   0.361  16.701 -0.8843 -0.3287  0.6576
16300TIP3    H270316   1.037   0.222  16.650  1.3088  0.5970 -0.7356
16301TIP3   OH270317   3.648   5.079  16.931  0.1964 -0.2896 -0.4147
16301TIP3    H170318   3.690   5.163  16.914  2.3095 -1.2340 -0.2317
16301TIP3    H270319   3.638   5.039  16.845 -0.8986  0.1534 -0.5112
16302TIP3   OH270320   1.063   2.940   4.698 -0.1267 -0.1905  0.3681
16302TIP3    H170321   1.106   3.024   4.713  0.6504 -0.6668  0.9387
16302TIP3    H270322   0.971   2.955   4.720 -0.1913  0.7521 -0.4830
16303TIP3   OH270323   3.363   6.420   1.041 -0.3412 -0.4204 -0.4600
16303TIP3    H170324   3.421   6.495   1.028 -1.4964  1.1094  2.3280
16303TIP3    H270325   3.329   6.400   0.954  2.5363  0.0794 -1.7973
16304TIP3   OH270326   5.698   2.311  12.238  0.1862  0.8114 -0.7394
16304TIP3    H170327   5.777   2.330  12.288  0.8426 -0.1601 -1.3574
16304TIP3    H270328   5.675   2.394  12.197  0.6461  1.2049 -0.2083
16305TIP3   OH270329   4.146   4.835  15.200 -0.2880  0.6858 -0.2830
16305TIP3    H170330   4.217   4.781  15.166  1.7845  2.0250  1.6103
16305TIP3    H270331   4.101   4.779  15.263  0.2910  0.4032 -0.1142
16306TIP3   OH270332   3.731   0.453  13.230 -0.0024  0.3151  0.0812
16306TIP3    H170333   3.790   0.408  13.170  0.8165 -1.9864  2.4385
16306TIP3    H270334   3.789   0.504  13.286 -0.4770  0.1152  0.7577
16307TIP3   OH270335   1.619   3.591  15.076  0.0126 -0.5452 -0.1310
16307TIP3    H170336   1.560   3.583  15.002  0.6501  1.3250 -0.9108
16307TIP3    H270337   1.610   3.509  15.124 -1.3387 -1.2874 -1.5896
16308TIP3   OH270338   4.447   2.794  13.096  0.0086  0.9368 -0.0784
16308TIP3    H170339   4.498   2.844  13.032 -0.2768  0.7054 -0.4897
16308TIP3    H270340   4.478   2.825  13.181  2.0036 -0.3115 -0.2675
16309TIP3   OH270341   2.487   2.896  10.909 -0.4729 -0.2125 -0.4825
16309TIP3    H170342   2.558   2.956  10.885 -0.1175 -0.5613 -0.3075
16309TIP3    H270343   2.455   2.929  10.993 -1.1581  0.5098 -1.0129
16310TIP3   OH270344   1.921   6.342   2.400 -0.0846  0.4533  0.3337
16310TIP3    H170345   1.834   6.320   2.431 -0.2790 -0.2029 -0.6438
16310TIP3    H270346   1.934   6.433   2.427 -2.1562  1.4900 -1.7666
16311TIP3   OH270347   1.057   4.466  10.833  0.1605 -0.7180 -0.2738
16311TIP3    H170348   1.085   4.374  10.829  0.4269 -0.5766 -3.3984
16311TIP3    H270349   0.961   4.461  10.832  0.1324 -0.9317  0.9434
16312TIP3   OH270350   5.344   1.304   0.387  0.2569 -0.1588 -0.1971
16312TIP3    H170351   5.271   1.318   0.328 -0.4015 -0.1025  0.6091
16312TIP3    H270352   5.337   1.212   0.413  1.1249 -0.4592 -0.9484
16313TIP3   OH270353   2.224   1.118   5.284  0.9931  0.1389 -0.4449
16313TIP3    H170354   2.184   1.103   5.370 -1.2602  1.5649 -1.1602
16313TIP3    H270355   2.217   1.033   5.239  1.9888 -0.5543  0.6437
16314TIP3   OH270356   4.957   1.942  16.739  0.1789 -0.1155  0.8067
16314TIP3    H170357   4.994   1.999  16.807 -0.1573  0.6066  0.3969
16314TIP3    H270358   4.981   1.984  16.657 -2.4909  1.0525  0.5187
16315TIP3   OH270359   3.677   5.447   4.846  0.6733  0.6987 -0.5886
16315TIP3    H170360   3.694   5.493   4.764  0.1481 -0.6017 -1.4518
16315TIP3    H270361   3.591   5.406   4.833  0.7760  0.1217  0.4507
16316TIP3   OH270362   4.335   1.709  11.539 -0.1784 -0.3953 -0.7000
16316TIP3    H170363   4.399   1.638  11.535  0.3193  0.0016  0.1096
16316TIP3    H270364   4.356   1.765  11.465  0.2484 -0.4048 -0.5868
16317TIP3   OH270365   0.484   6.020   3.207 -0.1840  0.2111  0.3866
16317TIP3    H170366   0.503   6.041   3.115  0.1877 -0.6975  0.2439
16317TIP3    H270367   0.430   6.093   3.238  2.1187  2.0621  0.3121
16318TIP3   OH270368   6.648   4.809  14.898  0.1923  0.1705 -0.1544
16318TIP3    H170369   6.633   4.858  14.979  1.7069  2.1758 -1.0035
16318TIP3    H270370   6.729   4.762  14.913  0.7242  0.9102 -0.6265
16319TIP3   OH270371   2.917   0.090  15.265  0.1673 -0.0768 -0.4412
16319TIP3    H170372   2.867   0.093  15.346  0.1671 -1.2338 -0.3764
16319TIP3    H270373   2.990   0.031  15.284 -0.6318 -1.5369 -1.6768
16320TIP3   OH270374   5.636   4.606   1.241  0.6392 -0.3198 -0.0649
16320TIP3    H170375   5.671   4.537   1.184  1.3426 -0.0944  0.0841
16320TIP3    H270376   5.635   4.684   1.186 -1.1624 -0.6510 -0.5664
16321TIP3   OH270377   2.549   5.682   0.836 -0.2966  0.5955  0.2787
16321TIP3    H170378   2.453   5.679   0.828 -0.2495 -1.9052  0.1053
16321TIP3    H270379   2.578   5.726   0.756 -1.2422  0.7959  0.0303
16322TIP3   OH270380   0.329   3.537  15.161 -0.0747  0.4482  0.4191
16322TIP3    H170381   0.407   3.570  15.117 -0.3864 -0.8079 -1.1510
16322TIP3    H270382   0.265   3.524  15.091 -1.1495 -0.0839  1.4583
16323TIP3   OH270383   0.883   4.479  14.926 -0.3974  0.6833  0.4000
16323TIP3    H170384   0.959   4.424  14.946  0.3804  1.9110  0.9178
16323TIP3    H270385   0.895   4.504  14.834  0.5467  1.9210  0.8284
16324TIP3   OH270386   1.895   3.764  14.460  0.1106  0.1847 -0.0430
16324TIP3    H170387   1.892   3.842  14.405  0.0572  0.6568  0.6167
16324TIP3    H270388   1.970   3.777  14.517 -0.7061  0.4193  1.0204
16325TIP3   OH270389   6.285   1.913   2.694 -0.0191  0.0809  0.2423
16325TIP3    H170390   6.283   1.891   2.787  0.8209  1.6762  0.6748
16325TIP3    H270391   6.291   2.009   2.692 -1.3538  0.1820 -1.4801
16326TIP3   OH270392   3.950   0.044  11.412  0.3341  0.5880  0.4046
16326TIP3    H170393   3.973  -0.045  11.385  0.7571  0.7112  0.3524
16326TIP3    H270394   3.867   0.035  11.458 -1.1523  0.5468 -2.1282
16327TIP3   OH270395   6.123   2.226  15.661  0.0878 -0.6671 -0.3704
16327TIP3    H170396   6.057   2.295  15.661  0.4913 -0.2704 -0.7631
16327TIP3    H270397   6.198   2.265  15.616  0.5078 -1.1872 -0.1309
16328TIP3   OH270398   3.022   3.937  14.630  0.5700  0.0889 -0.0842
16328TIP3    H170399   3.090   3.890  14.582  1.1226  1.0138 -0.2211
16328TIP3    H270400   2.954   3.953  14.565  0.8858  0.4833 -0.3176
16329TIP3   OH270401   4.551   4.612  16.387  0.2542 -0.7214  0.4038
16329TIP3    H170402   4.542   4.543  16.322  0.5370 -1.3843  1.0555
16329TIP3    H270403   4.626   4.664  16.357 -0.2739 -0.3734 -0.3641
16330TIP3   OH270404   4.624   0.001  14.733 -0.0033  0.0613  0.5596
16330TIP3    H170405   4.628  -0.002  14.638  0.6196 -0.7619  0.6021
16330TIP3    H270406   4.552  -0.057  14.757 -0.7634  0.9875  0.5610
16331TIP3   OH270407   3.026   5.202  14.299  0.0269 -0.1801  0.3957
16331TIP3    H170408   3.012   5.191  14.205  2.6224  1.5308 -0.3083
16331TIP3    H270409   3.116   5.172  14.314 -0.8437 -1.9292  2.6970
16332TIP3   OH270410   1.482   2.499   1.556 -0.0564 -0.5950 -0.3050
16332TIP3    H170411   1.494   2.495   1.651  1.6365  2.4462 -0.2561
16332TIP3    H270412   1.561   2.458   1.520  0.2806  0.0545 -0.3279
16333TIP3   OH270413   5.678   5.282   3.574  0.3576 -0.2030  0.0521
16333TIP3    H170414   5.602   5.304   3.520 -0.1357  1.1910  1.2372
16333TIP3    H270415   5.710   5.200   3.538 -1.1036 -0.3063 -1.1213
16334TIP3   OH270416   0.855   6.727   0.134 -0.9533  0.1787 -0.5205
16334TIP3    H170417   0.920   6.666   0.172  0.3664  2.0325  0.3387
16334TIP3    H270418   0.773   6.704   0.177 -0.1142  0.1533  1.1609
16335TIP3   OH270419   0.153   0.092  16.933 -0.3403  0.1326 -0.1817
16335TIP3    H170420   0.097   0.068  17.007  1.1520 -2.3663  0.2658
16335TIP3    H270421   0.241   0.093  16.970  0.3239 -0.0874 -1.6914
16336TIP3   OH270422   2.191   5.046   4.800  0.0703  0.7295 -0.4253
16336TIP3    H170423   2.185   5.141   4.809  0.2714  0.5475  2.5731
16336TIP3    H270424   2.268   5.022   4.852 -0.1713 -1.1067 -0.8672
16337TIP3   OH270425   5.360   3.388   4.612 -0.0173  0.2757 -0.4367
16337TIP3    H170426   5.347   3.317   4.549  1.4959  0.7407 -1.3390
16337TIP3    H270427   5.417   3.350   4.679 -1.5290 -0.1826  0.6145
16338TIP3   OH270428   3.833   0.974  16.385 -0.3145  0.4880 -0.0905
16338TIP3    H170429   3.838   1.061  16.424 -2.3481  0.8545 -0.5489
16338TIP3    H270430   3.868   0.985  16.296 -0.8447  0.9172 -0.2493
16339TIP3   OH270431   3.004   6.493  17.057  0.0479 -0.2606  0.2331
16339TIP3    H170432   3.034   6.405  17.081 -2.2255 -0.7852  1.4274
16339TIP3    H270433   3.026   6.547  17.133  1.9662  0.4082 -0.7274
16340TIP3   OH270434   6.218   4.967  10.883 -0.1344  0.1959 -0.2463
16340TIP3    H170435   6.306   4.991  10.912  0.0342  1.0343 -1.4054
16340TIP3    H270436   6.198   5.028  10.812 -2.4694  1.4062  1.3100
16341TIP3   OH270437   4.034   5.964  12.066  0.0868 -0.3268  0.6011
16341TIP3    H170438   3.972   5.906  12.021 -0.4524 -0.4460  1.4603
16341TIP3    H270439   3.980   6.039  12.094  0.3615 -0.3604  1.2269
16342TIP3   OH270440   4.886   2.126   2.441 -0.2994 -0.5377  0.7144
16342TIP3    H170441   4.814   2.170   2.487  0.2463  0.0355  1.0461
16342TIP3    H270442   4.927   2.071   2.507  1.5103  1.5221  1.4454
16343TIP3   OH270443   3.802   4.167   5.238 -0.4387  0.1104 -0.5256
16343TIP3    H170444   3.792   4.115   5.317 -1.0758 -0.4678 -0.9664
16343TIP3    H270445   3.866   4.118   5.185  1.6492  1.6039  0.4996
16344TIP3   OH270446   5.648   0.959  13.158 -0.4929  0.0463  0.0443
16344TIP3    H170447   5.658   0.872  13.120 -0.2779 -0.7673  1.8578
16344TIP3    H270448   5.640   1.017  13.083  0.1776 -1.4336 -1.2240
16345TIP3   OH270449   0.735   5.468   5.451 -0.5155 -0.4447  0.0093
16345TIP3    H170450   0.777   5.384   5.433 -0.5354 -0.2718 -0.8553
16345TIP3    H270451   0.794   5.512   5.512  0.4376 -0.3115 -0.9754
16346TIP3   OH270452   5.595   2.630  11.016  0.3498  1.0430 -0.3081
16346TIP3    H170453   5.510   2.673  11.022  0.1089  0.5494 -0.1486
16346TIP3    H270454   5.647   2.670  11.086 -0.8437 -1.0811  1.9295
16347TIP3   OH270455   2.667   0.403  13.341  0.2087 -0.3156 -0.5067
16347TIP3    H170456   2.704   0.488  13.363 -0.7261  0.0595 -0.3384
16347TIP3    H270457   2.572   0.415  13.348  0.0395 -1.2211 -1.0154
16348TIP3   OH270458   3.931   2.616  17.044  0.0096 -0.4702 -0.7325
16348TIP3    H170459   3.905   2.611  17.136  1.9084 -2.1052 -0.2128
16348TIP3    H270460   3.855   2.653  17.000 -1.3881 -0.7068  1.3141
16349TIP3   OH270461   0.888   0.976   4.828 -0.2974 -0.1354 -0.0273
16349TIP3    H170462   0.948   0.906   4.803 -0.1390 -0.4840  1.2732
16349TIP3    H270463   0.900   0.986   4.922 -2.3971 -0.3260  0.3066
16350TIP3   OH270464   3.613   0.970  16.027  0.4365 -0.1667 -0.0672
16350TIP3    H170465   3.587   0.916  16.102  1.8032  0.7901  1.1401
16350TIP3    H270466   3.535   1.023  16.008 -0.3797 -1.3751 -0.2321
16351TIP3   OH270467   0.007   2.274   2.954  0.0700  0.6549  0.3403
16351TIP3    H170468   0.024   2.269   2.860  1.5562  0.1211  0.6082
16351TIP3    H270469   0.085   2.235   2.995 -0.7612  0.4257  1.7827
16352TIP3   OH270470   3.954   6.018   3.452 -0.0473 -0.1176  0.5726
16352TIP3    H170471   4.024   6.062   3.500  0.8941  0.2535 -1.0539
16352TIP3    H270472   3.915   6.088   3.399 -1.6881 -0.3210  1.4715
16353TIP3   OH270473   5.396   2.262   2.994 -0.1236 -0.0913  0.1476
16353TIP3    H170474   5.316   2.315   2.999  0.3771  0.6088  1.2091
16353TIP3    H270475   5.436   2.271   3.080  1.8616  0.7908 -0.7984
16354TIP3   OH270476   1.864   2.761  15.353  0.1625 -0.4780 -0.0296
16354TIP3    H170477   1.775   2.759  15.388  0.0574  1.1648 -0.1269
16354TIP3    H270478   1.918   2.791  15.425  0.3814  0.1335 -0.4403
16355TIP3   OH270479   3.369   6.761  11.937  0.0032 -0.4125 -0.0152
16355TIP3    H170480   3.353   6.777  11.844  2.5431  0.1829 -0.4121
16355TIP3    H270481   3.304   6.694  11.961 -0.4351 -0.9005 -2.2973
16356TIP3   OH270482   1.553   3.100   1.396  0.3053 -0.0452 -0.2710
16356TIP3    H170483   1.634   3.119   1.444  1.3261  0.6795 -2.1539
16356TIP3    H270484   1.559   3.154   1.317 -1.4470 -0.9089 -1.0474
16357TIP3   OH270485   5.424   0.030   1.127  0.3699  0.3402  0.2026
16357TIP3    H170486   5.338   0.065   1.104  0.5283  0.9604  0.5402
16357TIP3    H270487   5.469   0.020   1.043 -0.4341 -1.1059 -0.0948
16358TIP3   OH270488   6.542   6.697  11.191 -0.8745  0.6261  0.1699
16358TIP3    H170489   6.565   6.754  11.264  0.3861  1.0099 -0.4967
16358TIP3    H270490   6.529   6.757  11.117  0.6856  0.0749 -0.5940
16359TIP3   OH270491   0.164   2.877  12.810  0.3356  0.5250 -0.2789
16359TIP3    H170492   0.145   2.969  12.828 -1.1053  0.1417  0.3481
16359TIP3    H270493   0.140   2.865  12.718  1.4622  0.9851 -0.6461
16360TIP3   OH270494   5.105   0.127   5.704 -0.6058  0.0697 -0.0067
16360TIP3    H170495   5.129   0.044   5.744 -2.1098 -0.8733 -0.9435
16360TIP3    H270496   5.176   0.146   5.642 -1.3605 -1.8081 -1.5547
16361TIP3   OH270497   1.894   0.138   3.108  0.3629 -0.0795 -0.1341
16361TIP3    H170498   1.836   0.122   3.033  1.4665 -0.4944 -0.9287
16361TIP3    H270499   1.835   0.149   3.182 -0.7583  0.2943 -1.0580
16362TIP3   OH270500   6.252   2.179  13.265 -0.3949 -0.5919  0.0815
16362TIP3    H170501   6.182   2.234  13.229  0.4313  0.7892  0.4773
16362TIP3    H270502   6.269   2.218  13.351 -0.0107 -1.7104  0.5208
16363TIP3   OH270503   2.900   1.381  11.982  0.3712  0.1348  0.1587
16363TIP3    H170504   2.893   1.334  11.899 -0.0087  0.9215 -0.2636
16363TIP3    H270505   2.933   1.468  11.958  1.3938 -0.0199  0.9627
16364TIP3   OH270506   3.370   1.172  15.629 -0.1866 -0.1174  0.2943
16364TIP3    H170507   3.416   1.088  15.638  1.2578  0.6956  0.7545
16364TIP3    H270508   3.328   1.185  15.714  0.2854  0.0188  0.5077
16365TIP3   OH270509   4.481   0.261  14.411  0.1380  0.0662  0.5197
16365TIP3    H170510   4.478   0.335  14.350  0.8096 -0.8326 -0.6479
16365TIP3    H270511   4.514   0.298  14.492 -0.5930  1.2635  0.2932
16366TIP3   OH270512   2.856   5.725   0.897 -0.4967  0.1693  0.1545
16366TIP3    H170513   2.836   5.659   0.964 -2.7920  1.9368  1.3452
16366TIP3    H270514   2.796   5.705   0.826 -0.3732  0.2921  0.0154
16367TIP3   OH270515   3.678   0.152  17.303 -0.1102 -0.3968 -0.6035
16367TIP3    H170516   3.632   0.078  17.265  1.0102 -1.2404 -0.3607
16367TIP3    H270517   3.758   0.115  17.340 -0.6518  0.5248  1.6851
16368TIP3   OH270518   0.207   5.899   2.809 -0.1133  0.0276 -0.0920
16368TIP3    H170519   0.187   5.990   2.785  2.9542  1.3353  1.6989
16368TIP3    H270520   0.273   5.871   2.746 -0.9280 -0.9433 -0.5336
16369TIP3   OH270521   1.338   3.480   2.019  0.3949  0.3646  0.0126
16369TIP3    H170522   1.361   3.388   2.032 -0.1658 -0.0389 -1.6369
16369TIP3    H270523   1.419   3.521   1.988  0.5508  0.3494  0.4000
16370TIP3   OH270524   2.367   5.399   1.849  0.2830  0.1315  0.2004
16370TIP3    H170525   2.375   5.444   1.933  1.0848  0.8426 -0.2300
16370TIP3    H270526   2.274   5.400   1.830  0.0653 -0.2792  1.2080
16371TIP3   OH270527   0.891   1.520  12.162 -0.0219 -0.3932  0.0926
16371TIP3    H170528   0.848   1.436  12.146 -2.0336  0.4441  0.8359
16371TIP3    H270529   0.891   1.529  12.257  1.4415 -0.1545  0.0899
16372TIP3   OH270530   4.713   6.118   5.382  0.2485  1.2403 -0.1658
16372TIP3    H170531   4.779   6.129   5.450  1.4693 -1.7847 -0.7132
16372TIP3    H270532   4.634   6.090   5.430  0.2639  1.8355  0.2198
16373TIP3   OH270533   6.339   1.117   6.036  0.5103  0.0509 -0.8322
16373TIP3    H170534   6.342   1.178   6.110 -1.5208 -0.2648 -0.4405
16373TIP3    H270535   6.407   1.052   6.057  0.1016  0.0697  0.6808
16374TIP3   OH270536   4.493   2.028  12.158 -0.1888  0.6658 -0.8347
16374TIP3    H170537   4.498   1.939  12.124  0.0815 -0.1698  1.2562
16374TIP3    H270538   4.544   2.080  12.096  2.0165 -1.1151 -0.6700
16375TIP3   OH270539   4.291   5.407  12.302 -0.5128 -0.0432 -0.3777
16375TIP3    H170540   4.274   5.495  12.266 -0.6403  0.1381  0.1281
16375TIP3    H270541   4.205   5.365  12.302 -0.9093  0.6514  1.5740
16376TIP3   OH270542   6.096   1.399  15.801 -0.0644  0.5384  0.3932
16376TIP3    H170543   6.186   1.380  15.829 -0.3274  1.2299  1.7979
16376TIP3    H270544   6.096   1.494  15.785  0.0907  0.1765 -2.1609
16377TIP3   OH270545   4.039   6.437   4.174  0.2580  0.5734 -0.4032
16377TIP3    H170546   4.069   6.522   4.142  0.0301  0.9873  0.4340
16377TIP3    H270547   4.103   6.374   4.140  0.7089  1.1418 -0.6243
16378TIP3   OH270548   1.394   1.984  14.324 -0.2001 -0.1419 -0.1207
16378TIP3    H170549   1.475   1.964  14.277  0.0086 -1.4031  0.7130
16378TIP3    H270550   1.327   1.992  14.256  0.8182  2.2734 -0.9541
16379TIP3   OH270551   2.128   6.265   3.810 -0.1108  0.0119 -0.5660
16379TIP3    H170552   2.206   6.318   3.823 -0.5563  0.8883 -1.3573
16379TIP3    H270553   2.066   6.324   3.766 -1.4473 -0.4524  0.6228
16380TIP3   OH270554   1.981   3.648  12.820 -0.1026  0.3669 -0.5322
16380TIP3    H170555   1.903   3.593  12.823 -1.0089  1.6245  0.3088
16380TIP3    H270556   2.053   3.589  12.842 -0.8580 -0.7250 -0.8787
16381TIP3   OH270557   6.110   4.133   2.804  0.4022 -0.0562  0.0997
16381TIP3    H170558   6.076   4.045   2.818 -1.0712  0.4318 -0.1953
16381TIP3    H270559   6.201   4.130   2.834  0.8520 -2.0678 -1.2936
16382TIP3   OH270560   4.239   1.942  16.077  0.6773  0.5676  0.1525
16382TIP3    H170561   4.174   1.876  16.103  1.1054 -0.3044 -0.8955
16382TIP3    H270562   4.323   1.899  16.095  1.0499  2.1511  2.7005
16383TIP3   OH270563   2.150   2.856  17.023 -0.0533  0.0068 -0.2848
16383TIP3    H170564   2.138   2.937  17.072  0.2866 -0.5655  0.7850
16383TIP3    H270565   2.147   2.787  17.090  0.0641 -0.8316 -1.1201
16384TIP3   OH270566   0.761   4.144  17.176  0.7402  0.2109  0.4117
16384TIP3    H170567   0.814   4.212  17.218  0.1744  0.5642  0.5727
16384TIP3    H270568   0.818   4.068  17.171  2.1487  1.3011 -1.6948
16385TIP3   OH270569   2.482   1.297   2.395 -0.5620 -0.1949 -0.2751
16385TIP3    H170570   2.435   1.264   2.471 -0.8656  0.7506 -0.0390
16385TIP3    H270571   2.569   1.320   2.429  0.4895 -2.8563 -0.9017
16386TIP3   OH270572   3.110   1.886   4.494  0.3441  0.4652 -0.0279
16386TIP3    H170573   3.033   1.943   4.490 -1.2981 -1.3797  2.1895
16386TIP3    H270574   3.179   1.941   4.530 -0.0076  2.0542 -1.6633
16387TIP3   OH270575   1.616   0.721  11.921 -0.8963  0.7765  0.2987
16387TIP3    H170576   1.551   0.655  11.946  1.5917 -2.4895 -1.1263
16387TIP3    H270577   1.656   0.686  11.841  3.2341  1.9923  1.5844
16388TIP3   OH270578   5.571   5.962  16.805 -0.7779 -0.0010  0.1792
16388TIP3    H170579   5.524   6.038  16.768 -1.3900 -0.7475 -0.6401
16388TIP3    H270580   5.652   5.957  16.754 -1.4174 -0.7595 -0.8161
16389TIP3   OH270581   0.683   5.446   2.892 -0.6452 -0.5063 -0.1456
16389TIP3    H170582   0.685   5.435   2.987 -0.4097  0.3463 -0.0393
16389TIP3    H270583   0.683   5.357   2.857  1.0715 -0.8472  0.6258
16390TIP3   OH270584   1.111   3.282   4.558  0.4623  0.2175  0.0152
16390TIP3    H170585   1.096   3.362   4.607 -1.9237 -0.0583 -0.1468
16390TIP3    H270586   1.126   3.311   4.468 -0.8248  0.5027 -0.1246
16391TIP3   OH270587   3.368   1.674  16.992  0.3472 -0.2995 -0.3043
16391TIP3    H170588   3.348   1.606  16.929  0.3498 -2.2530  1.6702
16391TIP3    H270589   3.463   1.680  16.993  0.3310  0.0799 -0.8098
16392TIP3   OH270590   4.379   0.285  13.078 -0.5605 -0.2754  0.1207
16392TIP3    H170591   4.369   0.220  13.148 -1.0209 -2.0248 -1.4894
16392TIP3    H270592   4.472   0.285  13.059 -0.6427 -0.9554 -0.3046
16393TIP3   OH270593   1.014   5.715  12.384 -0.0384 -0.5670  0.0029
16393TIP3    H170594   0.948   5.778  12.355  0.6923 -0.1797 -0.8506
16393TIP3    H270595   0.965   5.634  12.399 -1.1884  0.4037  2.1000
16394TIP3   OH270596   3.571   3.551  13.158  0.1224  0.0085  0.1608
16394TIP3    H170597   3.601   3.548  13.068  0.1829  1.7379  0.0956
16394TIP3    H270598   3.635   3.606  13.203  0.4804 -1.3887  1.4384
16395TIP3   OH270599   2.133   3.871   0.464 -0.2224  0.7169 -0.5638
16395TIP3    H170600   2.171   3.825   0.539  2.7270  1.9242 -1.1997
16395TIP3    H270601   2.147   3.812   0.390  0.7604  1.2979 -0.8552
16396TIP3   OH270602   4.649   1.970  13.895 -0.3613 -0.6446  0.5855
16396TIP3    H170603   4.602   1.922  13.826 -0.7567  0.5800 -0.0289
16396TIP3    H270604   4.727   2.003  13.852 -0.4288 -0.1754  0.8145
16397TIP3   OH270605   6.261   2.118  15.126 -0.6324 -0.3492  0.7190
16397TIP3    H170606   6.320   2.179  15.082  1.2174 -0.7749  2.4510
16397TIP3    H270607   6.243   2.050  15.061 -1.1566  1.0000 -0.5972
16398TIP3   OH270608   0.280   6.014   4.291  0.4692  0.7965  0.6090
16398TIP3    H170609   0.313   6.092   4.245 -0.6183  0.7279 -0.3566
16398TIP3    H270610   0.265   6.044   4.380  1.3115  1.3312  0.5843
16399TIP3   OH270611   3.757   6.180   3.994  0.2511  0.2163 -0.2997
16399TIP3    H170612   3.763   6.098   3.944 -0.3064 -0.1064  0.1385
16399TIP3    H270613   3.738   6.247   3.928  0.3974 -0.0595 -0.6261
16400TIP3   OH270614   6.112   5.269  16.363 -0.2407 -0.4202  0.1703
16400TIP3    H170615   6.144   5.331  16.298 -0.1410 -0.3228  0.3113
16400TIP3    H270616   6.192   5.230  16.400 -0.2431  0.6226  1.3103
16401TIP3   OH270617   1.353   2.907  11.655  0.0054 -0.3238  0.1387
16401TIP3    H170618   1.343   2.832  11.596  0.7273 -0.2032 -0.1400
16401TIP3    H270619   1.441   2.939  11.639 -0.6486  1.2469 -0.5042
16402TIP3   OH270620   1.572   0.510   1.918  0.7361 -0.2493  0.0451
16402TIP3    H170621   1.649   0.562   1.942 -0.2075  0.4975  1.6532
16402TIP3    H270622   1.499   0.554   1.962 -0.5021 -1.3612 -0.8323
16403TIP3   OH270623   4.464   4.785   5.203  0.8038  0.0323  0.1034
16403TIP3    H170624   4.472   4.694   5.173  0.3232 -0.5141  1.5659
16403TIP3    H270625   4.370   4.800   5.210  0.8886  0.1708  1.1849
16404TIP3   OH270626   3.795   3.085   2.959 -0.1557  0.6644  0.0344
16404TIP3    H170627   3.878   3.111   2.999  1.4988 -0.6263 -2.3054
16404TIP3    H270628   3.763   3.014   3.015  2.8692 -2.1593 -1.4698
16405TIP3   OH270629   4.585   0.218   2.656 -0.4422 -0.2472 -0.0102
16405TIP3    H170630   4.515   0.163   2.693 -1.2621  1.7725  1.6498
16405TIP3    H270631   4.659   0.206   2.716 -0.8106  0.8284  0.6879
16406TIP3   OH270632   0.601   3.266   1.006  0.5435 -0.0804  0.4872
16406TIP3    H170633   0.642   3.352   1.016  0.0286  0.2370 -0.0556
16406TIP3    H270634   0.674   3.204   1.010  1.0481  0.4553 -0.1677
16407TIP3   OH270635   4.162   0.244   1.473  0.3090  0.0419 -0.5026
16407TIP3    H170636   4.179   0.181   1.403  0.2181  0.2235 -0.6884
16407TIP3    H270637   4.189   0.198   1.553  1.1240  0.1084 -0.7256
16408TIP3   OH270638   1.406   2.538  14.676 -0.3442  0.3709  0.6954
16408TIP3    H170639   1.492   2.524  14.715 -0.2601  0.4114  0.5255
16408TIP3    H270640   1.424   2.574  14.589 -0.4699 -1.4051 -0.1164
16409TIP3   OH270641   4.962   2.964   3.151 -0.1263 -0.3156 -0.0784
16409TIP3    H170642   5.008   2.910   3.087 -2.8946 -1.9019 -0.9297
16409TIP3    H270643   5.029   3.020   3.189  2.6255 -3.0823 -0.4749
16410TIP3   OH270644   4.597   2.385   3.225  0.2727  0.2820  0.1004
16410TIP3    H170645   4.614   2.326   3.152  0.2904 -0.5548  0.7653
16410TIP3    H270646   4.583   2.470   3.184  1.4698  0.0719 -0.7905
16411TIP3   OH270647   6.001   6.171  12.900  0.1488 -0.8913  0.2667
16411TIP3    H170648   6.010   6.259  12.935  2.6922 -0.7296 -0.5585
16411TIP3    H270649   5.996   6.115  12.977  0.7727 -0.1785  0.8430
16412TIP3   OH270650   3.695   5.519  16.351 -0.4221 -0.0778  0.1907
16412TIP3    H170651   3.689   5.424  16.338 -1.0916 -0.1278  0.7847
16412TIP3    H270652   3.773   5.545  16.303  1.5786 -1.3904  2.5063
16413TIP3   OH270653   4.545   6.319   0.475  0.7855  0.2963  0.2892
16413TIP3    H170654   4.515   6.378   0.406  1.8638 -0.3944 -0.8170
16413TIP3    H270655   4.613   6.266   0.433  0.2447 -1.3555  1.3933
16414TIP3   OH270656   5.494   4.608   2.398 -0.3939  0.0244  0.0120
16414TIP3    H170657   5.532   4.530   2.438 -0.1096  0.5411  0.7608
16414TIP3    H270658   5.563   4.674   2.406 -1.2389  0.8177  0.8642
16415TIP3   OH270659   1.919   0.702   5.850 -0.5288  0.0915  0.4525
16415TIP3    H170660   1.908   0.660   5.936  1.6841 -0.4737  0.5412
16415TIP3    H270661   1.850   0.664   5.796  0.7564 -3.0746  0.8083
16416TIP3   OH270662   0.805   6.096   6.333 -0.1022 -0.5090 -0.5274
16416TIP3    H170663   0.864   6.025   6.357  0.2394 -0.2855 -0.6925
16416TIP3    H270664   0.782   6.078   6.241 -1.1097 -1.1587 -0.1645
16417TIP3   OH270665   2.496   3.542   2.028  0.2297  0.0187  0.4666
16417TIP3    H170666   2.421   3.492   1.996  0.2766  0.5949 -0.5967
16417TIP3    H270667   2.533   3.582   1.949  1.9816 -0.6911  0.8663
16418TIP3   OH270668   0.611   0.885   0.443 -0.7184  0.4276 -0.2060
16418TIP3    H170669   0.573   0.799   0.465 -0.8205  0.6125  0.3629
16418TIP3    H270670   0.542   0.948   0.464  0.0046  0.8014  1.2014
16419TIP3   OH270671   2.929   6.324   4.445  1.0248  0.1202 -0.4867
16419TIP3    H170672   2.899   6.326   4.354  0.2807  1.3772 -0.2379
16419TIP3    H270673   3.021   6.348   4.441  0.3948  2.7820 -0.7341
16420TIP3   OH270674   2.584   5.564   3.644 -0.0631 -0.8570 -0.3487
16420TIP3    H170675   2.489   5.572   3.635 -0.2647 -1.3159  1.1521
16420TIP3    H270676   2.597   5.503   3.716  1.3634 -0.1323  0.0550
16421TIP3   OH270677   1.624   5.146   3.177 -0.1611  0.0069  0.2002
16421TIP3    H170678   1.590   5.159   3.265 -0.5582 -0.7484  0.1709
16421TIP3    H270679   1.564   5.083   3.137  1.5519 -1.8056  0.3378
16422TIP3   OH270680   0.458   2.721  10.965  0.5092 -0.1469 -0.5456
16422TIP3    H170681   0.434   2.760  10.881  0.1465 -1.0850 -0.8924
16422TIP3    H270682   0.518   2.649  10.941  0.9727  0.0352  0.0557
16423TIP3   OH270683   3.827   5.929  13.679 -0.5794  0.2299  0.0343
16423TIP3    H170684   3.891   5.909  13.610 -1.0913  0.5376 -0.5377
16423TIP3    H270685   3.880   5.961  13.752 -0.0769  0.5105 -0.4413
16424TIP3   OH270686   4.604   3.597  15.442  0.5340  0.6323  0.5619
16424TIP3    H170687   4.553   3.653  15.383  0.3671 -0.1679 -0.0717
16424TIP3    H270688   4.691   3.636  15.444  0.2159  1.3416  0.7173
16425TIP3   OH270689   6.410   4.932   0.263 -0.3523 -0.4044 -0.3241
16425TIP3    H170690   6.441   5.014   0.302 -0.3323 -0.7386  0.3725
16425TIP3    H270691   6.465   4.919   0.186 -0.0897  0.0292 -0.2091
16426TIP3   OH270692   3.591   3.575  13.819  0.1341  0.1194 -0.0886
16426TIP3    H170693   3.619   3.494  13.775  0.6203  0.7424 -0.9436
16426TIP3    H270694   3.501   3.558  13.845 -0.3968 -0.0359 -1.9156
16427TIP3   OH270695   5.037   0.008   0.650 -0.2251 -0.0647  0.4468
16427TIP3    H170696   5.124  -0.002   0.612 -1.6237 -1.1133 -2.8988
16427TIP3    H270697   5.036  -0.049   0.726  2.2523  0.7456  1.1778
16428TIP3   OH270698   6.084   1.047  11.148 -0.2409 -0.2277  0.1245
16428TIP3    H170699   6.090   1.114  11.217 -0.6624  0.5064 -0.5407
16428TIP3    H270700   5.998   1.059  11.110 -0.2136 -0.9855 -0.1890
16429TIP3   OH270701   5.376   6.350   5.362  0.6784 -0.4808  0.1097
16429TIP3    H170702   5.421   6.431   5.386  1.7557 -0.4646 -1.8126
16429TIP3    H270703   5.419   6.321   5.282 -1.9100 -1.1484 -1.1593
16430TIP3   OH270704   0.721   2.084   4.023  0.6727  0.1801  0.2422
16430TIP3    H170705   0.798   2.060   3.972 -0.1105 -1.1596 -0.3725
16430TIP3    H270706   0.698   2.004   4.071 -0.1979  0.6155  0.5822
16431TIP3   OH270707   1.276   2.654   5.853  0.1350  0.2057  0.3016
16431TIP3    H170708   1.245   2.738   5.889  0.1088  0.8413 -1.1577
16431TIP3    H270709   1.368   2.670   5.831  0.1716 -0.2063  0.1489
16432TIP3   OH270710   3.857   0.395   2.138 -0.4484 -0.9993 -0.5648
16432TIP3    H170711   3.898   0.324   2.089 -2.0265 -2.0082 -0.4935
16432TIP3    H270712   3.891   0.386   2.228  0.5949 -0.6238 -0.9027
16433TIP3   OH270713   2.779   5.850  12.862  0.4833  0.0962  0.5215
16433TIP3    H170714   2.787   5.763  12.822  1.8844  0.2824  0.3522
16433TIP3    H270715   2.733   5.902  12.796 -0.1615 -0.4422  0.5275
16434TIP3   OH270716   6.567   1.109   3.931 -0.2832  0.2823 -0.2602
16434TIP3    H170717   6.508   1.141   3.863 -1.8210 -0.2547  0.7725
16434TIP3    H270718   6.512   1.101   4.009  1.9239  3.3180  1.8395
16435TIP3   OH270719   1.267   0.562   4.073  0.3077 -0.0592 -0.1776
16435TIP3    H170720   1.222   0.569   3.989  0.8360 -0.1498 -0.4694
16435TIP3    H270721   1.196   0.547   4.136  0.0075 -1.3922 -0.7779
16436TIP3   OH270722   2.017   3.257  14.009  0.0304 -0.4404 -0.7253
16436TIP3    H170723   2.089   3.258  13.946  0.6331 -1.5324 -0.0867
16436TIP3    H270724   1.995   3.349  14.021 -0.4397 -0.2295 -2.8895
16437TIP3   OH270725   2.755   2.761  11.980  0.2760  0.1906  1.0952
16437TIP3    H170726   2.689   2.830  11.990 -0.7707 -0.2978 -1.6034
16437TIP3    H270727   2.837   2.808  11.969 -0.2120  0.9592  0.6524
16438TIP3   OH270728   6.759   6.417  16.628 -0.2367  0.3641  0.3773
16438TIP3    H170729   6.788   6.449  16.714 -2.1960  1.1447  0.7917
16438TIP3    H270730   6.743   6.323  16.643 -1.3315  0.6418  1.1290
16439TIP3   OH270731   2.975   6.272  14.486 -0.2858  0.3110  0.2133
16439TIP3    H170732   2.930   6.356  14.499  0.2800  0.8393 -1.0111
16439TIP3    H270733   2.999   6.243  14.573 -1.4035  0.9108  0.7408
16440TIP3   OH270734   6.614   3.278  13.644  0.0883  0.9342 -0.3854
16440TIP3    H170735   6.523   3.252  13.658  0.3837  1.0695  2.2393
16440TIP3    H270736   6.631   3.345  13.710  2.5218 -0.2007  0.2701
16441TIP3   OH270737   0.340   4.358   3.798  0.5340  0.0283  0.3456
16441TIP3    H170738   0.373   4.366   3.887  1.7685  0.1828 -0.1044
16441TIP3    H270739   0.300   4.444   3.780  0.5272  0.0903  0.6504
16442TIP3   OH270740   0.945   2.701  13.763 -0.7096  0.2566 -0.1569
16442TIP3    H170741   1.035   2.732  13.765 -0.3902 -0.6000 -0.5606
16442TIP3    H270742   0.950   2.615  13.720 -2.0246  1.2710 -2.5719
16443TIP3   OH270743   0.399   6.754   5.090 -0.1574 -0.0289  0.7341
16443TIP3    H170744   0.347   6.706   5.154 -2.2781  2.0580  0.7385
16443TIP3    H270745   0.380   6.711   5.006  0.8618 -1.3782  1.1661
16444TIP3   OH270746   1.763   4.728   2.270  0.4237  0.0356 -0.4149
16444TIP3    H170747   1.696   4.687   2.216 -1.2507  2.2464 -0.2028
16444TIP3    H270748   1.730   4.718   2.360  2.6090 -2.6016  0.2227
16445TIP3   OH270749   5.763   1.752   2.026 -0.0491 -0.3657 -0.0315
16445TIP3    H170750   5.698   1.715   1.967  0.9912 -1.6978 -0.3982
16445TIP3    H270751   5.828   1.682   2.036  1.9787  1.3233 -0.7002
16446TIP3   OH270752   6.261   1.511   6.000 -0.6669  0.5526  0.1329
16446TIP3    H170753   6.326   1.581   5.996  1.0865 -1.0480 -1.8975
16446TIP3    H270754   6.296   1.449   6.063  0.2235 -0.6443 -1.4690
16447TIP3   OH270755   6.426   4.070   1.950 -0.2350 -0.3924 -0.8932
16447TIP3    H170756   6.492   4.132   1.920 -0.3313 -0.3869 -1.1003
16447TIP3    H270757   6.427   4.000   1.884 -1.1209  0.0855 -1.4409
16448TIP3   OH270758   1.124   0.326  15.732  0.6808  0.1450 -0.2813
16448TIP3    H170759   1.188   0.307  15.662  1.0538  1.9327 -0.4742
16448TIP3    H270760   1.039   0.306  15.693  0.9225  0.6880 -1.1184
16449TIP3   OH270761   3.128   6.616   3.260 -0.3777 -0.2358  0.0902
16449TIP3    H170762   3.206   6.627   3.206 -1.5406 -0.9162 -1.8353
16449TIP3    H270763   3.152   6.549   3.324  1.1419  0.8369  0.6907
16450TIP3   OH270764   0.938   2.611   4.896 -0.3083 -0.7857 -1.0461
16450TIP3    H170765   1.013   2.556   4.921 -0.1630 -0.3922 -0.6038
16450TIP3    H270766   0.966   2.653   4.815  0.3183  0.0535 -0.4133
16451TIP3   OH270767   0.421   4.794  16.713  0.2323 -0.4161 -0.0150
16451TIP3    H170768   0.469   4.807  16.632 -0.7552  3.1113 -0.1630
16451TIP3    H270769   0.468   4.846  16.778  0.8387 -2.9328  1.7545
16452TIP3   OH270770   0.221   5.876  12.754  0.0413 -0.2647  0.3884
16452TIP3    H170771   0.277   5.862  12.830 -1.4563 -0.2923  1.5338
16452TIP3    H270772   0.136   5.841  12.780 -0.5535 -0.1293 -1.2537
16453TIP3   OH270773   0.148   1.747  14.690 -0.4376  0.1539 -0.3635
16453TIP3    H170774   0.186   1.797  14.762 -1.6510  1.1019 -0.3411
16453TIP3    H270775   0.209   1.760  14.617  1.0851 -1.2561  0.5927
16454TIP3   OH270776   4.824   2.999  13.845 -0.5545 -0.4202  0.1839
16454TIP3    H170777   4.805   2.939  13.917 -1.0955 -1.8785 -1.1372
16454TIP3    H270778   4.920   3.001  13.840 -0.5307 -1.2848  0.1628
16455TIP3   OH270779   5.742   1.188  14.416  0.1581 -0.4016 -0.5305
16455TIP3    H170780   5.767   1.128  14.486  0.9847  1.4156  0.8188
16455TIP3    H270781   5.782   1.150  14.337  1.0531 -1.3656  0.3515
16456TIP3   OH270782   1.512   1.829  17.214 -0.1464  0.0956  0.3931
16456TIP3    H170783   1.426   1.869  17.199 -0.7646 -0.6328  1.8027
16456TIP3    H270784   1.509   1.747  17.166  0.7061  1.1390 -1.5641
16457TIP3   OH270785   4.661   4.980   2.607 -0.2025  0.2199 -0.1181
16457TIP3    H170786   4.628   5.066   2.631 -0.3903  0.2202 -0.3765
16457TIP3    H270787   4.585   4.934   2.571 -0.4543 -0.5637  1.3566
16458TIP3   OH270788   1.524   0.880  13.257 -0.3175  0.5149 -0.1205
16458TIP3    H170789   1.590   0.929  13.305  1.7077  0.2146 -2.3802
16458TIP3    H270790   1.471   0.946  13.213 -0.0420  0.7380 -0.1169
16459TIP3   OH270791   1.514   0.480  16.072  0.0670 -0.5312  0.0559
16459TIP3    H170792   1.464   0.447  15.997  0.3809 -0.3278 -0.2456
16459TIP3    H270793   1.586   0.419  16.082  0.0125 -0.5711  0.2094
16460TIP3   OH270794   5.013   1.495  16.780  0.3806 -0.2142  0.1169
16460TIP3    H170795   4.922   1.497  16.750  0.6242  0.7245 -0.6139
16460TIP3    H270796   5.006   1.490  16.875 -0.4752  1.1938  0.1710
16461TIP3   OH270797   6.763   6.100  12.484 -0.0134  0.5137 -0.6513
16461TIP3    H170798   6.706   6.042  12.534 -1.0510 -1.0563 -3.4767
16461TIP3    H270799   6.850   6.085  12.520 -0.8794  0.7157  1.7257
16462TIP3   OH270800   5.820   3.928  12.596 -0.0953 -0.3758 -0.3178
16462TIP3    H170801   5.900   3.928  12.544 -0.5541 -1.5926 -1.0785
16462TIP3    H270802   5.753   3.965  12.538 -0.6201 -1.7831 -0.6711
16463TIP3   OH270803   3.166   3.418   1.887 -0.4981  0.3248  0.4495
16463TIP3    H170804   3.178   3.410   1.982  0.9702 -0.0746  0.2652
16463TIP3    H270805   3.143   3.330   1.859 -3.0175  0.8595  0.6514
16464TIP3   OH270806   1.446   1.223  15.754  0.5325  0.9184 -0.1807
16464TIP3    H170807   1.370   1.273  15.784 -0.8862 -0.3999 -1.3930
16464TIP3    H270808   1.439   1.139  15.799  0.8670  0.5482 -0.8007
16465TIP3   OH270809   4.001   0.412   1.283  0.3886  0.2485 -0.6576
16465TIP3    H170810   4.073   0.377   1.230 -0.2098 -0.8704 -0.7530
16465TIP3    H270811   4.045   0.453   1.358  1.1098 -2.0183  0.2564
16466TIP3   OH270812   2.889   4.565   0.328  0.3960 -0.4840  0.2375
16466TIP3    H170813   2.871   4.571   0.421 -0.0798 -0.1369  0.1222
16466TIP3    H270814   2.888   4.471   0.310 -0.2679 -0.5182  0.4345
16467TIP3   OH270815   3.541   6.336  10.124 -0.5912 -0.0125 -0.5545
16467TIP3    H170816   3.608   6.394  10.160 -1.5227  0.5233  0.3704
16467TIP3    H270817   3.472   6.335  10.190 -1.5745 -0.4217 -1.5501
16468TIP3   OH270818   2.650   4.566   3.722 -0.2216 -0.2081  0.0761
16468TIP3    H170819   2.631   4.506   3.650 -1.4783  0.5450 -0.2433
16468TIP3    H270820   2.593   4.537   3.793 -0.2863  0.1554  0.1741
16469TIP3   OH270821   2.727   4.523   0.537 -0.1748  0.1345  0.3583
16469TIP3    H170822   2.764   4.436   0.550  0.4997  0.0431 -1.7152
16469TIP3    H270823   2.670   4.537   0.613 -0.2561 -2.0780  0.7803
16470TIP3   OH270824   6.714   3.363   5.021 -0.4048 -0.0054 -0.2829
16470TIP3    H170825   6.763   3.396   4.945 -0.9974  0.6645 -0.3813
16470TIP3    H270826   6.695   3.272   4.999  0.5031 -0.1851 -0.3874
16471TIP3   OH270827   4.081   2.653   0.844  0.8790 -0.2090 -1.2164
16471TIP3    H170828   4.101   2.732   0.894 -1.5005  0.9738 -2.0151
16471TIP3    H270829   4.056   2.589   0.911 -0.8243  0.9006 -0.7520
16472TIP3   OH270830   3.221   5.358   3.983  0.5240 -0.7196 -0.3543
16472TIP3    H170831   3.205   5.418   3.910  2.1371 -0.0919 -0.2295
16472TIP3    H270832   3.258   5.413   4.051  1.1508 -1.7006  0.1166
16473TIP3   OH270833   0.421   4.525   0.183 -0.6836 -0.0658  0.9923
16473TIP3    H170834   0.436   4.510   0.090 -0.5942 -1.6789  1.2358
16473TIP3    H270835   0.326   4.533   0.192 -0.6301  1.1904  0.6417
16474TIP3   OH270836   6.447   1.971  12.505  0.2882 -0.2749 -0.0075
16474TIP3    H170837   6.357   2.003  12.504 -0.2216 -1.6796 -0.8165
16474TIP3    H270838   6.450   1.903  12.438  1.8296 -0.5840  0.3325
16475TIP3   OH270839   5.242   4.030  12.673 -0.0670 -0.0428 -0.0042
16475TIP3    H170840   5.295   4.082  12.733 -1.2300  0.3629  0.6966
16475TIP3    H270841   5.248   4.076  12.589 -0.0595  0.5204  0.3031
16476TIP3   OH270842   5.705   3.528   5.992  0.4946  0.1204  0.2049
16476TIP3    H170843   5.738   3.441   6.016 -0.6154 -0.3696  0.0254
16476TIP3    H270844   5.711   3.579   6.073 -1.3431 -0.9274  1.0751
16477TIP3   OH270845   4.775   2.829  17.188 -0.1258  0.1834  0.0080
16477TIP3    H170846   4.756   2.923  17.192 -1.0117  0.0832 -1.3131
16477TIP3    H270847   4.691   2.788  17.168 -0.2687 -1.1672  2.8770
16478TIP3   OH270848   5.340   3.445   3.840  0.1911 -0.8031 -0.4150
16478TIP3    H170849   5.260   3.490   3.813  1.2734  2.3213  1.1063
16478TIP3    H270850   5.316   3.399   3.920 -0.5162 -1.5381 -1.0318
16479TIP3   OH270851   6.509   1.154  15.141  0.5544  0.1059  0.3304
16479TIP3    H170852   6.514   1.064  15.175 -0.0909  0.5754  1.7266
16479TIP3    H270853   6.572   1.203  15.193  2.2088  0.1709 -1.5874
16480TIP3   OH270854   6.226   3.125   5.700 -0.2567  0.3697 -0.1822
16480TIP3    H170855   6.238   3.218   5.717 -0.2832  0.5561 -1.1360
16480TIP3    H270856   6.136   3.118   5.667 -1.1110 -0.3246  2.0873
16481TIP3   OH270857   0.304   0.688  11.155 -0.0656  0.1067 -0.1894
16481TIP3    H170858   0.307   0.779  11.125 -0.7572  0.4916  0.8499
16481TIP3    H270859   0.366   0.642  11.098  0.8991  1.3784 -0.2208
16482TIP3   OH270860   5.239   1.037   0.521  0.2563  0.2324 -0.0216
16482TIP3    H170861   5.198   0.953   0.540  0.6919  0.1844  0.7434
16482TIP3    H270862   5.295   1.055   0.597  1.4374  0.4278 -0.9011
16483TIP3   OH270863   5.548   2.556  15.988 -0.5268  0.8873 -0.4689
16483TIP3    H170864   5.474   2.535  15.930  0.2807  0.2358 -1.2921
16483TIP3    H270865   5.590   2.631  15.946 -1.3376  1.9680  0.5873
16484TIP3   OH270866   0.898   1.433  13.005  0.7119 -0.8303  0.1813
16484TIP3    H170867   0.983   1.478  13.001  0.6744 -0.8548 -1.5443
16484TIP3    H270868   0.834   1.503  13.015  0.7697 -0.5904 -0.9799
16485TIP3   OH270869   1.535   2.167   0.408  0.7994 -0.7967  0.4675
16485TIP3    H170870   1.604   2.104   0.426  1.2230 -0.2244  0.9143
16485TIP3    H270871   1.565   2.248   0.450 -0.4960 -0.7416  1.3362
16486TIP3   OH270872   6.456   1.195   2.511  0.6971  0.2118  0.7273
16486TIP3    H170873   6.522   1.262   2.523 -0.0734  0.6816  2.7173
16486TIP3    H270874   6.414   1.217   2.428  1.4509  1.3073  0.6211
16487TIP3   OH270875   5.612   3.719  11.715  0.3663  0.8829 -0.0858
16487TIP3    H170876   5.650   3.689  11.633  1.2145 -0.9484  0.9147
16487TIP3    H270877   5.548   3.652  11.738 -0.2336  1.6425  0.4959
16488TIP3   OH270878   1.663   1.886  16.334 -0.6904 -0.2611 -0.1561
16488TIP3    H170879   1.568   1.872  16.332 -0.7845  0.2836  0.4345
16488TIP3    H270880   1.699   1.807  16.293 -1.2474 -2.0576  2.5412
16489TIP3   OH270881   0.878   0.524   4.737 -0.0838  0.0245  0.1703
16489TIP3    H170882   0.972   0.528   4.753  0.2666 -2.6028 -0.7288
16489TIP3    H270883   0.838   0.541   4.823  1.2685 -0.5097  0.9355
16490TIP3   OH270884   4.130   1.408  15.154 -0.5964  0.3628 -0.4333
16490TIP3    H170885   4.207   1.437  15.106 -0.6914  0.2135 -0.6811
16490TIP3    H270886   4.090   1.343  15.096 -0.5285 -0.0639  0.0018
16491TIP3   OH270887   2.472   6.125  14.555 -0.4414  0.6397  0.5721
16491TIP3    H170888   2.379   6.117  14.533 -0.2169  0.2039 -0.2733
16491TIP3    H270889   2.474   6.132  14.650 -1.1784 -2.6213  0.9533
16492TIP3   OH270890   4.387   4.078   0.276  0.0505 -0.2544 -0.1863
16492TIP3    H170891   4.397   3.984   0.288  1.7211 -0.1625 -0.5522
16492TIP3    H270892   4.385   4.090   0.181 -0.7825  0.0404 -0.1404
16493TIP3   OH270893   1.228   5.144  14.008  0.4378 -0.0246 -0.5600
16493TIP3    H170894   1.137   5.144  14.037  0.5136  1.3244 -0.2398
16493TIP3    H270895   1.279   5.142  14.088  0.6759 -0.0779 -0.7118
16494TIP3   OH270896   5.241   3.308   1.863  0.1275  0.1933  0.0278
16494TIP3    H170897   5.253   3.314   1.768  0.4672 -0.1381  0.0456
16494TIP3    H270898   5.277   3.222   1.887  2.6247  1.3483  0.8167
16495TIP3   OH270899   2.802   1.225  11.031 -0.5060  0.3121  0.2526
16495TIP3    H170900   2.719   1.180  11.048  0.7262 -1.4730  1.9926
16495TIP3    H270901   2.855   1.162  10.983 -0.3170  1.6763 -1.4241
16496TIP3   OH270902   0.477   5.876   3.734 -0.1532 -0.1346  0.3355
16496TIP3    H170903   0.453   5.840   3.649  0.1499  2.8849 -1.1316
16496TIP3    H270904   0.394   5.901   3.774 -0.1972 -0.1835  0.2752
16497TIP3   OH270905   4.468   3.368   2.999  0.2292 -0.3687 -0.2027
16497TIP3    H170906   4.561   3.353   2.981  0.3955  0.6668 -0.2974
16497TIP3    H270907   4.466   3.389   3.093  0.4979  2.2432 -0.6951
16498TIP3   OH270908   3.319   1.701   0.414 -0.2354 -0.3174 -0.8366
16498TIP3    H170909   3.253   1.653   0.364 -1.1600 -1.1208  1.0317
16498TIP3    H270910   3.272   1.732   0.491  1.0711  1.0468 -0.5437
16499TIP3   OH270911   2.595   3.846   3.476  0.1763  0.0273 -0.2383
16499TIP3    H170912   2.566   3.796   3.553  0.2330 -0.0989 -0.2989
16499TIP3    H270913   2.521   3.904   3.457  0.6278  0.8977  0.6214
16500TIP3   OH270914   2.104   0.102  17.101  0.1151  0.5423 -0.5727
16500TIP3    H170915   2.074   0.093  17.011 -0.5075 -1.1960 -0.2269
16500TIP3    H270916   2.200   0.107  17.094  0.0112  1.8451 -1.3901
16501TIP3   OH270917   1.212   3.310  14.457 -0.3526  0.3541  0.2803
16501TIP3    H170918   1.245   3.277  14.373  2.0003 -0.1962  1.3338
16501TIP3    H270919   1.159   3.239  14.492  0.6310 -0.4013  0.2983
16502TIP3   OH270920   6.710   2.791  16.163 -0.2049  0.2017  0.1201
16502TIP3    H170921   6.803   2.779  16.146 -0.4565 -3.0296  0.3943
16502TIP3    H270922   6.670   2.791  16.075 -0.1033 -0.5751  0.0643
16503TIP3   OH270923   4.098   3.320   1.883 -0.4473  0.1726  0.5977
16503TIP3    H170924   4.037   3.264   1.931 -0.5448  1.1929  1.7298
16503TIP3    H270925   4.042   3.387   1.843 -0.2178  0.2413  0.3944
16504TIP3   OH270926   0.499   4.474  17.041 -0.0523  0.1227 -0.2673
16504TIP3    H170927   0.463   4.496  16.955  0.6827 -1.0691 -0.9026
16504TIP3    H270928   0.435   4.414  17.078  1.0646 -1.7646 -1.2754
16505TIP3   OH270929   2.997   6.112  14.015 -0.4326  0.3665  0.5890
16505TIP3    H170930   3.002   6.046  14.084 -1.3950 -2.0683 -1.5014
16505TIP3    H270931   2.905   6.112  13.988 -0.1655  1.5678 -0.3957
16506TIP3   OH270932   6.735   4.711  16.453 -0.4522  0.5218 -0.7066
16506TIP3    H170933   6.788   4.676  16.525 -0.2500 -0.2897 -1.2348
16506TIP3    H270934   6.797   4.758  16.397 -0.0545 -1.3242 -1.8908
16507TIP3   OH270935   4.080   1.771   1.398  0.4055  0.3974  0.0930
16507TIP3    H170936   3.984   1.774   1.392  0.2493 -0.2606  1.8614
16507TIP3    H270937   4.102   1.678   1.395  0.8723  0.4656  1.0697
16508TIP3   OH270938   4.106   0.021   4.463  0.1699  0.2185 -0.8342
16508TIP3    H170939   4.049  -0.051   4.436 -1.6305  0.8715  0.9428
16508TIP3    H270940   4.125   0.004   4.555  2.4788  0.3249 -1.2408
16509TIP3   OH270941   6.444   3.839  12.662 -1.0597  0.1155  0.3479
16509TIP3    H170942   6.418   3.796  12.744 -0.8716 -0.5302  0.0755
16509TIP3    H270943   6.503   3.909  12.690  0.0818 -0.9441  0.6953
16510TIP3   OH270944   0.404   0.788   0.690  0.9054 -0.3508  0.8245
16510TIP3    H170945   0.478   0.753   0.740  0.2827 -0.8752  1.3928
16510TIP3    H270946   0.415   0.751   0.602 -0.2512 -2.8493  1.6317
16511TIP3   OH270947   2.067   0.212  14.634 -0.7908 -0.0714  0.2643
16511TIP3    H170948   2.106   0.126  14.619 -0.9490  0.0663 -1.1206
16511TIP3    H270949   2.138   0.274  14.616 -1.2227  0.1309 -0.8818
16512TIP3   OH270950   6.547   2.401  11.017  0.1905  0.4443 -0.2573
16512TIP3    H170951   6.518   2.325  10.967 -0.3029  0.7981 -0.5210
16512TIP3    H270952   6.593   2.364  11.092 -2.4691 -0.2484  1.1892
16513TIP3   OH270953   4.612   3.133  13.691  0.6195 -0.1750 -0.6392
16513TIP3    H170954   4.557   3.186  13.749  0.0452 -1.2914 -0.1259
16513TIP3    H270955   4.691   3.115  13.742  0.0015 -1.3793 -0.0725
16514TIP3   OH270956   2.520   5.393   4.134  0.3112  0.5012 -0.0564
16514TIP3    H170957   2.440   5.445   4.136 -0.0131  0.0511 -0.7132
16514TIP3    H270958   2.586   5.448   4.176 -0.4154  0.7381  0.8034
16515TIP3   OH270959   3.807   0.715  10.617  0.4800  0.4847 -0.1818
16515TIP3    H170960   3.858   0.745  10.542  0.3188 -0.7837 -0.8183
16515TIP3    H270961   3.720   0.754  10.604  0.6763  0.9135 -0.2233
16516TIP3   OH270962   2.078   5.515  13.507 -0.8667 -0.2175 -0.4206
16516TIP3    H170963   2.051   5.423  13.509  2.4252 -1.3593 -1.1378
16516TIP3    H270964   2.146   5.521  13.574 -1.5559  1.9574  0.1667
16517TIP3   OH270965   0.805   1.979  17.383 -0.3576  0.3935 -0.3203
16517TIP3    H170966   0.743   2.041  17.420 -0.1300  0.5872 -0.2629
16517TIP3    H270967   0.862   1.955  17.456 -2.9348 -3.0880  0.8317
16518TIP3   OH270968   2.977   1.785  15.207 -0.0531  0.2426  0.0591
16518TIP3    H170969   3.023   1.704  15.226  1.7443  1.0329 -0.6819
16518TIP3    H270970   2.931   1.768  15.125 -0.9272 -0.4716  0.6742
16519TIP3   OH270971   4.239   1.367   2.343  0.0956  0.5790 -0.3663
16519TIP3    H170972   4.210   1.296   2.286 -0.9852  0.7259 -0.0213
16519TIP3    H270973   4.213   1.447   2.297 -0.8124  0.6991  0.3193
16520TIP3   OH270974   0.040   3.452  13.500  0.7945  0.8589  0.6510
16520TIP3    H170975   0.001   3.418  13.580 -2.6401  0.2127 -1.0682
16520TIP3    H270976   0.010   3.543  13.495 -2.1549 -0.0454 -1.4002
16521TIP3   OH270977   1.968   0.001  15.545 -0.1082 -0.3876 -0.3276
16521TIP3    H170978   1.902  -0.068  15.551  1.5656 -2.1252 -0.5691
16521TIP3    H270979   1.921   0.078  15.513 -1.7748 -1.8967 -1.6950
16522TIP3   OH270980   5.995   3.959  11.760 -0.2275 -0.4373 -0.0305
16522TIP3    H170981   6.033   3.944  11.673  0.0411  1.0068 -0.1935
16522TIP3    H270982   5.911   4.001  11.743 -0.0536  0.1016  0.4049
16523TIP3   OH270983   4.744   3.786   1.487 -0.2408 -0.1792 -0.6429
16523TIP3    H170984   4.689   3.832   1.423 -0.7350 -1.3081 -1.0624
16523TIP3    H270985   4.739   3.694   1.460  3.0813 -0.1853 -1.6243
16524TIP3   OH270986   0.800   4.298   1.730 -0.5218  0.1143  0.2473
16524TIP3    H170987   0.751   4.267   1.806 -1.0786  0.8003  0.1841
16524TIP3    H270988   0.858   4.366   1.764  1.8907 -2.0365  0.6749
16525TIP3   OH270989   1.002   3.936  13.937 -0.3935  0.0722  0.2484
16525TIP3    H170990   1.042   3.981  14.011  0.3706  2.6095 -1.5288
16525TIP3    H270991   0.917   3.979  13.926  0.7199  1.9936 -2.0351
16526TIP3   OH270992   6.591   6.584  14.049 -0.5930  0.5853  0.0643
16526TIP3    H170993   6.614   6.665  14.094  1.6543  0.6602 -1.0765
16526TIP3    H270994   6.597   6.517  14.117 -1.9833  1.2743  0.9053
16527TIP3   OH270995   1.552   6.741  15.787 -0.0209  0.4328 -0.0781
16527TIP3    H170996   1.633   6.771  15.745  0.3313 -1.1061 -0.5611
16527TIP3    H270997   1.574   6.737  15.880  0.1444  0.9307 -0.0898
16528TIP3   OH270998   0.278   0.571  13.240  0.0854  0.2433  0.1691
16528TIP3    H170999   0.342   0.546  13.307  3.6878  1.0495 -2.7016
16528TIP3    H271000   0.298   0.517  13.165 -1.5667  1.6894 -1.4244
16529TIP3   OH271001   6.666   3.954  10.402  0.2715 -1.2583  0.5556
16529TIP3    H171002   6.574   3.951  10.376  0.7719 -1.6198 -1.3081
16529TIP3    H271003   6.676   3.881  10.463 -0.6727 -1.1935  0.8031
16530TIP3   OH271004   6.660   1.942   4.811 -0.6843  0.8659  0.4339
16530TIP3    H171005   6.754   1.925   4.808 -0.9079 -0.5371  0.7161
16530TIP3    H271006   6.631   1.930   4.721 -0.7444  0.2259  0.5284
16531TIP3   OH271007   6.510   4.027  14.584  0.3139 -0.4351 -0.6792
16531TIP3    H171008   6.435   3.975  14.614 -0.2072  1.1601  0.9487
16531TIP3    H271009   6.567   4.034  14.660  0.3309  1.4034 -0.8242
16532TIP3   OH271010   1.019   1.979   4.819  0.2453  0.2352  0.3925
16532TIP3    H171011   1.081   1.996   4.748 -0.5289 -1.6214 -0.7985
16532TIP3    H271012   1.072   1.948   4.892  0.8168 -0.4980 -0.3226
16533TIP3   OH271013   0.716   4.115   1.512  0.2505 -0.0474 -0.5140
16533TIP3    H171014   0.717   4.183   1.579 -1.5241  0.4028 -0.8865
16533TIP3    H271015   0.797   4.066   1.526  3.0163  3.6185 -1.7956
16534TIP3   OH271016   2.930   0.322  16.711 -0.5716 -0.0412  0.0823
16534TIP3    H171017   2.880   0.382  16.654  2.9075  0.5839 -2.7062
16534TIP3    H271018   2.925   0.238  16.667  1.1399  0.1615 -0.5862
16535TIP3   OH271019   2.297   1.120   5.740 -0.4520 -0.6416 -0.0467
16535TIP3    H171020   2.228   1.116   5.807  0.8108  1.9765  1.5797
16535TIP3    H271021   2.370   1.072   5.778 -0.1156 -0.1359 -0.0533
16536TIP3   OH271022   5.692   5.379  11.280 -0.1837  0.3290  0.3104
16536TIP3    H171023   5.769   5.400  11.228 -0.7676  1.2944 -0.2022
16536TIP3    H271024   5.705   5.426  11.363 -0.9921  1.9786 -0.4350
16537TIP3   OH271025   1.910   0.305   2.203 -0.0877 -0.2992  0.1269
16537TIP3    H171026   1.831   0.297   2.150  1.0063  2.8172 -2.2949
16537TIP3    H271027   1.972   0.245   2.161 -0.0715  0.0772 -0.4039
16538TIP3   OH271028   3.336   5.380  14.216  0.6074  0.0546 -0.9487
16538TIP3    H171029   3.266   5.369  14.152 -1.2284  2.5746  0.4597
16538TIP3    H271030   3.319   5.314  14.283 -0.2177  0.3846 -0.8237
16539TIP3   OH271031   3.663   0.783  11.145  0.4238 -0.5859  0.0774
16539TIP3    H171032   3.636   0.838  11.218 -1.4922 -1.0320 -0.2554
16539TIP3    H271033   3.749   0.750  11.171 -0.1318 -0.6181  2.0820
16540TIP3   OH271034   6.111   0.170  11.734  0.1507 -0.4450  0.1946
16540TIP3    H171035   6.185   0.131  11.687 -0.0732 -1.6246  0.7963
16540TIP3    H271036   6.035   0.121  11.705 -0.2417  0.0048  0.4493
16541TIP3   OH271037   2.431   5.871   4.911  0.2414 -0.5551 -0.6570
16541TIP3    H171038   2.457   5.786   4.875  0.7651 -0.3658 -0.7285
16541TIP3    H271039   2.339   5.859   4.935  0.7672 -1.7091  0.9909
16542TIP3   OH271040   5.017   3.031  10.704  0.0254 -0.1284  0.3183
16542TIP3    H171041   4.956   3.027  10.777 -0.8305  1.1336 -0.2771
16542TIP3    H271042   4.962   3.015  10.626  0.1787  2.0288 -0.3146
16543TIP3   OH271043   2.907   3.120   0.454  0.0445  0.1182  0.0668
16543TIP3    H171044   2.918   3.188   0.388 -2.0344  1.3996  0.9346
16543TIP3    H271045   2.963   3.147   0.526  1.7148 -0.8769 -0.7782
16544TIP3   OH271046   1.652   5.627  11.317  0.2770  0.2269  0.3449
16544TIP3    H171047   1.724   5.633  11.379  1.5866  3.8224 -1.2907
16544TIP3    H271048   1.596   5.702  11.337 -1.0959 -0.4642 -0.7107
16545TIP3   OH271049   5.830   0.060   0.156  0.2772  0.4798  0.1003
16545TIP3    H171050   5.790   0.102   0.232 -2.1881 -0.4474 -0.5964
16545TIP3    H271051   5.851   0.132   0.096  2.3294  1.2250  1.6080
16546TIP3   OH271052   4.184   5.193  10.277 -0.8034 -0.2278 -0.5872
16546TIP3    H171053   4.166   5.286  10.291 -1.2289 -0.0200 -2.3094
16546TIP3    H271054   4.277   5.190  10.256 -0.2711 -0.4897  1.5192
16547TIP3   OH271055   1.487   2.795   3.938 -0.1703  0.1082  0.0057
16547TIP3    H171056   1.452   2.721   3.888  1.1301  0.0070 -0.8110
16547TIP3    H271057   1.546   2.754   4.001  1.9420  0.4837 -1.6143
16548TIP3   OH271058   1.401   1.336  14.516 -0.1386 -0.0835  0.2310
16548TIP3    H171059   1.496   1.332  14.517 -0.0870  0.9853 -0.0012
16548TIP3    H271060   1.379   1.415  14.564 -0.9818 -1.1816  1.7308
16549TIP3   OH271061   2.955   6.724  11.705  0.1397  0.1020  0.4599
16549TIP3    H171062   3.011   6.731  11.628  0.0279  0.8034  0.4433
16549TIP3    H271063   2.919   6.635  11.701  0.3176  0.0600 -0.1663
16550TIP3   OH271064   2.935   1.130  16.897  0.5585 -0.2587 -0.2746
16550TIP3    H171065   2.940   1.218  16.935 -0.5708 -0.2672 -0.0908
16550TIP3    H271066   2.953   1.072  16.971 -0.1304 -0.2214 -0.0693
16551TIP3   OH271067   0.123   1.006   0.178 -0.5655  0.1427 -0.8312
16551TIP3    H171068   0.139   1.069   0.107  0.3359  1.0169  0.1147
16551TIP3    H271069   0.107   0.923   0.133 -0.4420  0.7654 -2.0689
16552TIP3   OH271070   5.590   6.633  12.140 -0.4501  0.7354  0.1792
16552TIP3    H171071   5.664   6.672  12.094 -0.1677  1.5313  1.2509
16552TIP3    H271072   5.517   6.694  12.125 -0.4316  0.8471  0.5197
16553TIP3   OH271073   0.563   0.315  11.992  0.4379  0.0711  0.2029
16553TIP3    H171074   0.474   0.286  12.014 -0.1608  1.3876 -0.3179
16553TIP3    H271075   0.586   0.376  12.062  0.0742  1.3002 -0.6934
16554TIP3   OH271076   5.693   4.142   1.758  0.2702  0.3711 -0.1356
16554TIP3    H171077   5.634   4.093   1.816  0.3742  0.2115 -0.1651
16554TIP3    H271078   5.723   4.215   1.812  0.2002  0.3413 -0.0557
16555TIP3   OH271079   5.017   3.810  11.975  0.1879  0.3254 -0.2333
16555TIP3    H171080   5.107   3.782  11.960  0.1219 -0.2173  0.3659
16555TIP3    H271081   4.966   3.729  11.977 -0.1397  0.5387  0.5889
16556TIP3   OH271082   4.602   0.644   2.230 -0.6234 -0.5137 -0.2632
16556TIP3    H171083   4.520   0.653   2.280  0.4539 -2.2673  1.9981
16556TIP3    H271084   4.604   0.721   2.173 -3.3723  0.0727  0.2877
16557TIP3   OH271085   4.608   1.316   1.539 -0.2358  0.1538 -0.1076
16557TIP3    H171086   4.625   1.339   1.448 -0.5938 -1.1139 -0.5043
16557TIP3    H271087   4.527   1.362   1.562 -0.0214  0.6557 -0.3440
16558TIP3   OH271088   1.139   4.738  13.085  0.6465 -0.2743 -0.4403
16558TIP3    H171089   1.220   4.714  13.130  1.1339 -0.3726 -1.3365
16558TIP3    H271090   1.148   4.832  13.069  0.6654 -0.3179 -0.6911
16559TIP3   OH271091   1.522   4.934   5.916  0.0077 -1.1621  0.2015
16559TIP3    H171092   1.606   4.890   5.930  0.1918 -0.4824  1.3414
16559TIP3    H271093   1.486   4.947   6.004 -0.4898  0.0945 -0.1584
16560TIP3   OH271094   3.680   0.256  11.656 -0.4126 -0.4539  0.0992
16560TIP3    H171095   3.719   0.273  11.742  0.5999 -0.4113 -0.3563
16560TIP3    H271096   3.690   0.162  11.643 -1.2230 -0.5841  0.3248
16561TIP3   OH271097   6.744   6.223   6.371 -0.6071 -0.1219  0.1191
16561TIP3    H171098   6.736   6.136   6.332 -2.5220  0.2162 -0.3576
16561TIP3    H271099   6.677   6.275   6.327 -0.4931  1.2055  1.4387
16562TIP3   OH271100   1.419   6.725   0.275  0.5228  0.6536  0.5066
16562TIP3    H171101   1.491   6.752   0.332 -0.0313  1.2165  0.9544
16562TIP3    H271102   1.405   6.800   0.217 -0.3006  0.9052  1.0237
16563TIP3   OH271103   1.463   0.356  15.215 -0.7944 -0.2841 -0.3168
16563TIP3    H171104   1.483   0.449  15.220 -0.6651 -0.3705  1.4954
16563TIP3    H271105   1.373   0.352  15.185 -0.1869  0.3186 -2.4224
16564TIP3   OH271106   6.438   4.689   5.823 -0.0948 -0.0507  0.2721
16564TIP3    H171107   6.507   4.743   5.862 -0.4726  0.6203  0.0280
16564TIP3    H271108   6.445   4.605   5.868  0.6726  0.1157  0.4750
16565TIP3   OH271109   3.511   0.771   5.574  0.3684  1.1915  0.3161
16565TIP3    H171110   3.497   0.857   5.614  0.4516  1.0958  0.5542
16565TIP3    H271111   3.593   0.781   5.525  1.1252  0.8616  1.4676
16566TIP3   OH271112   5.386   2.584   6.021 -0.1192  0.4176 -0.0329
16566TIP3    H171113   5.440   2.506   6.035 -1.3574 -0.4715 -0.0716
16566TIP3    H271114   5.373   2.620   6.109  0.0842  0.3217  0.0376
16567TIP3   OH271115   5.869   6.203  11.587  0.2115 -0.5726  0.4068
16567TIP3    H171116   5.823   6.127  11.624 -0.6715 -1.1509 -1.6798
16567TIP3    H271117   5.961   6.176  11.584 -0.2481 -2.2807 -1.6423
16568TIP3   OH271118   3.135   5.953   3.893 -0.0330  0.5860 -0.1683
16568TIP3    H171119   3.152   5.912   3.978  0.8806  1.8552  0.3027
16568TIP3    H271120   3.040   5.956   3.886 -0.1317 -1.0459  0.0218
16569TIP3   OH271121   6.529   1.673   5.786  0.5941 -0.2669  0.5201
16569TIP3    H171122   6.613   1.636   5.758  0.3111 -1.4288  1.1824
16569TIP3    H271123   6.471   1.658   5.711  1.0927  1.0747 -0.1823
16570TIP3   OH271124   0.693   3.351   5.070  0.6397  0.1404 -0.1054
16570TIP3    H171125   0.782   3.317   5.061 -0.0742 -2.3686  1.2485
16570TIP3    H271126   0.700   3.420   5.135  1.7379  0.6181 -0.7209
16571TIP3   OH271127   0.702   5.548   4.544 -0.4893 -0.4480 -0.5737
16571TIP3    H171128   0.629   5.489   4.528 -0.5381 -0.4721 -0.2550
16571TIP3    H271129   0.715   5.546   4.639 -0.0455 -0.4798 -0.6341
16572TIP3   OH271130   6.598   4.414   1.767  0.0741 -0.0686  0.4945
16572TIP3    H171131   6.626   4.342   1.711  0.8096  1.0732 -0.6636
16572TIP3    H271132   6.502   4.414   1.760  0.1597  0.3536 -1.2157
16573TIP3   OH271133   1.605   6.633   2.753  0.5878 -0.1319  0.2538
16573TIP3    H171134   1.659   6.700   2.713 -1.4936  1.6649  0.2576
16573TIP3    H271135   1.582   6.574   2.681 -0.3444  1.1495 -0.5477
16574TIP3   OH271136   0.904   4.645   0.490  0.3988 -0.2565 -0.1240
16574TIP3    H171137   0.950   4.718   0.531  1.3418 -0.6485 -0.4740
16574TIP3    H271138   0.856   4.604   0.562 -1.3430  1.5567 -0.1576
16575TIP3   OH271139   3.421   6.513  10.416 -0.1655  0.1977 -0.2068
16575TIP3    H171140   3.344   6.545  10.464 -0.5944 -0.4413 -0.4498
16575TIP3    H271141   3.387   6.441  10.363  0.5690  0.0427 -0.4705
16576TIP3   OH271142   0.852   1.636  15.649  0.3208  0.2697  0.5433
16576TIP3    H171143   0.795   1.560  15.639 -0.2736  0.7387  0.2854
16576TIP3    H271144   0.883   1.654  15.560 -0.7470  1.2347  0.3417
16577TIP3   OH271145   0.351   5.717   5.254  0.6972  0.1997  0.0337
16577TIP3    H171146   0.395   5.632   5.249  1.6498  0.7373 -1.4168
16577TIP3    H271147   0.356   5.741   5.346 -0.1720 -1.5897  0.6000
16578TIP3   OH271148   1.268   6.734  16.894 -0.2562 -0.2093  0.1281
16578TIP3    H171149   1.287   6.802  16.958  0.5091 -0.0002 -0.3090
16578TIP3    H271150   1.219   6.780  16.825  1.4514  0.2305 -0.8328
16579TIP3   OH271151   3.872   3.015  15.658  0.5778  0.1228 -0.0409
16579TIP3    H171152   3.939   3.007  15.590  0.6894  0.6866 -0.0064
16579TIP3    H271153   3.805   3.071  15.619 -0.1274 -0.8565 -0.2589
16580TIP3   OH271154   1.302   5.773   0.061  0.2594  0.0216  0.1682
16580TIP3    H171155   1.354   5.732   0.129 -0.3427 -1.6215 -0.3100
16580TIP3    H271156   1.212   5.743   0.078  0.1116 -0.5290 -1.3862
16581TIP3   OH271157   2.591   4.524   2.466  0.2625 -0.2919  0.8764
16581TIP3    H171158   2.665   4.570   2.505 -0.4710  1.0841  0.6990
16581TIP3    H271159   2.575   4.569   2.383  0.2036 -1.5665  0.1680
16582TIP3   OH271160   6.559   4.837  12.921  0.3319  0.3871 -0.1405
16582TIP3    H171161   6.502   4.869  12.991  0.9385 -2.9917  2.1383
16582TIP3    H271162   6.500   4.793  12.860  0.0726  0.8024 -0.1904
16583TIP3   OH271163   6.588   3.110   5.896 -0.2002 -0.5297  0.3024
16583TIP3    H171164   6.502   3.101   5.936  0.1228  0.6979  1.3252
16583TIP3    H271165   6.620   3.195   5.926  1.8972 -1.4880  0.9944
16584TIP3   OH271166   3.126   4.736   3.222 -0.0804 -0.6117 -0.1622
16584TIP3    H171167   3.040   4.704   3.249  0.1539 -0.4441  0.7983
16584TIP3    H271168   3.107   4.794   3.148 -0.6783 -1.4985 -0.7196
16585TIP3   OH271169   4.018   6.197  10.363 -0.1784  0.1754 -0.4480
16585TIP3    H171170   3.974   6.116  10.389 -1.0865  0.0363 -2.2807
16585TIP3    H271171   4.079   6.215  10.435  0.1871 -2.2195 -0.0759
16586TIP3   OH271172   0.808   0.814   1.135 -0.1782 -0.4196 -0.1046
16586TIP3    H171173   0.784   0.787   1.224  0.3598  1.5471  0.6987
16586TIP3    H271174   0.869   0.747   1.104 -0.1758 -0.9980  1.1126
16587TIP3   OH271175   5.294   4.933   5.466 -0.0097 -0.1495  0.9735
16587TIP3    H171176   5.229   4.994   5.431  0.6521  0.1556  0.2471
16587TIP3    H271177   5.332   4.979   5.541  1.2184  0.7952 -0.1909
16588TIP3   OH271178   0.952   1.259   0.740  0.0391 -0.6943 -0.0515
16588TIP3    H171179   0.921   1.206   0.667 -0.6594 -1.3171  0.6818
16588TIP3    H271180   0.872   1.289   0.783  0.4352 -1.3783  1.1996
16589TIP3   OH271181   1.587   6.308  14.676 -0.8139 -0.4745 -0.3668
16589TIP3    H171182   1.647   6.374  14.641 -0.7342 -0.6962 -0.6412
16589TIP3    H271183   1.510   6.359  14.703 -0.1820 -0.0691  0.7763
16590TIP3   OH271184   0.069   1.176   3.755  0.3962  0.2932 -0.0857
16590TIP3    H171185  -0.001   1.229   3.794  0.8282  0.4978  0.4268
16590TIP3    H271186   0.126   1.240   3.712  1.7128  0.4313  1.7631
16591TIP3   OH271187   6.075   4.019  15.081  0.2928 -0.7442 -0.3316
16591TIP3    H171188   6.004   4.075  15.112  0.7237 -0.0849 -0.5211
16591TIP3    H271189   6.047   3.990  14.995 -1.0959 -2.9065  0.7542
16592TIP3   OH271190   1.617   4.291  12.511  0.7242 -0.1566  0.0918
16592TIP3    H171191   1.669   4.258  12.585 -1.1312  1.6889  2.3790
16592TIP3    H271192   1.573   4.214  12.476 -0.6648 -0.7492  2.8962
16593TIP3   OH271193   4.188   6.019  12.505 -0.1371  0.9187 -0.2481
16593TIP3    H171194   4.272   6.065  12.496 -0.5929  1.5580 -1.4054
16593TIP3    H271195   4.123   6.079  12.468 -1.1204  0.4200  0.5896
16594TIP3   OH271196   5.194   6.612   3.032  0.7804  0.4200  0.5400
16594TIP3    H171197   5.121   6.635   3.090 -1.0467  1.2974 -1.9428
16594TIP3    H271198   5.229   6.696   3.002  0.8173  0.0056 -0.6325
16595TIP3   OH271199   0.004   6.122   3.763  0.7572 -0.2725 -0.4218
16595TIP3    H171200   0.016   6.096   3.672  1.0013  1.3242 -0.8766
16595TIP3    H271201  -0.084   6.160   3.765  0.4544 -0.9714  0.1976
16596TIP3   OH271202   3.757   0.870   5.414  0.7413 -0.2013  0.0239
16596TIP3    H171203   3.817   0.848   5.486  1.7705 -1.1309 -1.0636
16596TIP3    H271204   3.781   0.960   5.390  0.1472  0.2419  1.0610
16597TIP3   OH271205   2.464   0.599  11.096 -0.1292 -0.2070  0.8519
16597TIP3    H171206   2.426   0.570  11.178  0.6829 -1.3739  0.8331
16597TIP3    H271207   2.434   0.535  11.031 -2.6598  1.9131 -0.2928
16598TIP3   OH271208   3.898   5.804   0.123 -0.2927  0.2772  0.5050
16598TIP3    H171209   3.833   5.810   0.193  1.7039 -1.9576  2.7955
16598TIP3    H271210   3.923   5.894   0.104 -2.4809  1.0484  1.0788
16599TIP3   OH271211   5.309   2.526  14.605  0.6760  0.2814  0.0758
16599TIP3    H171212   5.306   2.531  14.700  1.0850  2.1182  0.0231
16599TIP3    H271213   5.393   2.483  14.586  0.1107 -1.0644  0.5353
16600TIP3   OH271214   5.665   0.290  12.060 -0.0862 -0.3537 -0.0399
16600TIP3    H171215   5.573   0.276  12.081 -0.3970  0.9953 -0.3616
16600TIP3    H271216   5.701   0.335  12.136  0.1636 -0.3813 -0.1402
16601TIP3   OH271217   0.346   6.534  13.638  0.0436  0.3342  0.6139
16601TIP3    H171218   0.278   6.497  13.582 -0.4465 -0.1441  1.5033
16601TIP3    H271219   0.383   6.605  13.586 -2.2768  1.7343  0.7373
16602TIP3   OH271220   2.937   2.720   4.632 -0.1797 -0.1592 -0.0578
16602TIP3    H171221   3.015   2.678   4.669  1.2714  1.9910 -0.5087
16602TIP3    H271222   2.934   2.689   4.542  1.6124  1.5095 -0.7679
16603TIP3   OH271223   0.985   2.230   2.233 -0.1655  0.4977 -0.4831
16603TIP3    H171224   0.960   2.225   2.141 -0.1110 -0.2892 -0.4583
16603TIP3    H271225   0.949   2.314   2.263 -2.4535 -0.3767 -0.5552
16604TIP3   OH271226   0.822   1.590   5.811  0.0227  0.8067 -0.1720
16604TIP3    H171227   0.749   1.532   5.791 -0.2682  1.4371 -1.0250
16604TIP3    H271228   0.819   1.602   5.906 -1.2240  1.1257 -0.2326
16605TIP3   OH271229   3.872   1.892  17.245 -0.4403 -0.7877 -0.3558
16605TIP3    H171230   3.940   1.867  17.182  1.6411  1.4957  0.8199
16605TIP3    H271231   3.824   1.962  17.202  0.3876  0.1424  0.2103
16606TIP3   OH271232   5.697   1.402   1.581 -0.6284 -0.0574  0.2180
16606TIP3    H171233   5.610   1.369   1.600 -0.5278 -1.2523 -1.2192
16606TIP3    H271234   5.753   1.324   1.578  0.0364  0.4326 -1.0911
16607TIP3   OH271235   3.310   6.077  16.271 -0.3011  0.7459  0.5394
16607TIP3    H171236   3.296   6.115  16.358  1.2094  1.7640  0.3886
16607TIP3    H271237   3.403   6.091  16.254 -0.6132  0.7742 -1.3501
16608TIP3   OH271238   6.026   5.579   4.199 -0.3961  0.7994 -0.2796
16608TIP3    H171239   6.009   5.592   4.292  0.7722  2.0437 -0.2020
16608TIP3    H271240   6.035   5.668   4.164 -2.0533  0.3987 -1.8501
16609TIP3   OH271241   5.496   0.534   0.027 -0.4907  0.1652  0.2448
16609TIP3    H171242   5.444   0.614   0.033  0.3088  0.7284 -0.1500
16609TIP3    H271243   5.433   0.466   0.002 -1.8519 -0.0501  3.6675
16610TIP3   OH271244   1.837   1.574   2.266  0.3367 -0.4073  0.2428
16610TIP3    H171245   1.757   1.613   2.230  0.2819 -0.3883  0.3813
16610TIP3    H271246   1.907   1.635   2.242  0.3606 -0.5991 -0.1764
16611TIP3   OH271247   5.897   1.689  13.275  0.0325  0.1922 -0.2406
16611TIP3    H171248   5.810   1.651  13.269  0.0333  0.4001 -1.9113
16611TIP3    H271249   5.948   1.645  13.208  1.5910 -0.7724  1.4804
16612TIP3   OH271250   2.646   3.196  15.135  0.1464  0.4005 -0.1312
16612TIP3    H171251   2.704   3.269  15.159  2.2623 -1.0897 -0.4107
16612TIP3    H271252   2.647   3.140  15.212 -0.0351 -0.1749 -0.5469
16613TIP3   OH271253   4.544   2.537  12.491  0.3338  0.0125 -0.1837
16613TIP3    H171254   4.507   2.610  12.443  1.1478  0.9508  0.5623
16613TIP3    H271255   4.639   2.551  12.487  0.4488 -0.0697  1.3282
16614TIP3   OH271256   4.705   3.564  16.583 -1.3080 -0.1456  0.2210
16614TIP3    H171257   4.781   3.622  16.589 -2.0345  0.8288  0.2526
16614TIP3    H271258   4.728   3.488  16.636 -0.1848 -0.0680 -0.1281
16615TIP3   OH271259   5.879   6.194  13.330 -0.3737 -0.1808 -0.2022
16615TIP3    H171260   5.810   6.254  13.359  1.4702  0.8314  2.4645
16615TIP3    H271261   5.914   6.157  13.411  3.4355  0.7711 -1.2025
16616TIP3   OH271262   4.140   5.651   0.139 -0.3741  0.2794  0.1875
16616TIP3    H171263   4.185   5.706   0.075 -1.5586 -0.5093 -1.4248
16616TIP3    H271264   4.064   5.703   0.166 -0.5524  0.1314 -0.0204
16617TIP3   OH271265   5.381   6.131  10.650 -0.0466 -0.2150 -0.0444
16617TIP3    H171266   5.293   6.098  10.671 -0.1662 -0.3336 -0.7193
16617TIP3    H271267   5.390   6.116  10.556  1.2282 -1.4735  0.2368
16618TIP3   OH271268   6.667   0.237  11.633  0.1481  0.0787 -0.0732
16618TIP3    H171269   6.733   0.306  11.623  0.1091  0.1162 -0.0740
16618TIP3    H271270   6.584   0.284  11.646 -0.0475  0.0435 -1.1390
16619TIP3   OH271271   6.012   0.427  16.154 -0.1622  0.2237  0.7540
16619TIP3    H171272   6.057   0.471  16.082  0.7133  1.3358  1.9367
16619TIP3    H271273   5.939   0.381  16.112  0.2786  0.9017 -0.8211
16620TIP3   OH271274   5.327   1.288   2.929 -0.2881  0.1914  0.1338
16620TIP3    H171275   5.259   1.332   2.878 -0.5593 -0.8934 -0.4595
16620TIP3    H271276   5.399   1.352   2.932 -0.8921  0.9053 -0.1862
16621TIP3   OH271277   5.296   3.193  11.687 -0.1099  0.0033  0.0893
16621TIP3    H171278   5.308   3.104  11.721  0.1101  0.0968  0.2540
16621TIP3    H271279   5.283   3.180  11.593 -0.8406 -0.2624  0.2170
16622TIP3   OH271280   2.457   5.849   0.611  0.5827 -0.0350 -0.7219
16622TIP3    H171281   2.404   5.895   0.546 -0.9130 -0.8886 -0.1580
16622TIP3    H271282   2.487   5.770   0.565  0.1572 -0.2649 -0.6061
16623TIP3   OH271283   4.687   3.420  12.058 -0.4717  0.5810  0.5709
16623TIP3    H171284   4.607   3.416  12.007  0.9798  0.4129 -1.8328
16623TIP3    H271285   4.701   3.513  12.075  0.1203  0.8758 -1.2912
16624TIP3   OH271286   0.415   0.651   5.754 -0.5788  0.3645 -0.2879
16624TIP3    H171287   0.320   0.641   5.751 -0.7343  1.4050  0.5723
16624TIP3    H271288   0.441   0.665   5.663 -1.2087 -0.2234 -0.5640
16625TIP3   OH271289   4.876   3.957  13.428 -0.3226  0.1129  0.1916
16625TIP3    H171290   4.861   4.041  13.383 -0.8925  0.3839  0.8673
16625TIP3    H271291   4.788   3.925  13.448 -0.0746  0.1849  1.4518
16626TIP3   OH271292   0.880   2.764   2.604  0.6361 -0.8126  0.0112
16626TIP3    H171293   0.875   2.768   2.509  0.2455  0.5156  0.0734
16626TIP3    H271294   0.800   2.720   2.631  0.7176 -1.1330 -0.2638
16627TIP3   OH271295   5.740   0.231   5.201 -0.2154 -0.3883 -0.1416
16627TIP3    H171296   5.721   0.230   5.108 -0.7208 -0.2988 -0.0408
16627TIP3    H271297   5.783   0.315   5.216 -0.1175 -0.4108 -0.2922
16628TIP3   OH271298   0.274   3.431  16.104 -0.3862  0.6788  0.3014
16628TIP3    H171299   0.244   3.388  16.184  0.3845  1.6287  1.1215
16628TIP3    H271300   0.222   3.510  16.098 -1.8005 -0.3150 -1.2095
16629TIP3   OH271301   1.951   4.382   5.220 -0.8625  0.0672 -0.0973
16629TIP3    H171302   2.036   4.358   5.182  0.8710  1.5569  2.5082
16629TIP3    H271303   1.921   4.303   5.265 -1.5258 -0.8293 -2.0091
16630TIP3   OH271304   2.313   2.075  16.492  0.2780  0.2479  0.3383
16630TIP3    H171305   2.388   2.017  16.508 -0.1688 -1.4461 -2.9385
16630TIP3    H271306   2.350   2.150  16.445  0.2081  0.5867  0.8080
16631TIP3   OH271307   4.171   6.633   0.481 -0.0526  0.6608  0.0421
16631TIP3    H171308   4.234   6.580   0.433 -1.5525  1.0911 -2.5927
16631TIP3    H271309   4.115   6.569   0.525 -0.4244  0.1051 -1.1931
16632TIP3   OH271310   1.119   3.217  11.525 -0.3970 -0.1235  0.0547
16632TIP3    H171311   1.202   3.203  11.479  0.4229  1.1434  1.0733
16632TIP3    H271312   1.052   3.185  11.464  0.6323  1.4262 -2.0217
16633TIP3   OH271313   5.021   3.459  16.335  0.1797  0.0307  0.1268
16633TIP3    H171314   5.087   3.528  16.338 -0.3801  0.6041 -0.4899
16633TIP3    H271315   5.049   3.402  16.264  1.3313 -1.1113  1.4429
16634TIP3   OH271316   6.092   3.091   3.355  0.3715  0.3178  0.3831
16634TIP3    H171317   6.106   3.014   3.300 -0.4128  0.2742  0.2287
16634TIP3    H271318   6.174   3.102   3.403  1.2272  0.6084 -1.0995
16635TIP3   OH271319   4.210   5.179   0.871 -0.0481 -0.2846 -0.6384
16635TIP3    H171320   4.293   5.132   0.863 -0.0358 -0.4819  0.4546
16635TIP3    H271321   4.223   5.238   0.945 -0.3912  0.7663 -1.3902
16636TIP3   OH271322   2.444   3.971  10.856  0.4329 -0.1298  0.3821
16636TIP3    H171323   2.424   4.064  10.846 -0.9622 -0.2522  1.7384
16636TIP3    H271324   2.539   3.969  10.868  0.5981  1.0233 -0.5153
16637TIP3   OH271325   4.445   2.515  12.189 -0.5426  0.3751  0.1482
16637TIP3    H171326   4.452   2.611  12.187  1.7123  0.2629 -0.7415
16637TIP3    H271327   4.449   2.489  12.097 -0.3925 -0.5902  0.4174
16638TIP3   OH271328   2.191   1.989  14.035 -0.7065 -0.8536  0.4861
16638TIP3    H171329   2.215   1.899  14.060  1.0803 -1.2680 -2.2791
16638TIP3    H271330   2.269   2.041  14.055 -0.7652 -0.4286 -0.3628
16639TIP3   OH271331   4.463   5.603   3.515 -1.1491 -0.4976 -0.2396
16639TIP3    H171332   4.514   5.627   3.438  0.7628  0.2376  1.1803
16639TIP3    H271333   4.486   5.512   3.532 -0.6437 -0.3051  0.1308
16640TIP3   OH271334   1.052   3.111  12.877 -0.7738  0.1838 -0.0422
16640TIP3    H171335   1.089   3.063  12.803  0.8492  1.4847 -0.1502
16640TIP3    H271336   1.006   3.186  12.838 -1.5393 -0.1493  0.1999
16641TIP3   OH271337   4.074   3.306  15.477  0.2705 -0.0853 -0.0836
16641TIP3    H171338   3.983   3.278  15.463 -0.5146  1.1745  2.1184
16641TIP3    H271339   4.124   3.224  15.479 -0.7998 -0.8056 -1.2533
16642TIP3   OH271340   3.269   0.930  13.984 -0.2347 -0.2304 -0.1238
16642TIP3    H171341   3.271   1.014  13.938 -1.1555 -0.3943 -0.4942
16642TIP3    H271342   3.359   0.916  14.015  0.7364 -0.6424 -2.8639
16643TIP3   OH271343   1.651   4.583   5.717 -0.1523 -0.7387  0.4097
16643TIP3    H171344   1.608   4.532   5.785 -1.6130  0.4444  0.4366
16643TIP3    H271345   1.684   4.661   5.763 -0.2154 -0.4416 -0.0376
16644TIP3   OH271346   1.129   2.774  15.940  0.1366  0.0432  0.1392
16644TIP3    H171347   1.176   2.700  15.979 -0.3808  0.0789  0.8460
16644TIP3    H271348   1.156   2.774  15.848 -0.6956 -1.7069 -0.1457
16645TIP3   OH271349   6.314   2.836   5.643  0.1346  0.5088 -0.0025
16645TIP3    H171350   6.372   2.807   5.714 -1.7106  0.2401  1.4857
16645TIP3    H271351   6.273   2.916   5.677 -1.3598 -0.0510 -0.4355
16646TIP3   OH271352   2.707   1.865  17.213  0.1159  0.0949  0.2153
16646TIP3    H171353   2.757   1.860  17.294  2.9260  1.1511 -1.3037
16646TIP3    H271354   2.690   1.773  17.190  1.6618 -0.3469  0.6832
16647TIP3   OH271355   5.004   2.814   6.382 -0.0980 -0.1592 -0.0474
16647TIP3    H171356   4.909   2.802   6.385 -0.5874  3.0191  0.2110
16647TIP3    H271357   5.019   2.877   6.312  1.7578 -0.0919  0.3482
16648TIP3   OH271358   5.198   1.466   2.119  0.4731 -0.1552  0.6334
16648TIP3    H171359   5.274   1.516   2.090 -0.1015  1.3707  1.6010
16648TIP3    H271360   5.229   1.414   2.193  0.1514  2.3113  2.6654
16649TIP3   OH271361   4.751   5.608   3.706 -0.0811  0.0439  0.0196
16649TIP3    H171362   4.660   5.596   3.731 -0.2794 -0.1489 -0.7456
16649TIP3    H271363   4.801   5.560   3.772 -0.4035  1.6968  1.5157
16650TIP3   OH271364   3.250   2.474   0.457 -0.1866  0.4304 -0.2266
16650TIP3    H171365   3.299   2.426   0.390  1.6444  2.6828 -0.6250
16650TIP3    H271366   3.163   2.436   0.455  0.3380 -0.8423 -2.5715
16651TIP3   OH271367   5.120   4.641   0.312 -0.1082  0.1185 -0.0048
16651TIP3    H171368   5.175   4.562   0.315 -1.5773 -0.9334  0.4274
16651TIP3    H271369   5.140   4.686   0.394  1.0012  0.4069 -0.4109
16652TIP3   OH271370   2.569   3.880   4.371 -0.0062  0.0295 -0.3710
16652TIP3    H171371   2.553   3.822   4.297 -1.6656 -1.7218  1.2612
16652TIP3    H271372   2.499   3.860   4.433  0.6905  2.2057  1.2346
16653TIP3   OH271373   2.557   4.814  10.937 -0.1491 -0.5056 -0.2996
16653TIP3    H171374   2.631   4.846  10.885 -0.1294 -0.3620 -0.1851
16653TIP3    H271375   2.480   4.852  10.895 -0.1090 -0.1042 -0.0207
16654TIP3   OH271376   4.727   5.812  16.420 -0.0784  0.1793  0.4026
16654TIP3    H171377   4.661   5.745  16.401 -1.4931  1.5651  0.2205
16654TIP3    H271378   4.807   5.763  16.435 -0.4432 -1.4660 -2.2708
16655TIP3   OH271379   6.134   5.287  11.512 -0.4308 -0.0166  0.3131
16655TIP3    H171380   6.189   5.255  11.583 -2.3194 -1.9361  1.0070
16655TIP3    H271381   6.118   5.210  11.457 -1.7209  0.6687 -0.3277
16656TIP3   OH271382   3.481   5.283  14.006 -1.0531 -0.1489  0.2563
16656TIP3    H171383   3.460   5.301  14.097 -1.2228  0.0427  0.1804
16656TIP3    H271384   3.489   5.370  13.966  0.2774 -0.1849  0.3711
16657TIP3   OH271385   2.237   1.259  12.939 -0.1100 -0.1505  0.5902
16657TIP3    H171386   2.262   1.347  12.969  0.4468 -0.2699  0.4821
16657TIP3    H271387   2.313   1.204  12.958 -0.2443 -0.5002  0.1477
16658TIP3   OH271388   1.001   1.961   3.463  0.3209  0.0366  0.2838
16658TIP3    H171389   1.038   2.038   3.505 -1.7048  0.1063  2.0846
16658TIP3    H271390   0.936   1.996   3.402 -1.0010 -0.2050  1.5078
16659TIP3   OH271391   5.413   3.922  16.436  0.2861  0.1718  0.0230
16659TIP3    H171392   5.376   3.870  16.364  0.8599 -2.9959  1.8183
16659TIP3    H271393   5.506   3.900  16.436  0.4196  0.6691  1.2936
16660TIP3   OH271394   3.049   4.786   3.843 -0.3927 -0.7649  0.2280
16660TIP3    H171395   3.086   4.863   3.886 -0.7995  0.2901 -1.2265
16660TIP3    H271396   2.976   4.761   3.899  0.0243 -0.3822  0.9669
16661TIP3   OH271397   0.913   2.135  11.761 -0.1008  0.1257  0.2398
16661TIP3    H171398   0.842   2.197  11.745  1.7332  2.2027 -0.3728
16661TIP3    H271399   0.967   2.138  11.682  2.3444  1.0760  1.7872
16662TIP3   OH271400   2.198   5.126   0.740  0.9005 -0.0935  0.1524
16662TIP3    H171401   2.279   5.150   0.695  0.4573  2.6296  0.6411
16662TIP3    H271402   2.226   5.061   0.805  2.4998  0.0303 -0.3483
16663TIP3   OH271403   6.224   2.206  14.535  0.3911 -0.6265  0.0460
16663TIP3    H171404   6.136   2.244  14.530  0.7640  0.3867  0.7783
16663TIP3    H271405   6.221   2.130  14.477 -0.8293 -0.3367 -0.2978
16664TIP3   OH271406   0.871   4.166  15.298  0.5587 -0.1824  0.2721
16664TIP3    H171407   0.881   4.259  15.278 -0.4187 -0.0428  0.3697
16664TIP3    H271408   0.939   4.148  15.363  1.8539  0.0546 -0.9738
16665TIP3   OH271409   4.546   0.046   1.432 -0.0481  0.6589 -0.3366
16665TIP3    H171410   4.551   0.140   1.445 -0.5936  0.6419  0.0757
16665TIP3    H271411   4.533   0.034   1.338  2.0209  0.8926 -0.6905
16666TIP3   OH271412   5.548   3.788  15.640 -0.1588 -0.3231  0.0558
16666TIP3    H171413   5.485   3.777  15.711  0.7088 -0.3920  0.8401
16666TIP3    H271414   5.603   3.861  15.668 -0.0175 -0.1237 -0.7143
16667TIP3   OH271415   3.497   1.356  13.126 -0.0415 -0.3028  0.0178
16667TIP3    H171416   3.417   1.409  13.122 -1.0451 -1.7701 -0.2075
16667TIP3    H271417   3.475   1.283  13.184  1.3936 -0.3488  0.5543
16668TIP3   OH271418   6.205   2.364  16.423 -0.8266  0.6654  0.0016
16668TIP3    H171419   6.161   2.439  16.463  0.4801  2.1618 -1.2123
16668TIP3    H271420   6.260   2.328  16.493  1.4925  3.3009 -0.2779
16669TIP3   OH271421   4.947   1.945   3.598  0.0404  0.0341  0.0090
16669TIP3    H171422   4.987   1.900   3.672 -0.1773 -1.0842 -0.5389
16669TIP3    H271423   5.002   1.922   3.523 -0.5563  0.0041 -0.4231
16670TIP3   OH271424   0.674   0.866   2.598  0.6222 -0.0835 -0.0472
16670TIP3    H171425   0.627   0.796   2.644  0.0402 -0.2173 -0.8118
16670TIP3    H271426   0.712   0.823   2.521  1.1191  0.2409  0.0143
16671TIP3   OH271427   2.863   3.562  17.067  0.5527 -0.6287 -0.2183
16671TIP3    H171428   2.873   3.526  16.979 -4.5015 -0.8739 -0.9487
16671TIP3    H271429   2.840   3.487  17.122  2.4659 -0.2840  1.2025
16672TIP3   OH271430   0.882   3.893  13.545 -0.0293 -0.0194 -0.3976
16672TIP3    H171431   0.934   3.973  13.554  1.2496 -0.9536  0.9286
16672TIP3    H271432   0.805   3.907  13.600  0.7468 -0.1149  0.7360
16673TIP3   OH271433   6.447   3.320   4.302  0.4519 -0.3003  0.9870
16673TIP3    H171434   6.439   3.393   4.241  0.4158 -0.2766  1.0197
16673TIP3    H271435   6.380   3.338   4.369  0.5283 -0.2979  1.0620
16674TIP3   OH271436   3.520   0.820  17.175 -0.2203  0.1498  0.5478
16674TIP3    H171437   3.445   0.880  17.180  0.3006  0.9728 -0.8995
16674TIP3    H271438   3.595   0.874  17.199  0.1899 -0.0377 -0.2790
16675TIP3   OH271439   2.892   5.709  11.723 -0.2200 -0.1228 -0.2119
16675TIP3    H171440   2.966   5.702  11.662 -0.2792  0.9410 -0.4331
16675TIP3    H271441   2.925   5.763  11.794  0.5522 -3.0673  1.8666
16676TIP3   OH271442   6.676   3.301  11.884  0.0114  0.0920  0.3438
16676TIP3    H171443   6.766   3.296  11.918  0.2471 -0.5102 -0.3476
16676TIP3    H271444   6.683   3.273  11.793 -0.7911  0.6261  0.1052
16677TIP3   OH271445   4.125   6.096  15.098 -0.0548  1.1533 -0.3955
16677TIP3    H171446   4.066   6.046  15.155  0.3826  0.6166 -0.4054
16677TIP3    H271447   4.066   6.144  15.040 -0.4960  1.4518  0.2900
16678TIP3   OH271448   3.508   0.874  14.983 -0.0782 -0.0764  0.0435
16678TIP3    H171449   3.463   0.792  15.004  0.2752 -0.3918 -0.4169
16678TIP3    H271450   3.446   0.921  14.927  0.0565 -0.4111 -0.3994
16679TIP3   OH271451   1.027   3.254  14.715 -0.3348  0.0340 -0.1000
16679TIP3    H171452   1.107   3.208  14.741 -0.5125 -0.2617 -0.0680
16679TIP3    H271453   1.005   3.308  14.791 -1.0554 -1.1086  0.5167
16680TIP3   OH271454   1.993   5.436  13.015 -0.7559 -0.3725  0.4023
16680TIP3    H171455   2.031   5.522  12.997 -1.8984  0.7556  2.9002
16680TIP3    H271456   1.944   5.414  12.937  0.7676  0.5172 -0.8675
16681TIP3   OH271457   4.549   5.073  11.051 -0.1118 -0.3647 -0.3213
16681TIP3    H171458   4.497   5.138  11.004 -0.3411  0.5392  1.1087
16681TIP3    H271459   4.617   5.047  10.988 -1.5533 -0.7028 -1.8136
16682TIP3   OH271460   1.594   3.600   3.936  0.5973 -0.3991  0.3084
16682TIP3    H171461   1.529   3.670   3.941  1.6461  0.8192 -1.7196
16682TIP3    H271462   1.609   3.574   4.027 -2.5695 -0.6565  0.8669
16683TIP3   OH271463   2.118   1.015  12.216  0.3039 -0.5426 -0.0097
16683TIP3    H171464   2.137   1.029  12.309  0.8943 -0.1994 -0.1759
16683TIP3    H271465   2.201   1.031  12.172  0.2826 -1.6910 -0.5119
16684TIP3   OH271466   5.991   6.701   1.264  0.0676 -0.3364  0.2978
16684TIP3    H171467   5.903   6.679   1.234  0.3405  0.1817 -0.9632
16684TIP3    H271468   6.046   6.630   1.230  0.1991 -0.4592  0.7563
16685TIP3   OH271469   4.891   5.493   3.923  0.7757 -0.8775 -0.1088
16685TIP3    H171470   4.987   5.493   3.916  0.7239 -0.4136 -0.8752
16685TIP3    H271471   4.873   5.558   3.991  1.0417 -1.6948  0.7689
16686TIP3   OH271472   6.750   2.399  10.316  0.2745 -0.0518 -0.0072
16686TIP3    H171473   6.663   2.372  10.285  0.2362  0.1910 -0.1155
16686TIP3    H271474   6.805   2.323  10.302  0.0882 -0.1914  0.0161
16687TIP3   OH271475   0.396   4.789   5.094  0.3584 -0.7410 -0.0628
16687TIP3    H171476   0.472   4.845   5.083  0.4749 -1.1564 -1.5675
16687TIP3    H271477   0.352   4.823   5.172  0.4854  1.3803 -0.8561
16688TIP3   OH271478   4.178   2.438   1.052  1.2848  0.0368  0.9512
16688TIP3    H171479   4.235   2.390   0.992  2.0886  2.8950 -0.7298
16688TIP3    H271480   4.114   2.372   1.081  1.8637 -1.8926 -1.7340
16689TIP3   OH271481   0.717   1.462   5.597  0.0829  0.5916 -0.3220
16689TIP3    H171482   0.778   1.395   5.567 -0.1982  0.4055 -0.4753
16689TIP3    H271483   0.654   1.415   5.652 -0.9665  0.4783 -1.5956
16690TIP3   OH271484   3.650   0.220   3.269  0.4995 -0.5975  0.7696
16690TIP3    H171485   3.727   0.169   3.244 -0.1518 -1.0961 -0.2839
16690TIP3    H271486   3.668   0.247   3.359  3.6805  2.5835 -0.5906
16691TIP3   OH271487   2.212   3.345   1.384 -0.3278  0.5195  0.5403
16691TIP3    H171488   2.207   3.249   1.381  1.1906  0.4268  0.1943
16691TIP3    H271489   2.121   3.374   1.373 -0.6530 -0.8665 -0.8730
16692TIP3   OH271490   2.472   5.172  16.444  0.2230 -0.1709 -0.3663
16692TIP3    H171491   2.485   5.161  16.538  1.5965  0.0455 -0.5202
16692TIP3    H271492   2.560   5.173  16.407  0.0027  3.6971 -1.2037
16693TIP3   OH271493   0.370   3.422  14.569 -0.2104  0.1029 -0.3634
16693TIP3    H171494   0.290   3.447  14.522  0.5340 -0.9162 -2.2411
16693TIP3    H271495   0.361   3.328  14.585  0.3470  0.1021 -0.0158
16694TIP3   OH271496   6.560   3.195  15.021  0.1364  0.4589 -0.7433
16694TIP3    H171497   6.474   3.201  15.062  0.9514 -0.6051  1.3251
16694TIP3    H271498   6.547   3.139  14.945 -0.6569 -1.6452  0.8344
16695TIP3   OH271499   2.403   5.295  13.922  0.5007 -0.1850  0.5862
16695TIP3    H171500   2.489   5.313  13.960  0.4438 -1.6524  1.4679
16695TIP3    H271501   2.341   5.326  13.989  0.3116  1.0466 -0.1281
16696TIP3   OH271502   3.157   1.619  15.805  0.0908  0.0271 -0.3456
16696TIP3    H171503   3.101   1.552  15.766  0.7932 -0.9177  0.2121
16696TIP3    H271504   3.230   1.628  15.743  0.6045 -0.6141  0.1477
16697TIP3   OH271505   0.302   2.427   0.856  0.5010 -0.3253 -0.5736
16697TIP3    H171506   0.356   2.503   0.877  0.0491  0.0689 -0.8265
16697TIP3    H271507   0.365   2.355   0.849  0.9258  0.0088 -0.2772
16698TIP3   OH271508   1.866   4.637   5.296 -0.6997  0.4149  0.3427
16698TIP3    H171509   1.866   4.547   5.264  1.2161  0.9864 -1.5474
16698TIP3    H271510   1.948   4.673   5.264 -2.4016  3.5006 -0.9657
16699TIP3   OH271511   4.682   6.656  12.734  0.0936  0.7975  0.3606
16699TIP3    H171512   4.663   6.723  12.799 -0.8274  0.7398  0.1653
16699TIP3    H271513   4.627   6.582  12.758  2.0167 -0.4131  1.3343
16700TIP3   OH271514   2.473   4.554  16.218 -0.6621 -0.3619 -0.1778
16700TIP3    H171515   2.523   4.473  16.223 -0.6469 -0.3105  0.6309
16700TIP3    H271516   2.413   4.541  16.145 -0.0837 -0.7681 -0.5892
16701TIP3   OH271517   4.703   2.492  11.995 -0.3352  0.5905 -0.1834
16701TIP3    H171518   4.752   2.496  12.077  1.7245  1.3574 -1.3664
16701TIP3    H271519   4.647   2.569  11.996 -0.4310  0.5123  0.5561
16702TIP3   OH271520   5.650   4.294   6.044 -0.1200 -0.0438  0.5944
16702TIP3    H171521   5.611   4.236   5.980  1.0482  1.3904 -1.5717
16702TIP3    H271522   5.720   4.339   5.996 -0.0806  2.1350  2.5022
16703TIP3   OH271523   0.910   6.144  10.982 -0.5730 -0.4807  0.2658
16703TIP3    H171524   0.859   6.063  10.975 -2.4187  0.5907  0.6507
16703TIP3    H271525   0.846   6.213  10.971  0.5675  0.9882  2.3174
16704TIP3   OH271526   4.715   4.582  12.537  0.3070  0.0278  0.2876
16704TIP3    H171527   4.655   4.636  12.485 -0.1772 -0.6983  0.0688
16704TIP3    H271528   4.657   4.527  12.591  0.7901  1.2575  2.1490
16705TIP3   OH271529   4.322   5.537  15.242  0.5576 -0.2834  0.5524
16705TIP3    H171530   4.320   5.450  15.202  0.6612 -1.0055  2.0246
16705TIP3    H271531   4.230   5.564  15.245  0.4014 -0.8490  1.1006
16706TIP3   OH271532   5.152   2.449  13.124 -0.0201  0.5442  0.0234
16706TIP3    H171533   5.089   2.380  13.104  1.4557 -1.1233  0.9533
16706TIP3    H271534   5.163   2.496  13.041 -1.5586  0.1201 -0.4483
16707TIP3   OH271535   6.289   1.725   1.586  0.6973  0.1605  0.5829
16707TIP3    H171536   6.376   1.760   1.564  0.5188  0.0278 -0.3892
16707TIP3    H271537   6.238   1.803   1.609  0.9590  0.2837  0.7602
16708TIP3   OH271538   1.442   4.667  16.126 -0.3268  0.5378  0.9038
16708TIP3    H171539   1.363   4.626  16.090  1.5673 -1.2285 -1.5367
16708TIP3    H271540   1.441   4.756  16.091 -1.1001  0.4446  0.6681
16709TIP3   OH271541   0.282   0.275  11.799  0.0786  0.1226  0.0616
16709TIP3    H171542   0.195   0.286  11.839 -0.4357 -1.6162 -0.4859
16709TIP3    H271543   0.264   0.239  11.712  1.3229  0.6341 -0.4257
16710TIP3   OH271544   6.541   1.422  14.313  0.2084  0.1885 -0.6483
16710TIP3    H171545   6.550   1.333  14.348 -0.6314  0.2020 -0.3732
16710TIP3    H271546   6.596   1.476  14.370 -0.7804  0.1339  0.3749
16711TIP3   OH271547   6.363   1.421   5.740  0.0336  0.2178  0.1158
16711TIP3    H171548   6.390   1.451   5.827  0.9420 -0.3803  0.0535
16711TIP3    H271549   6.285   1.368   5.756  1.4080 -1.7084  0.8668
16712TIP3   OH271550   3.818   4.541  11.180  0.3311  0.4334  0.4240
16712TIP3    H171551   3.800   4.634  11.191  0.1930  0.9557 -3.2087
16712TIP3    H271552   3.734   4.498  11.201 -0.0939  1.2721  0.4953
16713TIP3   OH271553   5.548   1.583  14.061 -0.7190  0.4094 -0.2158
16713TIP3    H171554   5.499   1.539  13.992  0.1260  0.4352 -0.8604
16713TIP3    H271555   5.625   1.528  14.074 -1.1922  0.0587  1.1920
16714TIP3   OH271556   5.208   2.365   3.385 -0.2804  0.3575  0.1205
16714TIP3    H171557   5.146   2.295   3.406 -1.2087  0.7367 -1.2650
16714TIP3    H271558   5.154   2.444   3.377  0.2968  0.6188 -1.5063
16715TIP3   OH271559   3.300   4.964  14.621 -0.0831 -0.0772  0.5861
16715TIP3    H171560   3.261   4.905  14.556  0.9754  0.3911 -0.5017
16715TIP3    H271561   3.244   4.954  14.698 -1.1844 -0.8847 -0.2800
16716TIP3   OH271562   0.402   4.516   5.116 -0.5748  0.1647 -0.1150
16716TIP3    H171563   0.399   4.610   5.095  2.5414  0.4539  0.2553
16716TIP3    H271564   0.454   4.477   5.046  3.2892 -0.1586  2.6422
16717TIP3   OH271565   3.621   2.389   3.825  0.1380  0.0148  0.1119
16717TIP3    H171566   3.626   2.477   3.862  1.5082 -0.2586  0.6229
16717TIP3    H271567   3.701   2.381   3.772 -1.2597  0.0429 -2.1726
16718TIP3   OH271568   0.719   5.514   0.658  0.6626 -1.1515 -0.3273
16718TIP3    H171569   0.755   5.467   0.582  2.6010  0.7233 -0.6623
16718TIP3    H271570   0.630   5.537   0.631  1.2880 -0.5507 -2.0533
16719TIP3   OH271571   2.986   3.652  17.316  0.2133 -0.5468 -0.0744
16719TIP3    H171572   2.903   3.622  17.280 -1.0961  0.8184  1.6674
16719TIP3    H271573   3.013   3.582  17.376  0.2765 -0.9073 -0.5097
16720TIP3   OH271574   1.096   2.304   0.385  0.7850 -0.2388  0.0116
16720TIP3    H171575   1.032   2.236   0.363 -0.4032  0.6940  0.4931
16720TIP3    H271576   1.062   2.383   0.345  2.3237  0.0524 -0.8171
16721TIP3   OH271577   3.268   6.342   0.782  0.9559  0.2623 -0.3463
16721TIP3    H171578   3.206   6.413   0.766  2.8180  1.4976 -2.9801
16721TIP3    H271579   3.241   6.273   0.722  0.7530 -0.1571  0.2252
16722TIP3   OH271580   0.010   5.453  16.745 -0.6579  0.0939  0.1403
16722TIP3    H171581   0.077   5.521  16.755  0.8953 -1.4449  0.5892
16722TIP3    H271582  -0.059   5.478  16.807  1.4190 -0.5126  2.8572
16723TIP3   OH271583   3.162   4.537   1.838 -1.3167  1.0287 -0.6449
16723TIP3    H171584   3.118   4.601   1.894 -0.9410 -0.1334  1.0205
16723TIP3    H271585   3.242   4.581   1.811 -1.0296  1.2636  0.5423
16724TIP3   OH271586   0.054   1.108   4.049 -0.2426 -0.2597  0.5106
16724TIP3    H171587   0.009   1.173   4.101  0.2396  0.7283 -0.2743
16724TIP3    H271588   0.012   1.111   3.963  1.4931  0.9511 -0.3550
16725TIP3   OH271589   3.881   0.804   0.823 -0.2943 -0.5903  0.7294
16725TIP3    H171590   3.876   0.864   0.748 -1.1228 -0.5822  0.7834
16725TIP3    H271591   3.809   0.742   0.809 -0.3465 -0.6946  1.4232
16726TIP3   OH271592   3.913   4.719   2.140 -0.3383  0.5339  0.1946
16726TIP3    H171593   3.869   4.722   2.055  0.0751  0.0533 -0.0467
16726TIP3    H271594   3.983   4.655   2.128 -0.7416 -0.0947  1.1301
16727TIP3   OH271595   2.386   3.929  15.000 -0.2390 -0.1715 -0.1973
16727TIP3    H171596   2.349   3.850  15.038 -0.6754 -0.4479 -1.1780
16727TIP3    H271597   2.348   4.000  15.052  1.6444 -0.6259  1.9709
16728TIP3   OH271598   4.376   2.356  15.389 -0.7271 -0.1550 -0.3605
16728TIP3    H171599   4.412   2.442  15.364 -0.7527  0.3728  1.2859
16728TIP3    H271600   4.429   2.330  15.464 -1.2501 -1.2223 -0.3530
16729TIP3   OH271601   0.520   6.414  12.421 -0.0242  0.0246 -0.0610
16729TIP3    H171602   0.470   6.496  12.422 -2.9508 -1.5719 -1.4717
16729TIP3    H271603   0.531   6.394  12.328  1.9577 -0.5104  0.2445
16730TIP3   OH271604   3.852   0.727   3.695 -0.4027  0.0537 -0.2933
16730TIP3    H171605   3.850   0.633   3.714  0.5403 -0.1858 -1.2402
16730TIP3    H271606   3.775   0.762   3.739 -0.2816 -1.0089  0.8326
16731TIP3   OH271607   5.979   2.898   4.760  0.0664  0.0751 -0.3562
16731TIP3    H171608   5.909   2.851   4.714  1.0052 -1.2594 -0.4640
16731TIP3    H271609   6.059   2.855   4.732  0.7565 -0.1614  1.8210
16732TIP3   OH271610   6.286   2.043  12.777 -0.2643  0.0668 -0.8662
16732TIP3    H171611   6.213   2.079  12.828  0.3755 -0.1144  0.2122
16732TIP3    H271612   6.334   2.120  12.746 -0.9991  0.1900 -1.7239
16733TIP3   OH271613   4.265   6.175  10.886  0.6603  0.0537 -0.6996
16733TIP3    H171614   4.257   6.178  10.791 -1.9950 -0.7937 -0.5771
16733TIP3    H271615   4.258   6.266  10.914  1.2447  0.2865 -1.2953
16734TIP3   OH271616   0.441   0.498  15.998  0.1029 -0.2299  0.5985
16734TIP3    H171617   0.375   0.542  15.945  1.2753  0.3581 -0.4337
16734TIP3    H271618   0.400   0.488  16.084 -1.3986 -0.1077 -0.0759
16735TIP3   OH271619   4.491   2.119  15.232 -0.0443 -0.0882 -0.0839
16735TIP3    H171620   4.406   2.156  15.209  0.3174  0.9616  0.2184
16735TIP3    H271621   4.474   2.066  15.310  0.0489  2.4685  1.7843
16736TIP3   OH271622   5.699   0.435   0.463 -0.1551 -0.4626  0.6391
16736TIP3    H171623   5.699   0.343   0.437  0.4271 -0.7336  1.5777
16736TIP3    H271624   5.732   0.435   0.553  0.5676  0.7297  0.3934
16737TIP3   OH271625   2.460   1.022  14.937  0.2119 -0.1862 -0.4140
16737TIP3    H171626   2.377   1.054  14.972  0.2504 -0.7220  0.1853
16737TIP3    H271627   2.480   1.081  14.865 -0.0066  0.7791  0.3052
16738TIP3   OH271628   4.681   5.025  14.108  0.1591  0.5138 -0.0172
16738TIP3    H171629   4.742   4.976  14.052 -0.6150 -0.8699  0.3213
16738TIP3    H271630   4.715   5.013  14.197 -0.9470 -0.8135  0.2459
16739TIP3   OH271631   4.679   2.020   4.519 -0.5000 -0.6135 -0.5615
16739TIP3    H171632   4.767   1.983   4.531 -0.5724 -0.7127 -0.3108
16739TIP3    H271633   4.688   2.112   4.542 -0.2732 -0.4223 -1.3916
16740TIP3   OH271634   0.696   0.115  17.156  0.0678  0.3114 -0.3705
16740TIP3    H171635   0.711   0.104  17.062 -0.1371 -0.3995 -0.3216
16740TIP3    H271636   0.783   0.110  17.195  0.0526 -0.4569 -0.4214
16741TIP3   OH271637   2.408   3.251   0.140  0.0153 -0.2962  0.4605
16741TIP3    H171638   2.408   3.347   0.139 -0.5401 -0.2926  0.1628
16741TIP3    H271639   2.487   3.227   0.188 -0.2687  0.3237  1.2668
16742TIP3   OH271640   3.977   1.636  17.349  0.3306  0.4938  0.3892
16742TIP3    H171641   3.963   1.573  17.279 -0.9936 -1.0930  1.9759
16742TIP3    H271642   3.934   1.716  17.318  0.7285  0.1887 -1.0277
16743TIP3   OH271643   0.990   4.410  14.656 -0.1418  0.2827 -0.1009
16743TIP3    H171644   1.053   4.432  14.587 -0.4143 -0.4086 -0.5860
16743TIP3    H271645   0.928   4.350  14.613 -1.0332  0.8135  0.4046
16744TIP3   OH271646   5.309   2.329   3.788 -0.5842 -0.1974 -0.1211
16744TIP3    H171647   5.318   2.362   3.877 -0.3762  0.3243 -0.3333
16744TIP3    H271648   5.215   2.317   3.777 -0.6423  0.0802  0.0481
16745TIP3   OH271649   1.401   3.219  11.825  0.4781  0.1826 -0.4665
16745TIP3    H171650   1.404   3.263  11.741 -0.7447 -0.3242 -0.7938
16745TIP3    H271651   1.392   3.126  11.804 -1.0951  0.1564  0.1984
16746TIP3   OH271652   3.808   2.978  14.409  0.4044 -0.4455 -0.1165
16746TIP3    H171653   3.765   2.964  14.325 -1.0252 -2.3044  0.8710
16746TIP3    H271654   3.893   2.934  14.400 -0.0547 -1.2959 -0.3355
16747TIP3   OH271655   2.739   1.615   2.445  0.0147 -0.1879 -0.1203
16747TIP3    H171656   2.727   1.693   2.499 -0.7332 -0.2108 -0.2433
16747TIP3    H271657   2.833   1.596   2.451  0.4463  1.4321 -1.0868
16748TIP3   OH271658   4.648   5.084   4.675  0.5552 -0.2628  0.5709
16748TIP3    H171659   4.556   5.063   4.657  0.2387  1.9910 -0.7699
16748TIP3    H271660   4.695   5.003   4.655 -0.9785 -1.0655  0.0065
16749TIP3   OH271661   3.486   3.013   4.801 -0.0448  0.1762 -0.3076
16749TIP3    H171662   3.467   2.921   4.786  0.0746  0.0720  0.1621
16749TIP3    H271663   3.521   3.045   4.718  0.7171 -0.4126 -0.2256
16750TIP3   OH271664   1.345   2.699  16.971 -0.0804  0.1522 -0.1982
16750TIP3    H171665   1.428   2.740  16.997  0.5818 -0.9736 -0.4676
16750TIP3    H271666   1.367   2.607  16.958 -1.1859 -0.0011 -1.1536
16751TIP3   OH271667   4.360   5.435   5.496 -0.2755 -0.2620  0.2226
16751TIP3    H171668   4.442   5.474   5.526 -0.6098  1.2537 -0.7185
16751TIP3    H271669   4.317   5.405   5.576 -1.0205  3.3680  1.3908
16752TIP3   OH271670   5.645   1.981   4.075  0.0097  0.3012  0.2605
16752TIP3    H171671   5.552   2.001   4.086 -0.4673 -2.0761  1.2901
16752TIP3    H271672   5.672   2.029   3.997 -2.1206  0.9234 -0.1386
16753TIP3   OH271673   6.524   1.847   3.735 -0.4594  0.0245 -0.0521
16753TIP3    H171674   6.616   1.837   3.713 -0.1914  0.9679  0.5547
16753TIP3    H271675   6.516   1.812   3.824 -0.6849 -0.0455 -0.0993
16754TIP3   OH271676   3.270   0.269   3.437 -0.9043  0.4775 -0.1319
16754TIP3    H171677   3.212   0.267   3.513  0.3862 -3.0437  0.9481
16754TIP3    H271678   3.302   0.359   3.434  0.4138  0.4380  4.7442
16755TIP3   OH271679   3.220   0.668  16.317  0.1569  0.0388  0.1173
16755TIP3    H171680   3.265   0.733  16.371  0.6731  1.5392 -1.9549
16755TIP3    H271681   3.133   0.706  16.301 -0.2267 -0.6961  0.3895
16756TIP3   OH271682   3.184   1.750  16.046  0.0735 -0.0567  0.5361
16756TIP3    H171683   3.171   1.692  15.971 -0.4092 -1.2593  1.5069
16756TIP3    H271684   3.207   1.834  16.008 -1.3263 -0.3220 -1.0139
16757TIP3   OH271685   2.954   5.289  13.535 -0.1129  0.3075  0.3216
16757TIP3    H171686   2.907   5.206  13.546 -0.6263  0.6203  0.4982
16757TIP3    H271687   2.920   5.345  13.604  0.5948  0.5088  0.5122
16758TIP3   OH271688   6.525   4.706   2.076 -0.9515  0.0005 -0.1464
16758TIP3    H171689   6.554   4.687   1.987 -0.5192 -0.6354  0.1262
16758TIP3    H271690   6.432   4.682   2.076 -0.4204 -2.2431  0.1968
16759TIP3   OH271691   6.432   6.502   2.774 -0.0373 -0.2643 -0.2843
16759TIP3    H171692   6.404   6.564   2.707  0.4935 -0.2372 -0.4915
16759TIP3    H271693   6.520   6.475   2.745  0.8274  0.8517  1.1648
16760TIP3   OH271694   2.080   6.435  12.108  0.1654  0.0024 -0.2519
16760TIP3    H171695   2.136   6.396  12.041  0.0795  0.6203 -0.6885
16760TIP3    H271696   2.082   6.529  12.090  0.2769  0.1956  0.7190
16761TIP3   OH271697   0.599   4.844  14.847  0.1787 -0.4221  0.1801
16761TIP3    H171698   0.694   4.834  14.840  0.1771 -0.6067  0.4026
16761TIP3    H271699   0.564   4.786  14.780  0.2856  2.2726 -2.4023
16762TIP3   OH271700   5.591   6.148   4.507  1.1026 -0.5221  0.1136
16762TIP3    H171701   5.579   6.200   4.587 -0.8661 -0.6902 -0.0169
16762TIP3    H271702   5.548   6.199   4.438  1.4411 -1.0917 -0.5294
16763TIP3   OH271703   0.715   1.683  13.055 -0.1068  0.2651  0.1460
16763TIP3    H171704   0.801   1.725  13.063 -0.5017  1.1147  0.0579
16763TIP3    H271705   0.679   1.717  12.974 -0.6569  0.1498  0.3381
16764TIP3   OH271706   3.960   1.280  16.039  0.3192  0.5408 -0.2576
16764TIP3    H171707   3.972   1.216  15.970 -1.2892  0.3722 -0.4122
16764TIP3    H271708   3.955   1.228  16.120 -3.3130  0.1203 -0.5900
16765TIP3   OH271709   1.551   0.220  16.318 -0.0637 -0.5662 -0.0991
16765TIP3    H171710   1.510   0.134  16.313 -3.1769  0.6440  1.5972
16765TIP3    H271711   1.569   0.243  16.227 -1.0966 -2.1798 -0.7528
16766TIP3   OH271712   2.406   6.219  16.494 -0.0800 -0.4633 -0.7906
16766TIP3    H171713   2.353   6.279  16.547  0.2378 -2.0806  1.5299
16766TIP3    H271714   2.496   6.236  16.522  0.0142 -1.9263 -0.0970
16767TIP3   OH271715   5.777   5.980   5.584 -0.2456 -0.2409 -0.0863
16767TIP3    H171716   5.826   5.999   5.664 -0.3152 -0.3262 -0.0220
16767TIP3    H271717   5.752   5.888   5.593 -3.0763  0.5211  1.3614
16768TIP3   OH271718   6.280   1.780   2.936 -0.2531  0.0096  0.6501
16768TIP3    H171719   6.235   1.723   2.998  1.6664 -0.3253  1.8147
16768TIP3    H271720   6.362   1.803   2.979 -0.7350  3.3238  0.0254
16769TIP3   OH271721   2.039   1.598   4.673 -0.2655 -0.0236  0.8327
16769TIP3    H171722   1.980   1.582   4.599  0.2156  1.3120  0.1275
16769TIP3    H271723   2.036   1.692   4.686 -1.2707 -0.3477  3.3502
16770TIP3   OH271724   0.224   1.951   0.779 -0.0467  0.4726 -0.7329
16770TIP3    H171725   0.294   1.944   0.714 -0.0578  0.1233 -0.7102
16770TIP3    H271726   0.148   1.983   0.730 -1.2483 -3.4291 -1.8388
16771TIP3   OH271727   0.541   6.498   2.130 -0.1124 -0.3159  0.1161
16771TIP3    H171728   0.587   6.503   2.046 -0.7314  2.0620 -0.1486
16771TIP3    H271729   0.531   6.404   2.146 -0.6352 -0.8747 -2.8516
16772TIP3   OH271730   6.483   2.330   2.979 -0.3203  0.1038 -0.0851
16772TIP3    H171731   6.489   2.418   3.015  0.0889 -0.2843  0.8059
16772TIP3    H271732   6.573   2.300   2.970 -0.4704 -0.4382  0.1461
16773TIP3   OH271733   0.740   0.918  15.724  0.0859 -0.5952  0.1558
16773TIP3    H171734   0.654   0.880  15.744  0.5092 -0.4262  2.4955
16773TIP3    H271735   0.792   0.844  15.692  0.1317 -1.5209  2.2414
16774TIP3   OH271736   1.964   3.348  13.182  0.2682 -0.0166 -0.0996
16774TIP3    H171737   2.057   3.367  13.195  0.9082 -3.4897  1.6230
16774TIP3    H271738   1.924   3.369  13.266 -0.3129  0.3490 -0.4613
16775TIP3   OH271739   5.116   4.543  14.993  0.2261  0.3878  0.3296
16775TIP3    H171740   5.172   4.587  15.056  0.2648  0.6902  0.0833
16775TIP3    H271741   5.045   4.605  14.975 -1.2398 -0.6838  2.0530
16776TIP3   OH271742   0.280   6.488   0.457  0.1206  0.2712 -0.4615
16776TIP3    H171743   0.359   6.433   0.453  2.6150  3.4537  0.1630
16776TIP3    H271744   0.304   6.559   0.516 -2.8483  2.0558 -1.1968
16777TIP3   OH271745   5.342   2.933  14.926  0.2541  0.1525  0.5170
16777TIP3    H171746   5.347   2.976  15.012 -2.1947  0.4138  0.6050
16777TIP3    H271747   5.254   2.953  14.895  0.4516 -1.4895 -1.2619
16778TIP3   OH271748   2.065   2.500  12.025 -0.6156  0.1093  0.3473
16778TIP3    H171749   2.107   2.480  12.109 -1.6397  1.1499  1.1519
16778TIP3    H271750   2.039   2.592  12.033 -0.6909  0.2380 -1.1386
16779TIP3   OH271751   4.710   2.774  12.624 -0.1551  0.3094  0.0179
16779TIP3    H171752   4.722   2.868  12.635  0.2341  0.5006 -1.6657
16779TIP3    H271753   4.631   2.766  12.571  0.9184 -0.1664 -1.5858
16780TIP3   OH271754   6.431   3.842   0.583  0.2258  0.3658 -0.4442
16780TIP3    H171755   6.402   3.772   0.641  1.1898 -0.6387 -1.1371
16780TIP3    H271756   6.382   3.919   0.612 -1.1098 -0.6559  0.1200
16781TIP3   OH271757   6.147   1.694  16.866  0.6714 -0.3302  0.3983
16781TIP3    H171758   6.069   1.640  16.877  1.3147 -1.2021  0.8131
16781TIP3    H271759   6.119   1.782  16.891  0.1083 -0.8489  1.6798
16782TIP3   OH271760   5.884   5.230  10.294  0.1234  0.2421 -0.5041
16782TIP3    H171761   5.960   5.269  10.251  0.8573 -0.1687  0.3874
16782TIP3    H271762   5.874   5.279  10.375 -1.1668  0.9167 -1.0221
16783TIP3   OH271763   5.638   1.167   0.375  0.2081  0.3665  0.5519
16783TIP3    H171764   5.614   1.080   0.408 -1.5316  1.1751  1.5528
16783TIP3    H271765   5.670   1.213   0.453  0.0404  0.9853  0.2553
16784TIP3   OH271766   1.557   2.602   4.990  0.3297 -0.0832  0.3626
16784TIP3    H171767   1.625   2.615   5.057  0.9579  0.4109 -0.3627
16784TIP3    H271768   1.600   2.553   4.921  0.3426  1.3900 -0.7087
16785TIP3   OH271769   4.216   1.383  13.445 -0.9840  0.5708 -0.5112
16785TIP3    H171770   4.230   1.289  13.433  2.6075  0.7256  1.1686
16785TIP3    H271771   4.175   1.391  13.531  2.3176  0.4824  1.2598
16786TIP3   OH271772   4.714   0.763  13.315 -0.1034 -0.1099 -0.2392
16786TIP3    H171773   4.745   0.702  13.248 -0.6506 -1.4468  0.6637
16786TIP3    H271774   4.673   0.834  13.266  0.6870 -0.3926 -1.3435
16787TIP3   OH271775   5.814   1.888  12.676 -0.2310  0.6856  0.3212
16787TIP3    H171776   5.846   1.964  12.628 -2.1981  2.1442  1.2187
16787TIP3    H271777   5.820   1.914  12.768  0.9153 -1.0347  0.7843
16788TIP3   OH271778   2.359   5.255  12.933  0.2773  0.1305 -0.3735
16788TIP3    H171779   2.304   5.281  12.859 -0.7654  2.1768  1.0147
16788TIP3    H271780   2.405   5.336  12.957 -0.2645 -0.1884  1.8774
16789TIP3   OH271781   4.119   2.442  12.347 -0.4432  0.0688  0.9339
16789TIP3    H171782   4.030   2.477  12.340 -0.1647  1.2623  2.6369
16789TIP3    H271783   4.166   2.482  12.274 -0.8563  1.0270  1.1639
16790TIP3   OH271784   2.224   3.105   4.253 -0.0095 -0.5408  0.0348
16790TIP3    H171785   2.212   3.179   4.194  2.5980  1.2458  1.5597
16790TIP3    H271786   2.140   3.096   4.298 -1.2671 -0.4057 -2.1099
16791TIP3   OH271787   0.985   4.282   2.181  0.1998 -0.4099  0.6993
16791TIP3    H171788   0.984   4.339   2.105  2.8135  2.1976  2.4044
16791TIP3    H271789   0.938   4.330   2.249 -1.4004 -2.3283  1.0459
16792TIP3   OH271790   0.567   1.485  12.271 -0.4806  0.0712  0.5043
16792TIP3    H171791   0.607   1.404  12.239 -2.9273 -1.4142  0.9474
16792TIP3    H271792   0.606   1.499  12.357  0.5151 -0.2096  0.1060
16793TIP3   OH271793   4.715   3.947  12.057  0.1337  0.1751  0.4139
16793TIP3    H171794   4.739   4.027  12.011 -1.2976  0.0090 -0.6875
16793TIP3    H271795   4.628   3.965  12.092  0.3181 -0.4704  1.2377
16794TIP3   OH271796   1.614   3.391  13.918  0.2172  0.8305 -0.1777
16794TIP3    H171797   1.661   3.456  13.865  0.3076  0.4722 -0.5479
16794TIP3    H271798   1.681   3.327  13.943 -0.3516 -0.7397 -2.3257
16795TIP3   OH271799   5.761   3.404   1.316  0.6952  0.3150  0.3937
16795TIP3    H171800   5.751   3.401   1.221 -0.2437  0.4162  0.4800
16795TIP3    H271801   5.673   3.390   1.350  1.1068 -0.2568  1.2643
16796TIP3   OH271802   1.400   3.011  13.678  0.3353  0.5392  0.3318
16796TIP3    H171803   1.487   2.973  13.680  1.2636  2.4564 -1.0345
16796TIP3    H271804   1.414   3.105  13.689 -1.5351  0.9352 -0.2877
16797TIP3   OH271805   2.585   1.610  15.969  0.2425 -0.3171 -0.1584
16797TIP3    H171806   2.523   1.663  15.918  1.4399 -0.0110 -1.3558
16797TIP3    H271807   2.561   1.520  15.949 -0.1074 -0.2066 -0.2474
16798TIP3   OH271808   0.902   4.352   0.958  0.2217  0.4023  0.6005
16798TIP3    H171809   0.855   4.276   0.993  0.3747  0.0431  0.0511
16798TIP3    H271810   0.920   4.407   1.034 -2.4456  1.3380  0.6674
16799TIP3   OH271811   1.130   6.444   3.038  0.8930 -0.4840 -0.1676
16799TIP3    H171812   1.052   6.418   2.990 -0.0667 -2.1491  2.1071
16799TIP3    H271813   1.137   6.539   3.024 -0.9958 -0.4578 -1.1677
16800TIP3   OH271814   6.039   1.285  16.046  0.0843  0.0531  0.0342
16800TIP3    H171815   5.952   1.307  16.080 -0.1563 -0.8935  0.0515
16800TIP3    H271816   6.039   1.319  15.957  0.0131  0.8197  0.3186
16801TIP3   OH271817   0.959   2.102  13.633  0.5098  0.2109 -0.3397
16801TIP3    H171818   0.957   2.197  13.647  2.2032  0.2579 -0.2565
16801TIP3    H271819   0.962   2.092  13.538  1.2410  0.2825 -0.3292
16802TIP3   OH271820   4.345   0.429  13.330 -0.3140  0.2929  0.5328
16802TIP3    H171821   4.379   0.441  13.241 -1.9259  0.6937 -0.0684
16802TIP3    H271822   4.404   0.365  13.369  0.4399  0.1077 -0.8196
16803TIP3   OH271823   2.037   6.504  12.389  0.1127  0.1419  0.0104
16803TIP3    H171824   1.977   6.525  12.317 -0.9855 -0.4644  0.7246
16803TIP3    H271825   2.052   6.410  12.381 -0.6840 -0.0898  1.0544
16804TIP3   OH271826   3.868   2.950  12.182  0.2034 -0.2315 -0.1148
16804TIP3    H171827   3.943   2.927  12.127  0.4450 -1.5365  0.7255
16804TIP3    H271828   3.820   2.868  12.192 -1.0016  0.4527 -0.1210
16805TIP3   OH271829   3.649   1.331   6.224 -0.6946 -0.2621 -0.1826
16805TIP3    H171830   3.621   1.288   6.305 -0.4096  0.4033  0.2816
16805TIP3    H271831   3.738   1.361   6.242 -1.2435  1.4123 -0.1083
16806TIP3   OH271832   5.781   5.580  14.851 -0.0281  0.1993 -0.0766
16806TIP3    H171833   5.835   5.659  14.850  0.3993 -0.0288 -2.6700
16806TIP3    H271834   5.706   5.603  14.905  1.4117  1.3951  1.5182
16807TIP3   OH271835   4.954   0.268  11.792 -0.2076 -0.3987 -0.0323
16807TIP3    H171836   4.956   0.175  11.812  0.0247 -0.7211 -1.4742
16807TIP3    H271837   5.009   0.278  11.714  1.3243  1.2257  1.1677
16808TIP3   OH271838   6.539   6.218  12.886 -0.0691  0.2467  0.0835
16808TIP3    H171839   6.523   6.128  12.858 -0.2282  0.1671  0.4379
16808TIP3    H271840   6.476   6.235  12.955 -0.9969  1.1090 -0.9357
16809TIP3   OH271841   2.335   5.860  15.710  0.5640 -0.1839  0.2225
16809TIP3    H171842   2.423   5.884  15.681  0.7219 -0.9677  0.0331
16809TIP3    H271843   2.281   5.869  15.631  0.2687  1.2549  0.5650
16810TIP3   OH271844   0.162   3.335   0.420 -0.6251 -0.0951 -0.5700
16810TIP3    H171845   0.123   3.327   0.334 -0.9125 -2.0171 -0.3028
16810TIP3    H271846   0.253   3.359   0.403 -0.3195 -1.7573 -1.5137
16811TIP3   OH271847   3.594   6.643   5.263  0.1976 -0.6149  0.2245
16811TIP3    H171848   3.578   6.606   5.176 -2.1207 -0.1359  0.3903
16811TIP3    H271849   3.541   6.590   5.322 -0.3707  0.7106  0.9527
16812TIP3   OH271850   1.754   4.789  15.872 -0.2749 -0.0555  0.1543
16812TIP3    H171851   1.770   4.881  15.854  0.8786  0.1377  1.9321
16812TIP3    H271852   1.662   4.775  15.850 -0.6133  1.6561  0.3967
16813TIP3   OH271853   1.693   4.744  16.763  0.1035 -0.0467  0.1614
16813TIP3    H171854   1.704   4.747  16.858  0.2849 -1.4747  0.1975
16813TIP3    H271855   1.654   4.659  16.745  0.0500  0.2073 -1.0509
16814TIP3   OH271856   2.447   0.298  16.761 -0.3338 -0.1657 -0.0515
16814TIP3    H171857   2.488   0.212  16.756  0.3911  0.2094 -0.7583
16814TIP3    H271858   2.502   0.347  16.822 -0.7075 -0.1764  0.2999
16815TIP3   OH271859   5.379   4.576  14.235  0.0261  0.4087  0.1474
16815TIP3    H171860   5.340   4.663  14.248 -0.6260  0.3995 -1.4489
16815TIP3    H271861   5.392   4.570  14.141  0.3707 -1.1081  0.2682
16816TIP3   OH271862   3.966   2.357   2.540  0.3960  0.0754 -0.6727
16816TIP3    H171863   4.026   2.414   2.589  1.4401  0.5419 -2.3904
16816TIP3    H271864   3.948   2.285   2.599  1.0188  0.9660  0.6530
16817TIP3   OH271865   3.125   3.573  11.383  0.3538  0.4483 -0.3907
16817TIP3    H171866   3.194   3.512  11.409  0.9440  1.7757  1.3605
16817TIP3    H271867   3.157   3.658  11.413 -1.1704  1.3819 -1.3358
16818TIP3   OH271868   3.883   3.977   0.074 -0.8174 -0.2121 -0.2056
16818TIP3    H171869   3.965   3.928   0.072  1.9163  3.9409 -0.1950
16818TIP3    H271870   3.871   4.008  -0.016 -1.8571  0.1066  0.0223
16819TIP3   OH271871   6.254   5.441   2.884  0.2763 -0.3499  0.4210
16819TIP3    H171872   6.235   5.384   2.958 -3.1458  0.1924  0.1319
16819TIP3    H271873   6.179   5.431   2.825  1.4812  1.4002 -1.5814
16820TIP3   OH271874   4.261   5.753  10.557  0.3880 -0.1104  0.1937
16820TIP3    H171875   4.238   5.717  10.471 -0.0096  1.4146 -0.3636
16820TIP3    H271876   4.330   5.695  10.589 -1.7121 -2.6894  0.3571
16821TIP3   OH271877   0.426   2.621  15.175 -0.2381  0.0953  0.0640
16821TIP3    H171878   0.342   2.667  15.182 -0.0445  0.8530 -2.0738
16821TIP3    H271879   0.486   2.673  15.230 -0.5383  1.1732 -0.5986
16822TIP3   OH271880   0.944   2.862   0.722 -0.1535  0.0504 -0.2550
16822TIP3    H171881   0.975   2.793   0.781 -0.0483  0.2943 -0.0261
16822TIP3    H271882   0.921   2.815   0.642  0.7640 -0.1481 -0.4153
16823TIP3   OH271883   3.754   5.341  10.920  0.3207 -0.5997  0.3315
16823TIP3    H171884   3.765   5.408  10.989  1.3149 -0.7422  0.3284
16823TIP3    H271885   3.687   5.282  10.955  0.5911 -0.4990  1.0495
16824TIP3   OH271886   0.506   5.265  11.259 -0.0478  0.7224 -0.0424
16824TIP3    H171887   0.541   5.260  11.171  0.8441  1.9473  0.2183
16824TIP3    H271888   0.568   5.215  11.313 -0.0790  0.7744  0.0421
16825TIP3   OH271889   0.921   5.126   3.098 -0.0754 -0.0905 -0.4773
16825TIP3    H171890   1.017   5.119   3.094 -0.0124 -1.1356  1.4728
16825TIP3    H271891   0.905   5.192   3.165 -0.7471  0.6469 -1.3411
16826TIP3   OH271892   6.632   2.842  15.884  0.4532  0.3381  0.0479
16826TIP3    H171893   6.575   2.833  15.807 -0.9247  0.4760  1.0258
16826TIP3    H271894   6.719   2.815  15.852 -0.4927 -1.7526 -1.0161
16827TIP3   OH271895   2.800   4.134   2.537  0.4890  0.6465 -0.0618
16827TIP3    H171896   2.723   4.187   2.515  0.6990  0.8647 -0.2847
16827TIP3    H271897   2.874   4.185   2.503  0.7201  0.3709  0.0260
16828TIP3   OH271898   4.648   2.543   0.132 -0.2697  0.1608 -0.0143
16828TIP3    H171899   4.668   2.476   0.066 -0.5091  1.1301 -1.1014
16828TIP3    H271900   4.734   2.567   0.167 -0.1679 -0.5897  0.2834
16829TIP3   OH271901   1.583   4.545  15.841  0.1121  0.1653  0.0331
16829TIP3    H171902   1.575   4.548  15.936  0.7569  2.7286  0.0707
16829TIP3    H271903   1.537   4.622  15.810 -3.8922 -2.7432 -2.1904
16830TIP3   OH271904   2.732   1.276  14.729 -0.1367 -0.1653 -0.2529
16830TIP3    H171905   2.804   1.219  14.704  0.2871  0.6897 -1.0432
16830TIP3    H271906   2.701   1.313  14.647 -3.0223 -2.2411 -0.2400
16831TIP3   OH271907   3.113   5.232  16.761 -0.6319 -0.1865  0.8906
16831TIP3    H171908   3.089   5.206  16.850  1.2490 -1.8071  0.9848
16831TIP3    H271909   3.063   5.174  16.705 -0.1205 -0.7181  0.9729
16832TIP3   OH271910   4.293   0.689  14.242  0.6372 -0.3326  0.4245
16832TIP3    H171911   4.225   0.649  14.296 -0.0612 -0.0319 -0.2101
16832TIP3    H271912   4.256   0.689  14.154  1.6196 -0.5041 -0.0005
16833TIP3   OH271913   2.545   2.298   3.311 -0.4188  0.1318  0.1042
16833TIP3    H171914   2.516   2.206   3.314 -0.8807  0.2355 -0.8593
16833TIP3    H271915   2.466   2.349   3.330 -0.2032  0.3372  0.4530
16834TIP3   OH271916   4.251   4.626  16.323 -0.1557 -0.2098  0.8675
16834TIP3    H171917   4.342   4.635  16.352 -0.4145 -0.9992  1.9902
16834TIP3    H271918   4.234   4.532  16.328 -0.3144 -0.4049 -1.6747
16835TIP3   OH271919   2.986   0.752  12.188 -0.9080 -0.3988  0.1165
16835TIP3    H171920   3.054   0.746  12.255 -0.5339 -1.0650 -0.3125
16835TIP3    H271921   2.965   0.661  12.166 -0.2370 -0.2125 -1.4399
16836TIP3   OH271922   1.376   4.330  17.296  0.7995  0.4078  0.0779
16836TIP3    H171923   1.302   4.360  17.244  1.7728  0.5063 -1.3302
16836TIP3    H271924   1.361   4.365  17.384 -1.0325  0.0258 -0.0558
16837TIP3   OH271925   2.404   2.042   3.293  0.4090  0.2365 -0.1963
16837TIP3    H171926   2.423   2.008   3.205  0.3431 -1.4162  0.3769
16837TIP3    H271927   2.315   2.076   3.287  0.3226 -0.0648 -0.7261
16838TIP3   OH271928   0.815   6.393   0.464  0.2400 -0.1868 -0.3913
16838TIP3    H171929   0.888   6.335   0.442  1.2345  0.7317  0.3340
16838TIP3    H271930   0.839   6.477   0.426  0.7918  0.7724  1.8888
16839TIP3   OH271931   1.220   5.550  16.227 -0.6092  0.1929 -0.0339
16839TIP3    H171932   1.212   5.584  16.317 -0.7830 -1.7352  0.7297
16839TIP3    H271933   1.249   5.459  16.239 -1.4046 -0.3429 -1.9086
16840TIP3   OH271934   4.268   1.371  14.120 -0.0465  0.4985 -0.1244
16840TIP3    H171935   4.359   1.342  14.127  0.3567  1.5231 -0.9056
16840TIP3    H271936   4.225   1.303  14.068  0.7100  0.9145 -1.3158
16841TIP3   OH271937   2.490   3.198   2.618  0.1010 -0.4829  0.4973
16841TIP3    H171938   2.527   3.142   2.550 -1.2800 -2.1329  1.0134
16841TIP3    H271939   2.508   3.152   2.700  0.3717  0.6854  1.1176
16842TIP3   OH271940   4.262   5.171   5.076 -0.1571  0.3526 -0.4884
16842TIP3    H171941   4.337   5.138   5.027 -0.5394  1.0794 -1.6152
16842TIP3    H271942   4.195   5.104   5.065 -0.7341  1.1650 -2.2636
16843TIP3   OH271943   5.693   3.203  17.348 -0.0376  0.3429 -0.1344
16843TIP3    H171944   5.755   3.264  17.387 -0.2798  0.2676  0.3778
16843TIP3    H271945   5.643   3.256  17.286 -0.1731  0.6400  0.2290
16844TIP3   OH271946   2.914   5.255  13.815  0.5097 -0.2662 -0.1130
16844TIP3    H171947   2.887   5.224  13.901 -0.5427 -1.1455 -0.7413
16844TIP3    H271948   2.976   5.189  13.784  0.9474  0.0901 -0.0134
16845TIP3   OH271949   2.748   3.100   6.156 -0.0645  0.7754  0.1573
16845TIP3    H171950   2.657   3.130   6.165 -0.1607  0.6774 -0.4634
16845TIP3    H271951   2.742   3.021   6.102  0.0670 -1.0066  2.5828
16846TIP3   OH271952   2.788   2.402  11.613  0.2348  0.4686 -0.3650
16846TIP3    H171953   2.755   2.314  11.595 -2.5180  0.9846  1.5522
16846TIP3    H271954   2.876   2.388  11.650 -0.4282 -1.5313  0.5585
16847TIP3   OH271955   1.883   3.894   0.178  0.2635  0.0840 -0.3678
16847TIP3    H171956   1.844   3.813   0.146 -3.2183  2.3905 -2.6828
16847TIP3    H271957   1.950   3.915   0.114 -1.6101  0.9193 -2.1781
16848TIP3   OH271958   0.667   5.410  14.600 -0.3039  0.4122 -0.1540
16848TIP3    H171959   0.718   5.489  14.616 -0.4191  0.5594 -0.5094
16848TIP3    H271960   0.653   5.409  14.505  0.7401 -0.6671 -0.3148
16849TIP3   OH271961   5.083   3.064  14.807 -0.2895  0.9905  0.1844
16849TIP3    H171962   5.074   3.159  14.810 -2.0753  0.9823 -2.0988
16849TIP3    H271963   5.091   3.044  14.714  0.4856 -1.0932  0.6446
16850TIP3   OH271964   4.834   6.216  13.633  0.2901 -0.8196  0.3855
16850TIP3    H171965   4.803   6.129  13.608 -1.3441 -0.1641  0.0330
16850TIP3    H271966   4.786   6.276  13.576  0.7930  0.3692  1.1820
16851TIP3   OH271967   0.684   1.379   0.740  0.2399 -0.3019  0.2798
16851TIP3    H171968   0.692   1.456   0.796 -0.0156 -1.0777  1.4203
16851TIP3    H271969   0.618   1.325   0.782 -0.9516 -0.3187 -1.5109
16852TIP3   OH271970   2.970   5.598  13.323 -0.2418 -0.2129 -0.3931
16852TIP3    H171971   2.997   5.585  13.414 -0.1004 -0.9025 -0.5278
16852TIP3    H271972   3.047   5.635  13.280  0.7489 -2.6172 -0.8882
16853TIP3   OH271973   2.848   4.936   0.851  0.2269 -0.0825  0.5522
16853TIP3    H171974   2.806   5.021   0.845 -0.3205 -0.3520  0.4668
16853TIP3    H271975   2.813   4.897   0.931 -1.0662 -1.0153 -0.4049
16854TIP3   OH271976   2.142   6.139   3.533 -0.4296  0.0116  0.3561
16854TIP3    H171977   2.062   6.091   3.514 -1.3785  1.3002  0.9966
16854TIP3    H271978   2.115   6.212   3.587  0.6119  2.4721 -2.1838
16855TIP3   OH271979   3.852   3.316   3.513  0.4803  0.4251  0.5043
16855TIP3    H171980   3.934   3.281   3.548 -0.2745 -1.0978  0.8576
16855TIP3    H271981   3.865   3.410   3.510  1.7327  0.3358  1.9260
16856TIP3   OH271982   3.543   6.048   2.674 -0.1255  0.3800  0.1542
16856TIP3    H171983   3.583   5.993   2.742 -0.5909  1.1971  1.1171
16856TIP3    H271984   3.616   6.071   2.617  0.1512 -0.8827 -0.0320
16857TIP3   OH271985   5.647   5.865  17.383 -0.0285 -0.9127  0.2193
16857TIP3    H171986   5.569   5.853  17.328 -0.7435  0.1783  0.9340
16857TIP3    H271987   5.625   5.822  17.465  0.4607 -1.3170  0.1364
16858TIP3   OH271988   1.695   4.512   3.947 -0.0416  0.2693  0.1510
16858TIP3    H171989   1.680   4.478   4.035  0.4301 -0.8964 -0.2061
16858TIP3    H271990   1.780   4.556   3.953  0.8231 -1.2856 -0.1050
16859TIP3   OH271991   4.665   4.490  14.996  0.5282 -0.7885 -0.1566
16859TIP3    H171992   4.597   4.542  14.954  0.0504  0.7408  2.2830
16859TIP3    H271993   4.742   4.499  14.939 -0.9841 -1.8744 -2.5265
16860TIP3   OH271994   0.268   5.761   4.656  0.0497 -0.6784  0.3846
16860TIP3    H171995   0.257   5.733   4.565  1.8002 -1.2448  0.3015
16860TIP3    H271996   0.266   5.680   4.706 -0.2835 -0.4245  0.7884
16861TIP3   OH271997   2.912   6.465  14.242 -0.0392 -0.3240 -0.3447
16861TIP3    H171998   2.845   6.397  14.239 -1.1005  0.6016  1.1104
16861TIP3    H271999   2.867   6.544  14.210  0.9775 -0.1318 -1.3772
16862TIP3   OH272000   3.967   3.745   2.967 -0.2349 -0.1373 -0.4498
16862TIP3    H172001   4.062   3.754   2.972 -0.3213  3.3086 -2.3637
16862TIP3    H272002   3.952   3.679   2.900  0.8467  0.5420 -1.3908
16863TIP3   OH272003   2.684   0.582   3.187 -0.1214 -0.4418 -0.6757
16863TIP3    H172004   2.676   0.487   3.178 -0.2541 -0.2629 -2.9204
16863TIP3    H272005   2.601   0.616   3.154  0.8166  0.5300 -2.1100
16864TIP3   OH272006   2.477   2.408  12.232 -0.6205  0.6125 -0.2595
16864TIP3    H172007   2.408   2.355  12.190  0.1335  0.0768 -0.8548
16864TIP3    H272008   2.522   2.449  12.158 -0.0810  0.6774  0.1071
16865TIP3   OH272009   3.112   6.342   1.117  0.5613  0.3297  0.2679
16865TIP3    H172010   3.205   6.361   1.122  0.5992  0.2464 -0.1264
16865TIP3    H272011   3.069   6.427   1.129  0.6066  0.0870  2.8749
16866TIP3   OH272012   3.365   6.130  16.568 -0.2261  0.0100 -0.6950
16866TIP3    H172013   3.409   6.203  16.612  0.2910 -1.1013  0.7002
16866TIP3    H272014   3.325   6.081  16.639 -1.3256 -0.5779 -1.7059
16867TIP3   OH272015   5.031   4.609   3.941  0.5826 -0.4142 -0.7516
16867TIP3    H172016   5.124   4.631   3.945  1.1030 -2.5046  2.0470
16867TIP3    H272017   4.987   4.694   3.938  2.5441  0.6823 -0.4323
16868TIP3   OH272018   0.059   1.345   1.637 -0.4450 -0.5556 -0.0878
16868TIP3    H172019   0.081   1.418   1.580 -0.5219 -0.3206  0.1797
16868TIP3    H272020  -0.037   1.344   1.638 -0.5407  1.2958  2.3299
16869TIP3   OH272021   0.044   3.789  11.160 -0.6719  0.2366  0.2763
16869TIP3    H172022   0.116   3.762  11.218 -0.9403  0.3078  0.6513
16869TIP3    H272023  -0.006   3.851  11.213  1.0797  3.1599 -1.2420
16870TIP3   OH272024   4.650   2.478  15.789 -0.2432 -0.7121  0.0558
16870TIP3    H172025   4.624   2.568  15.768  0.3919 -1.1190 -2.9669
16870TIP3    H272026   4.712   2.488  15.861 -1.0123  1.1715  0.5215
16871TIP3   OH272027   0.773   1.935   6.447 -0.2590  0.9045 -0.2147
16871TIP3    H172028   0.862   1.950   6.479 -0.6044  2.0793  0.2549
16871TIP3    H272029   0.717   1.970   6.516 -1.0999  0.1211 -0.4788
16872TIP3   OH272030   4.517   5.339  17.256  0.1637 -0.4170  0.0048
16872TIP3    H172031   4.435   5.389  17.258 -0.0506 -0.4801 -2.8846
16872TIP3    H272032   4.490   5.248  17.269 -0.0335 -0.2723  0.6072
16873TIP3   OH272033   5.393   2.722  17.170 -0.4823  0.4141  0.9120
16873TIP3    H172034   5.415   2.696  17.081 -1.3217  0.8724  0.5605
16873TIP3    H272035   5.316   2.778  17.161  1.0333  2.7611  1.6633
16874TIP3   OH272036   1.575   3.617  16.719  0.6649  0.0969  0.0254
16874TIP3    H172037   1.641   3.635  16.652  1.0743 -0.8204  0.1730
16874TIP3    H272038   1.584   3.524  16.738 -0.6856 -0.0519  0.0370
16875TIP3   OH272039   4.183   0.583  13.662  0.1196 -0.8115  0.0468
16875TIP3    H172040   4.108   0.572  13.603  0.3381 -0.0276 -0.3931
16875TIP3    H272041   4.162   0.529  13.737 -2.1453  1.3474  1.1336
16876TIP3   OH272042   4.692   1.258  16.878  0.1648 -0.7244 -0.3549
16876TIP3    H172043   4.607   1.301  16.876  0.6455  0.3247  0.5083
16876TIP3    H272044   4.718   1.251  16.787  1.7275  4.3501 -0.5831
16877TIP3   OH272045   2.402   6.269  13.791 -0.4418  0.0104 -0.6608
16877TIP3    H172046   2.481   6.315  13.765 -0.8323  0.4544 -1.0966
16877TIP3    H272047   2.411   6.182  13.753 -0.6839  0.4266 -1.7117
16878TIP3   OH272048   0.054   0.339  16.819 -0.3679  0.1467  0.4009
16878TIP3    H172049   0.074   0.253  16.854 -0.0581  0.7515  1.7719
16878TIP3    H272050   0.129   0.361  16.764 -0.3982 -0.4002  0.1300
16879TIP3   OH272051   3.304   0.375   2.813  0.3715 -0.5903  0.2266
16879TIP3    H172052   3.210   0.392   2.822  0.2659 -0.1057 -1.3382
16879TIP3    H272053   3.331   0.431   2.740  2.2895  0.6908  1.8236
16880TIP3   OH272054   2.789   0.718   5.928  0.2865  0.2045 -0.5852
16880TIP3    H172055   2.741   0.771   5.992 -0.2625 -0.0817 -0.7565
16880TIP3    H272056   2.845   0.660   5.980 -2.0550 -1.8820 -0.2305
16881TIP3   OH272057   1.676   6.594   6.243 -0.0742 -0.2225  0.4011
16881TIP3    H172058   1.736   6.637   6.183  0.1986 -1.8783 -0.5835
16881TIP3    H272059   1.712   6.506   6.255  0.0542  0.1341  3.2932
16882TIP3   OH272060   0.533   3.802   0.084  0.0416  0.4206 -0.5301
16882TIP3    H172061   0.585   3.722   0.083 -1.2371 -0.4461 -0.5458
16882TIP3    H272062   0.476   3.795   0.008  0.7815  1.9752 -1.2695
16883TIP3   OH272063   3.633   4.911  14.372  0.2171 -0.0706 -0.1406
16883TIP3    H172064   3.720   4.899  14.333  1.9047  2.4086  2.3931
16883TIP3    H272065   3.611   4.824  14.407  2.4001 -0.4638  0.4253
16884TIP3   OH272066   6.245   3.341  10.934 -0.2259 -0.6514 -0.2737
16884TIP3    H172067   6.158   3.379  10.939  0.0401  0.0198 -0.5684
16884TIP3    H272068   6.282   3.376  10.853  0.4340 -0.6550  0.0148
16885TIP3   OH272069   4.698   1.233  13.671  0.4642  0.2406  0.4301
16885TIP3    H172070   4.640   1.169  13.631  1.2925 -0.0242 -0.3905
16885TIP3    H272071   4.649   1.315  13.668 -0.8851 -0.4302  2.1064
16886TIP3   OH272072   0.684   4.263  16.695  0.2494  0.0846  0.1209
16886TIP3    H172073   0.683   4.250  16.790  1.1785 -0.2467  0.0896
16886TIP3    H272074   0.775   4.252  16.670 -0.3820 -3.4106 -1.2721
16887TIP3   OH272075   0.039   5.790  13.944 -0.5674 -0.3055  0.3950
16887TIP3    H172076   0.070   5.878  13.963 -0.4497  0.0830 -1.4615
16887TIP3    H272077   0.028   5.749  14.030 -0.4974  1.4629  1.2731
16888TIP3   OH272078   5.705   0.453   2.899  0.1589  0.3520 -0.0004
16888TIP3    H172079   5.800   0.445   2.906  0.2294  0.6200 -0.6344
16888TIP3    H272080   5.678   0.490   2.984  0.6324  0.4152  0.1244
16889TIP3   OH272081   2.550   2.198  13.171 -0.8577  0.0553  0.1409
16889TIP3    H172082   2.606   2.220  13.246  2.9119 -1.7705 -1.8633
16889TIP3    H272083   2.580   2.256  13.101 -0.8752 -1.5111 -1.2132
16890TIP3   OH272084   6.423   3.377  15.431  0.0972  0.4671 -0.6117
16890TIP3    H172085   6.458   3.441  15.370  1.6336 -1.2620 -1.6633
16890TIP3    H272086   6.443   3.411  15.518  1.7066  0.9907 -1.1637
16891TIP3   OH272087   4.547   3.520   5.592  0.0794 -0.7268 -0.1331
16891TIP3    H172088   4.527   3.498   5.683 -3.4087  1.4278 -0.2209
16891TIP3    H272089   4.574   3.612   5.595  1.4124 -1.0520 -1.1702
16892TIP3   OH272090   2.824   1.297  15.374  0.5659 -0.2796 -0.5974
16892TIP3    H172091   2.822   1.376  15.429  1.5795 -0.2149 -0.6310
16892TIP3    H272092   2.892   1.315  15.309 -0.0023 -0.7209 -1.3289
16893TIP3   OH272093   0.589   5.929  10.039 -0.4900 -0.1312 -0.6113
16893TIP3    H172094   0.582   5.954  10.131  2.2388  1.7909 -0.8149
16893TIP3    H272095   0.509   5.962   9.998 -1.1426  0.1238  0.8274
16894TIP3   OH272096   1.882   5.289  11.268 -0.0497  0.5175  0.0388
16894TIP3    H172097   1.858   5.315  11.357  1.8626 -0.7987  1.0237
16894TIP3    H272098   1.976   5.306  11.263 -0.4052  2.4405 -2.4778
16895TIP3   OH272099   4.192   3.675   4.709  0.1049  0.2735  0.9260
16895TIP3    H172100   4.103   3.701   4.685  0.1370  1.3388  1.8860
16895TIP3    H272101   4.180   3.622   4.788  0.0173 -3.0037 -1.0686
16896TIP3   OH272102   0.919   0.132   5.865 -0.7184  0.4433  0.7398
16896TIP3    H172103   0.854   0.064   5.850  0.2087 -0.0733 -1.2415
16896TIP3    H272104   0.995   0.086   5.900 -0.5222  0.6502  0.5863
16897TIP3   OH272105   4.676   0.794   0.358 -0.2957 -0.0148 -0.4401
16897TIP3    H172106   4.657   0.712   0.312  2.7483 -0.3580 -1.2780
16897TIP3    H272107   4.765   0.783   0.392 -0.9416  1.7925  2.1658
16898TIP3   OH272108   5.932   2.092   5.154 -0.2669 -0.0836 -0.4092
16898TIP3    H172109   5.933   2.114   5.247  2.3355 -1.5767  0.0153
16898TIP3    H272110   5.910   2.175   5.111  0.1880  1.0815  1.4563
16899TIP3   OH272111   2.414   1.311   3.061  0.4880 -0.1304  0.5146
16899TIP3    H172112   2.480   1.341   3.124  1.2212  0.0565 -0.3326
16899TIP3    H272113   2.455   1.237   3.017  0.7463  0.9483 -1.1055
16900TIP3   OH272114   3.323   3.515   3.850  0.2412  0.0028 -0.4148
16900TIP3    H172115   3.283   3.589   3.896  0.8534  1.1123 -1.6007
16900TIP3    H272116   3.408   3.548   3.820  0.1462 -0.8785 -1.7547
16901TIP3   OH272117   2.403   5.433  16.318  0.1345  0.2052 -0.2915
16901TIP3    H172118   2.410   5.362  16.381 -1.0263  2.6998  2.9138
16901TIP3    H272119   2.312   5.463  16.325 -1.1850 -1.2954 -5.6464
16902TIP3   OH272120   5.769   5.445  16.904  0.1354 -0.2140 -0.0056
16902TIP3    H172121   5.678   5.465  16.881  0.2513 -0.7085 -0.9326
16902TIP3    H272122   5.777   5.351  16.890  1.0692 -0.0144 -0.9630
16903TIP3   OH272123   3.308   0.811   5.367 -0.4782  0.1307  0.1098
16903TIP3    H172124   3.235   0.750   5.357 -0.5708  0.4196 -1.1402
16903TIP3    H272125   3.362   0.773   5.436 -0.7628 -1.1455 -0.3445
16904TIP3   OH272126   5.957   5.624   1.849 -0.1018 -0.0070  0.2355
16904TIP3    H172127   6.000   5.538   1.852 -1.3978 -0.6577  0.7201
16904TIP3    H272128   5.992   5.670   1.925 -1.6764 -1.2640  1.8160
16905TIP3   OH272129   4.350   4.286  12.469  0.4070 -0.7067 -0.1502
16905TIP3    H172130   4.344   4.260  12.560  0.4408 -1.7387 -0.4318
16905TIP3    H272131   4.438   4.321  12.459  1.1911 -2.6088 -0.2777
16906TIP3   OH272132   1.842   4.751  17.105  0.9702  0.4625 -0.2964
16906TIP3    H172133   1.881   4.792  17.028  2.2498  0.1183  0.1512
16906TIP3    H272134   1.809   4.667  17.074 -1.9474  1.8269 -1.2927
16907TIP3   OH272135   6.689   2.271   5.481  0.4401  0.2587  0.1810
16907TIP3    H172136   6.768   2.269   5.535 -0.0222 -0.3669  0.8424
16907TIP3    H272137   6.628   2.326   5.530 -0.9316 -2.4298  1.6896
16908TIP3   OH272138   0.895   4.877  15.253 -0.2838  0.2886 -0.1339
16908TIP3    H172139   0.901   4.967  15.223  2.8232 -0.0651 -0.8685
16908TIP3    H272140   0.949   4.827  15.192 -0.1110 -1.7025  1.5250
16909TIP3   OH272141   5.783   6.190   4.705 -0.3965  0.4373  0.0924
16909TIP3    H172142   5.860   6.175   4.760 -0.8651  1.0264  0.9258
16909TIP3    H272143   5.806   6.150   4.621 -1.0174 -3.8113  1.6791
16910TIP3   OH272144   0.621   2.878  11.341 -0.2907  0.5507  0.6230
16910TIP3    H172145   0.649   2.953  11.394  1.9195  0.7277 -0.6543
16910TIP3    H272146   0.686   2.810  11.360 -0.7811 -0.1530 -0.1563
16911TIP3   OH272147   3.939   5.703  16.335  0.0468  0.7622  0.7885
16911TIP3    H172148   3.921   5.684  16.427  1.5454  0.3233  1.0262
16911TIP3    H272149   3.959   5.617  16.297 -0.0769  1.0039  0.1680
16912TIP3   OH272150   4.166   4.093  12.419  0.2750 -0.3435 -0.3062
16912TIP3    H172151   4.230   4.164  12.416 -1.3794  1.3336  1.3240
16912TIP3    H272152   4.132   4.095  12.508 -2.3116 -0.8616 -1.1820
16913TIP3   OH272153   3.135   4.191  14.540 -0.5512 -0.3060  0.2710
16913TIP3    H172154   3.103   4.124  14.601 -0.1997 -0.9087 -0.1883
16913TIP3    H272155   3.104   4.163  14.455  0.1764 -0.2657 -0.0207
16914TIP3   OH272156   4.015   4.276  13.618  0.1504  0.2033 -0.3672
16914TIP3    H172157   3.992   4.244  13.705  0.9373  2.2131  0.6591
16914TIP3    H272158   3.932   4.280  13.571 -0.9014  2.3710  1.4894
16915TIP3   OH272159   0.803   5.212  11.159 -0.1075 -0.5259 -0.4044
16915TIP3    H172160   0.880   5.205  11.102  0.0032  0.3542 -0.3816
16915TIP3    H272161   0.729   5.213  11.098  0.0189  0.5614 -0.5604
16916TIP3   OH272162   1.787   2.186  14.758 -0.1918 -0.2227  0.3730
16916TIP3    H172163   1.843   2.119  14.799 -0.0634 -0.0241  0.5242
16916TIP3    H272164   1.848   2.249  14.721 -0.2476  1.5473  3.0261
16917TIP3   OH272165   2.056   4.656  15.905 -0.2057  0.1299  0.1989
16917TIP3    H172166   2.071   4.586  15.841 -0.5536  0.3919 -0.1782
16917TIP3    H272167   1.963   4.678  15.895  0.2718  1.8373 -0.9316
16918TIP3   OH272168   5.879   2.716  10.843  0.2235  0.0626 -0.3027
16918TIP3    H172169   5.942   2.770  10.890  1.3900 -1.1584 -0.4017
16918TIP3    H272170   5.797   2.764  10.849  0.8682  1.0622  0.9619
16919TIP3   OH272171   3.554   5.623  12.533 -0.5355 -0.1741  0.1348
16919TIP3    H172172   3.542   5.654  12.443  1.1296 -1.1872 -0.4820
16919TIP3    H272173   3.602   5.694  12.576  1.1264 -0.8139 -0.5922
16920TIP3   OH272174   1.846   4.877  14.768  0.4445  0.3884  0.5479
16920TIP3    H172175   1.802   4.866  14.853 -0.0417  0.1191  0.2679
16920TIP3    H272176   1.887   4.963  14.773  2.7457 -0.7123  2.1015
16921TIP3   OH272177   1.101   4.287  16.033  0.0081  0.3928  1.1740
16921TIP3    H172178   1.159   4.325  15.967  0.9284 -0.3991  1.5178
16921TIP3    H272179   1.128   4.195  16.039 -1.2274  0.0265  1.3990
16922TIP3   OH272180   4.396   6.105  16.808  0.3444 -0.1107  0.3573
16922TIP3    H172181   4.325   6.168  16.792  1.5263  1.1429 -0.1257
16922TIP3    H272182   4.402   6.055  16.727 -0.0958 -0.3292  0.4581
16923TIP3   OH272183   4.482   6.642   3.930  0.1023  0.1863 -0.1276
16923TIP3    H172184   4.432   6.706   3.981  1.7101  0.9470  0.5808
16923TIP3    H272185   4.487   6.565   3.987 -0.9000 -0.2012 -0.5327
16924TIP3   OH272186   2.699   3.570   3.335  0.3445  0.3219 -0.0160
16924TIP3    H172187   2.735   3.482   3.322  0.9100  0.6023 -0.4171
16924TIP3    H272188   2.688   3.579   3.429 -0.6029 -0.5224 -0.0353
16925TIP3   OH272189   5.953   4.068   6.100  0.3909 -0.8709 -0.7047
16925TIP3    H172190   5.887   4.074   6.169  2.3606 -3.1144  1.5773
16925TIP3    H272191   6.034   4.047   6.146  2.7976  1.6739 -3.3486
16926TIP3   OH272192   4.535   0.522  14.321  0.1384 -0.0095  0.3971
16926TIP3    H172193   4.614   0.554  14.278 -0.6622 -0.0163 -1.1302
16926TIP3    H272194   4.508   0.593  14.379  1.1937  0.0288  0.8576
16927TIP3   OH272195   5.293   2.253   0.769 -0.3267 -0.4908  0.1521
16927TIP3    H172196   5.275   2.221   0.858 -0.4262 -1.8529 -0.3258
16927TIP3    H272197   5.227   2.210   0.715  0.8742 -1.1502 -0.8361
16928TIP3   OH272198   4.597   6.307  15.510  0.0668 -0.6452 -0.3932
16928TIP3    H172199   4.583   6.212  15.513 -3.0470 -0.3166 -1.0764
16928TIP3    H272200   4.577   6.336  15.600 -0.7518 -0.4981 -0.6101
16929TIP3   OH272201   5.059   5.842   4.290  0.1907  0.0504 -0.2060
16929TIP3    H172202   5.010   5.779   4.236  2.9059 -1.2785 -1.3027
16929TIP3    H272203   5.028   5.827   4.379 -0.2902 -1.8132 -0.6470
16930TIP3   OH272204   0.354   6.670  12.595 -0.7157 -0.3427  0.2692
16930TIP3    H172205   0.324   6.583  12.621 -1.5535  0.1973  1.1694
16930TIP3    H272206   0.293   6.730  12.638 -0.8421  0.6580 -1.2480
16931TIP3   OH272207   2.351   5.569   0.576 -0.5554 -0.5220  0.7895
16931TIP3    H172208   2.265   5.597   0.543  0.1586  1.8036  0.7473
16931TIP3    H272209   2.404   5.560   0.497  0.4025  2.4264  0.9617
16932TIP3   OH272210   3.813   1.756   1.381 -0.7686  0.1128 -0.2409
16932TIP3    H172211   3.819   1.699   1.305 -0.1156  0.5864 -0.5588
16932TIP3    H272212   3.755   1.710   1.441 -1.7683  0.0105 -1.2604
16933TIP3   OH272213   0.362   2.368  10.456 -0.0253 -0.0938  0.1725
16933TIP3    H172214   0.420   2.294  10.473  1.5433  0.7064 -1.2976
16933TIP3    H272215   0.285   2.330  10.414  0.1445 -1.0143  0.6693
16934TIP3   OH272216   4.528   1.964  17.043 -0.0879  0.8309  0.2937
16934TIP3    H172217   4.538   1.869  17.038 -0.4910  0.7482  0.8604
16934TIP3    H272218   4.457   1.985  16.982  0.6411  0.8872 -0.5356
16935TIP3   OH272219   5.308   1.210  14.977  0.7794 -0.0552  0.0673
16935TIP3    H172220   5.377   1.183  14.916 -0.2842 -0.0464 -1.1829
16935TIP3    H272221   5.336   1.175  15.062  2.5984  0.4693 -0.2946
16936TIP3   OH272222   2.885   4.492   1.495  0.3820  0.1237 -0.1409
16936TIP3    H172223   2.878   4.516   1.402 -1.1410 -2.8472 -0.9317
16936TIP3    H272224   2.973   4.455   1.503  0.8239  1.1312 -0.1537
16937TIP3   OH272225   2.912   2.568   2.437  0.4591 -0.0977  0.0153
16937TIP3    H172226   2.835   2.544   2.489 -0.3366  0.6665 -0.7744
16937TIP3    H272227   2.970   2.493   2.445 -1.8600 -2.3273 -2.2366
16938TIP3   OH272228   5.556   1.869  12.594  0.5368 -0.3871 -0.1534
16938TIP3    H172229   5.649   1.887  12.607  0.6648 -0.1247 -1.3082
16938TIP3    H272230   5.554   1.784  12.549  0.2807  0.0059 -0.9106
16939TIP3   OH272231   0.739   5.280  12.219 -0.7463 -0.7053 -0.0994
16939TIP3    H172232   0.649   5.297  12.248 -0.4108  0.3608  0.3787
16939TIP3    H272233   0.789   5.356  12.250  0.4449 -1.5740  0.1951
16940TIP3   OH272234   1.532   0.860   1.233 -0.7827  0.2230 -0.1910
16940TIP3    H172235   1.459   0.884   1.291 -1.7197  0.4653 -1.4406
16940TIP3    H272236   1.494   0.861   1.145  0.4434 -0.8377 -0.7533
16941TIP3   OH272237   5.842   6.122  10.277 -0.4179  0.0489  0.5181
16941TIP3    H172238   5.823   6.041  10.230 -1.1346  0.3166  0.3293
16941TIP3    H272239   5.798   6.111  10.362  0.2531 -0.1304  0.8489
16942TIP3   OH272240   3.026   2.711  11.488 -0.3184 -0.4585 -0.2424
16942TIP3    H172241   2.984   2.795  11.502  0.3017 -0.2412  0.3806
16942TIP3    H272242   3.107   2.732  11.440 -0.7783 -0.8416 -1.2205
16943TIP3   OH272243   3.712   5.805  15.317  0.2432 -0.2001 -0.3896
16943TIP3    H172244   3.737   5.741  15.383 -0.7815 -0.1277  0.0932
16943TIP3    H272245   3.715   5.889  15.362  0.7687  0.0009 -0.7898
16944TIP3   OH272246   3.132   5.048  14.814  0.2947  0.0759 -0.6913
16944TIP3    H172247   3.201   5.111  14.794  1.3496 -0.2800  1.5089
16944TIP3    H272248   3.138   5.035  14.909 -0.7194 -2.3720 -0.8844
16945TIP3   OH272249   5.951   6.452   3.638  0.5272  0.3049 -0.3325
16945TIP3    H172250   5.947   6.484   3.548 -0.4493  1.3258  0.0494
16945TIP3    H272251   6.016   6.508   3.681  0.9391 -0.1342 -0.3761
16946TIP3   OH272252   4.275   0.523  16.098  0.0330  1.0782  0.3186
16946TIP3    H172253   4.257   0.563  16.013  0.1442 -1.5151 -1.0229
16946TIP3    H272254   4.189   0.492  16.128  0.4144 -1.0803 -0.5938
16947TIP3   OH272255   2.734   4.896   1.240 -0.1031 -0.2428 -0.0462
16947TIP3    H172256   2.687   4.820   1.276 -0.9010  1.3736  2.6146
16947TIP3    H272257   2.808   4.909   1.299  2.3096 -1.1192 -2.6503
16948TIP3   OH272258   6.552   1.869  14.728 -0.1511  0.5077  0.4431
16948TIP3    H172259   6.631   1.922  14.715 -0.1058  0.3771  0.1781
16948TIP3    H272260   6.560   1.797  14.665 -0.9700  1.0508 -0.3028
16949TIP3   OH272261   4.626   0.265  10.649 -0.3833 -0.1986  0.3732
16949TIP3    H172262   4.587   0.345  10.615  1.7381  0.7095 -0.1213
16949TIP3    H272263   4.584   0.194  10.600  0.0298  0.8595 -1.6243
16950TIP3   OH272264   6.547   1.285  16.601 -0.3199 -0.3265 -0.5027
16950TIP3    H172265   6.633   1.302  16.641 -1.4234  1.4732  1.2887
16950TIP3    H272266   6.502   1.229  16.663 -0.4148 -1.3929 -1.5132
16951TIP3   OH272267   1.129   1.739   2.153 -0.3641 -0.2738 -0.0165
16951TIP3    H172268   1.196   1.679   2.186 -2.1600 -1.3119  1.9383
16951TIP3    H272269   1.111   1.707   2.064  0.7190 -0.8323 -0.0508
16952TIP3   OH272270   0.873   2.737   2.322 -0.0278  0.2197  0.2382
16952TIP3    H172271   0.803   2.785   2.277 -0.4438  0.1612  0.8043
16952TIP3    H272272   0.864   2.647   2.290 -0.6089  0.0828  0.7472
16953TIP3   OH272273   0.180   1.079  13.917  0.1395  0.0102  0.2294
16953TIP3    H172274   0.168   1.017  13.989  2.3391  0.1491  0.8160
16953TIP3    H272275   0.165   1.165  13.957  0.7179  0.0483  0.3760
16954TIP3   OH272276   3.896   2.099  11.736 -0.1846  0.1700 -0.6735
16954TIP3    H172277   3.981   2.129  11.705  0.2012  0.4483  0.6417
16954TIP3    H272278   3.834   2.164  11.701  0.6750  3.0635  2.6124
16955TIP3   OH272279   5.484   0.068  12.751 -0.0002  0.2427 -0.0873
16955TIP3    H172280   5.411   0.103  12.699  0.4152  2.0813  0.5147
16955TIP3    H272281   5.454   0.076  12.842  1.2449  1.8645  0.2262
16956TIP3   OH272282   5.493   0.861   1.197 -0.2036 -0.1277  0.5137
16956TIP3    H172283   5.454   0.935   1.243 -1.2422 -0.9043  0.9277
16956TIP3    H272284   5.419   0.815   1.158  0.4151 -0.9935  0.3259
16957TIP3   OH272285   4.593   4.973   3.444 -0.1366  0.2155 -0.3355
16957TIP3    H172286   4.670   4.983   3.389  0.4666 -0.8535  0.2773
16957TIP3    H272287   4.589   4.880   3.463 -1.3856  0.3054 -0.0625
16958TIP3   OH272288   6.323   3.554  14.007 -0.1032  0.2847 -0.1153
16958TIP3    H172289   6.292   3.601  13.930  2.1048  0.9275 -0.6844
16958TIP3    H272290   6.413   3.584  14.019  0.0766 -0.8572  1.8928
16959TIP3   OH272291   5.977   2.742   6.541  0.5834 -0.0366  0.4311
16959TIP3    H172292   6.050   2.779   6.591  1.2285  0.4674 -0.8305
16959TIP3    H272293   6.003   2.753   6.450  0.2700 -2.5297 -0.0389
16960TIP3   OH272294   1.664   2.927   0.915  0.3876 -0.2802  0.2462
16960TIP3    H172295   1.628   2.846   0.879 -0.8694  0.5726 -0.4869
16960TIP3    H272296   1.718   2.963   0.845  2.3186 -1.2805  1.1544
16961TIP3   OH272297   2.327   2.793   5.439  0.6812  0.3823 -0.1732
16961TIP3    H172298   2.324   2.883   5.471  0.2445 -0.1306  1.3002
16961TIP3    H272299   2.396   2.751   5.491  1.5431  0.0787 -1.4995
16962TIP3   OH272300   0.753   1.777  12.393  0.1439  0.6171 -0.0435
16962TIP3    H172301   0.778   1.790  12.302  1.3090 -0.2596  0.1324
16962TIP3    H272302   0.749   1.866  12.429 -1.2115  1.0380 -1.1421
16963TIP3   OH272303   1.853   0.030  12.424  0.1465  0.4483  0.3568
16963TIP3    H172304   1.787   0.055  12.359  0.5183  0.2763 -0.0884
16963TIP3    H272305   1.928   0.002  12.372  0.0307 -0.8172  0.8551
16964TIP3   OH272306   6.718   3.033   4.190  0.0482 -0.0817  0.9091
16964TIP3    H172307   6.634   3.061   4.155 -0.5429 -0.8448  1.6674
16964TIP3    H272308   6.781   3.096   4.155 -1.1040  1.7188  1.9219
16965TIP3   OH272309   4.187   2.481   2.171 -0.0305  0.2206 -0.9556
16965TIP3    H172310   4.234   2.461   2.090  1.9635 -0.4913  0.3004
16965TIP3    H272311   4.256   2.504   2.233 -1.4841  0.4650  0.6304
16966TIP3   OH272312   5.259   3.182  15.413 -0.5582 -0.2981 -0.2861
16966TIP3    H172313   5.344   3.207  15.448  0.2493  0.0554 -2.3865
16966TIP3    H272314   5.201   3.256  15.434 -0.6054 -0.8759  1.8340
16967TIP3   OH272315   3.289   5.872  11.787 -0.5692  0.0500  0.2895
16967TIP3    H172316   3.249   5.796  11.745  0.6406  0.1466 -1.1143
16967TIP3    H272317   3.383   5.859  11.776 -0.3276  1.6609  0.1781
16968TIP3   OH272318   3.910   4.863   6.249  0.0689 -0.5374  0.2746
16968TIP3    H172319   3.850   4.856   6.324 -1.0305  0.3745 -0.4809
16968TIP3    H272320   3.961   4.942   6.266 -0.3342 -0.2066 -0.0302
16969TIP3   OH272321   4.366   3.640  16.122  0.0049  0.3251 -0.2085
16969TIP3    H172322   4.271   3.637  16.116 -0.0059 -0.0478  0.0879
16969TIP3    H272323   4.395   3.556  16.086  0.2671  0.7323 -0.9868
16970TIP3   OH272324   0.432   3.059  12.663  0.5230  0.2857  0.3165
16970TIP3    H172325   0.492   3.117  12.710 -0.9108  0.4732  2.0222
16970TIP3    H272326   0.471   2.972  12.671  3.1680  0.9622 -3.0295
16971TIP3   OH272327   0.392   1.779   1.307  0.4690  0.0240  0.1397
16971TIP3    H172328   0.311   1.736   1.335 -0.4102  1.8676  0.5842
16971TIP3    H272329   0.405   1.850   1.370  2.8401 -0.6216  0.4865
16972TIP3   OH272330   3.162   0.058   2.508 -0.5691 -0.1880  0.0474
16972TIP3    H172331   3.075   0.076   2.542  0.1840  1.5003  1.2135
16972TIP3    H272332   3.150  -0.015   2.448 -2.7616 -0.0312  0.2339
16973TIP3   OH272333   1.248   0.857  11.908  0.0542 -0.2844 -0.0418
16973TIP3    H172334   1.256   0.946  11.875 -0.3777 -0.3801 -0.4189
16973TIP3    H272335   1.309   0.853  11.982  1.0558 -0.0587 -0.8263
16974TIP3   OH272336   1.696   1.085   3.140  0.5596  0.8454 -0.7820
16974TIP3    H172337   1.695   1.120   3.051 -1.5827  2.6210 -0.1605
16974TIP3    H272338   1.725   0.995   3.130 -1.1531  0.4760 -3.5249
16975TIP3   OH272339   5.143   0.268  12.458 -0.4922 -0.4071  0.2472
16975TIP3    H172340   5.155   0.203  12.389 -1.4061 -1.1053  0.7280
16975TIP3    H272341   5.231   0.301  12.475 -0.1119 -0.9988 -0.5036
16976TIP3   OH272342   6.259   1.646   3.626  0.2237 -0.0898 -0.4200
16976TIP3    H172343   6.171   1.633   3.590  0.7322  0.5745 -1.9764
16976TIP3    H272344   6.296   1.716   3.573  1.9791 -0.8966 -0.3160
16977TIP3   OH272345   1.457   4.819  15.130 -0.4098  0.2042 -0.0177
16977TIP3    H172346   1.472   4.896  15.186  0.9923 -0.1571  0.1270
16977TIP3    H272347   1.362   4.804  15.135 -0.4584  0.8505  1.3689
16978TIP3   OH272348   1.443   3.408   2.320  0.6883  0.1295  0.2955
16978TIP3    H172349   1.493   3.463   2.381  0.5544  2.3073 -1.4155
16978TIP3    H272350   1.398   3.471   2.263  0.0397 -1.7858 -1.4287
16979TIP3   OH272351   6.450   5.440  16.537  0.2138  0.0311  0.5501
16979TIP3    H172352   6.423   5.415  16.625  1.8852  0.3881  1.2059
16979TIP3    H272353   6.442   5.359  16.486 -0.5444 -0.2353  1.0766
16980TIP3   OH272354   0.876   1.000  16.704  0.0205 -0.3122 -0.2013
16980TIP3    H172355   0.828   1.082  16.699  3.5138  1.9008 -4.1396
16980TIP3    H272356   0.907   0.995  16.794 -3.0311  0.8097  1.0250
16981TIP3   OH272357   1.266   4.600   0.904  0.1759  0.3508  0.0042
16981TIP3    H172358   1.331   4.608   0.834  0.8879  0.1443  0.6300
16981TIP3    H272359   1.210   4.527   0.876  0.5346  0.1838 -0.2949
16982TIP3   OH272360   5.287   3.446  17.396  0.4763  0.0801  0.3318
16982TIP3    H172361   5.195   3.424  17.411 -0.2006  1.2089 -1.7078
16982TIP3    H272362   5.327   3.441  17.482 -1.2495 -1.4800  1.1182
16983TIP3   OH272363   5.047   1.042   3.840  0.1802 -0.3941 -0.0475
16983TIP3    H172364   4.966   1.080   3.875  0.2341 -0.1520 -0.1766
16983TIP3    H272365   5.115   1.068   3.902  0.3452  0.3946 -0.5383
16984TIP3   OH272366   4.217   5.484   4.923 -0.4222 -0.7048  0.2558
16984TIP3    H172367   4.130   5.455   4.896 -1.9036  0.7847  2.9060
16984TIP3    H272368   4.223   5.458   5.015  1.3191  0.5494  0.5500
16985TIP3   OH272369   6.438   5.996   0.097 -0.3443 -0.1302  0.4195
16985TIP3    H172370   6.401   6.022   0.013  0.0984 -1.5828 -0.2542
16985TIP3    H272371   6.489   6.072   0.125  1.0526 -0.2624 -1.5486
16986TIP3   OH272372   4.880   2.979   4.003  0.3423 -0.2632 -0.1754
16986TIP3    H172373   4.860   2.916   4.072 -1.7524 -0.5421 -0.9958
16986TIP3    H272374   4.816   3.049   4.015  1.1773  0.6242 -0.7053
16987TIP3   OH272375   1.215   1.625  15.171 -0.3715 -0.0203  0.0559
16987TIP3    H172376   1.297   1.608  15.125 -0.3490 -1.8073  0.6647
16987TIP3    H272377   1.232   1.595  15.261 -2.0792 -1.7696 -0.1266
16988TIP3   OH272378   4.739   0.376   4.217 -0.3397 -0.2460  0.3161
16988TIP3    H172379   4.743   0.438   4.143 -0.8630 -0.2251  0.3011
16988TIP3    H272380   4.786   0.420   4.287 -0.0408 -0.1626  0.0681
16989TIP3   OH272381   1.987   0.362   4.752  0.6044 -0.1191  0.6977
16989TIP3    H172382   2.006   0.400   4.666 -0.0788  0.3639  0.7532
16989TIP3    H272383   2.055   0.397   4.810  0.2126  0.7258  0.6620
16990TIP3   OH272384   4.169   0.036   0.714 -0.3686  0.0360 -0.2053
16990TIP3    H172385   4.243  -0.014   0.680 -1.3491 -0.7402 -1.2951
16990TIP3    H272386   4.168   0.116   0.662  0.4369  0.6374  0.6726
16991TIP3   OH272387   6.749   1.569   5.678  0.1494 -0.5996  0.2115
16991TIP3    H172388   6.797   1.497   5.718  1.1090 -0.4269 -0.5946
16991TIP3    H272389   6.815   1.619   5.631 -0.5161  0.7826  0.6935
16992TIP3   OH272390   3.138   3.181   4.254  0.1567 -0.4366  0.1749
16992TIP3    H172391   3.062   3.219   4.298  0.3153 -2.2412  2.1443
16992TIP3    H272392   3.161   3.246   4.187 -1.3784  1.4698  1.3651
16993TIP3   OH272393   4.877   3.654  10.975 -0.1513 -0.2664 -0.4259
16993TIP3    H172394   4.906   3.694  10.893 -0.2200 -2.0339 -1.3608
16993TIP3    H272395   4.782   3.648  10.967 -0.5456  2.3378  1.1541
16994TIP3   OH272396   5.311   1.188  13.376  0.5382  0.1787  0.2494
16994TIP3    H172397   5.288   1.201  13.467 -1.7447 -1.3472 -0.0234
16994TIP3    H272398   5.253   1.246  13.327  1.3105  0.5356 -0.2610
16995TIP3   OH272399   1.949   1.538   4.922  0.4044  0.5588  0.1794
16995TIP3    H172400   1.863   1.502   4.903  0.9258 -0.6342 -0.0057
16995TIP3    H272401   1.997   1.531   4.839  1.6625 -1.6977  1.0076
16996TIP3   OH272402   2.357   6.578   3.123  0.3218  0.8790  0.4422
16996TIP3    H172403   2.391   6.546   3.206 -1.0786 -0.6272  0.4843
16996TIP3    H272404   2.410   6.534   3.056  0.7335  1.2605  0.5087
16997TIP3   OH272405   4.707   5.206   4.909 -0.7147 -0.6840  0.6264
16997TIP3    H172406   4.682   5.179   4.821 -1.1958  0.6281  0.3372
16997TIP3    H272407   4.715   5.124   4.958 -1.9794 -1.3510 -0.2227
16998TIP3   OH272408   4.277   5.837  11.570 -0.2136 -0.0339  0.0305
16998TIP3    H172409   4.215   5.881  11.629 -0.8527  0.5946 -1.0771
16998TIP3    H272410   4.271   5.886  11.488  2.1502  0.3937  0.0235
16999TIP3   OH272411   0.424   4.299  12.363 -0.3607  0.5094 -0.4645
16999TIP3    H172412   0.488   4.353  12.317 -1.1990  2.4293  0.5078
16999TIP3    H272413   0.352   4.289  12.301 -0.0999  0.3118 -0.7369
17000TIP3   OH272414   5.109   0.803  13.635 -0.1970 -0.0658 -0.2728
17000TIP3    H172415   5.194   0.817  13.676  0.3993 -1.4142 -0.9567
17000TIP3    H272416   5.108   0.861  13.560 -1.0565  1.9882  1.2392
17001TIP3   OH272417   2.632   4.473   6.659  0.3341  0.2434  0.2154
17001TIP3    H172418   2.561   4.411   6.676  0.9893 -0.5522  0.1545
17001TIP3    H272419   2.629   4.534   6.733 -1.0873  0.8977 -0.3463
17002TIP3   OH272420   4.454   2.288   4.938 -0.2278 -1.0010  0.1882
17002TIP3    H172421   4.371   2.242   4.925 -1.6308  0.6357  2.7223
17002TIP3    H272422   4.450   2.320   5.028  2.1112  1.2259 -0.4042
17003TIP3   OH272423   5.308   3.944  17.036 -0.3655  0.2518  0.1064
17003TIP3    H172424   5.227   3.952  17.087  0.5809  0.2743  1.6895
17003TIP3    H272425   5.359   3.878  17.084  0.7211  0.5488 -0.6225
17004TIP3   OH272426   2.691   5.100   3.922 -0.0780 -0.1849 -0.2092
17004TIP3    H172427   2.690   5.005   3.922  0.0583 -0.1909  0.4036
17004TIP3    H272428   2.607   5.125   3.960  0.1454 -0.0731  0.2195
17005TIP3   OH272429   5.215   0.168   1.823 -0.2057 -0.1063 -0.4041
17005TIP3    H172430   5.296   0.185   1.871 -0.2540  0.3971 -0.4981
17005TIP3    H272431   5.244   0.149   1.734 -0.3198  3.5212 -1.3781
17006TIP3   OH272432   4.691   2.566   0.676 -0.3246 -0.7825  0.1111
17006TIP3    H172433   4.633   2.592   0.747  2.3157 -1.4109  2.6876
17006TIP3    H272434   4.707   2.473   0.691  0.7395 -0.8049 -0.9757
17007TIP3   OH272435   1.002   6.390  16.852 -0.5439  0.1033 -0.3757
17007TIP3    H172436   0.964   6.324  16.910  2.0439 -1.5684 -0.4409
17007TIP3    H272437   1.077   6.424  16.901  0.0997  0.5934 -1.6742
17008TIP3   OH272438   0.777   0.626   2.075  0.2041 -0.3815 -0.5317
17008TIP3    H172439   0.737   0.713   2.069 -0.0005 -0.4489 -0.1424
17008TIP3    H272440   0.705   0.565   2.056  0.0523 -0.5127  0.4365
17009TIP3   OH272441   4.892   3.053   0.313 -0.2273 -0.6784 -0.2955
17009TIP3    H172442   4.829   2.981   0.321 -0.5486 -0.1972  2.7005
17009TIP3    H272443   4.950   3.025   0.242 -0.7216 -3.6160  0.2935
17010TIP3   OH272444   6.743   1.909  10.987 -0.0330 -0.4755 -0.1424
17010TIP3    H172445   6.724   1.841  10.923 -0.0792 -1.3708  0.8017
17010TIP3    H272446   6.663   1.915  11.040 -0.0917  0.4356 -0.3127
17011TIP3   OH272447   4.665   0.367   4.538  0.5056  0.3515 -0.4038
17011TIP3    H172448   4.589   0.346   4.591  0.0408 -1.1358 -1.5983
17011TIP3    H272449   4.736   0.316   4.576 -0.1279 -1.8055 -1.9494
17012TIP3   OH272450   1.622   2.780   6.252  0.5899  0.2344 -0.4412
17012TIP3    H172451   1.575   2.697   6.260  1.6297 -0.5020 -1.6096
17012TIP3    H272452   1.617   2.819   6.339  0.9403 -1.5301  0.4130
17013TIP3   OH272453   0.809   5.887  13.531 -0.3048 -0.3245  0.2728
17013TIP3    H172454   0.872   5.957  13.548 -1.4507  0.2818  2.3050
17013TIP3    H272455   0.738   5.931  13.484  0.1328 -0.7206 -0.7944
17014TIP3   OH272456   1.597   5.337   5.373  0.0256 -0.0650  0.4212
17014TIP3    H172457   1.537   5.378   5.311  0.9081  0.5805 -0.0323
17014TIP3    H272458   1.644   5.411   5.412 -0.1881 -0.4927  1.5249
17015TIP3   OH272459   0.827   3.781  16.412 -0.0260 -0.3162  0.4856
17015TIP3    H172460   0.873   3.849  16.461  0.5140 -0.3335  0.0093
17015TIP3    H272461   0.790   3.724  16.480 -0.5525  0.4909  0.8827
17016TIP3   OH272462   6.487   0.250   5.450 -0.6081 -0.1212  0.1694
17016TIP3    H172463   6.580   0.232   5.463 -0.5395  0.8067  1.1204
17016TIP3    H272464   6.461   0.191   5.379  0.7801 -0.1402 -0.3619
17017TIP3   OH272465   0.775   6.248  14.302  0.0039 -0.3642  0.0076
17017TIP3    H172466   0.821   6.184  14.247 -1.3010 -1.4168  0.0820
17017TIP3    H272467   0.777   6.210  14.390  0.1839  0.2403  0.2660
17018TIP3   OH272468   3.520   6.030   6.405  0.1302  0.4995 -0.4138
17018TIP3    H172469   3.491   5.965   6.341 -0.6965  0.5205 -0.0668
17018TIP3    H272470   3.606   5.999   6.433 -0.5089 -0.7947  0.1975
17019TIP3   OH272471   5.230   6.462  16.232 -0.6116 -0.1340  1.2067
17019TIP3    H172472   5.154   6.521  16.236 -1.6422 -1.2103 -1.0827
17019TIP3    H272473   5.196   6.378  16.266 -1.0027 -1.0731 -1.3246
17020TIP3   OH272474   6.247   4.873   1.683  0.1426 -0.0482 -0.1598
17020TIP3    H172475   6.162   4.905   1.712 -0.1279 -2.7338  2.4371
17020TIP3    H272476   6.309   4.938   1.716 -0.7486  0.9276 -0.3498
17021TIP3   OH272477   3.022   2.339  12.241 -0.5313  0.1307 -0.0556
17021TIP3    H172478   2.957   2.273  12.264 -1.0729  0.6683 -0.0044
17021TIP3    H272479   2.975   2.400  12.185 -0.5184  1.3674  1.2182
17022TIP3   OH272480   1.413   1.149   4.683 -0.1867  0.1363 -0.0736
17022TIP3    H172481   1.372   1.137   4.598  2.2972 -1.4487 -1.1434
17022TIP3    H272482   1.458   1.233   4.676 -2.1841  1.3424  0.7196
17023TIP3   OH272483   2.419   3.098  16.257  0.3582 -0.8379 -0.3192
17023TIP3    H172484   2.502   3.128  16.294  1.1613 -1.4240 -1.5837
17023TIP3    H272485   2.371   3.178  16.239  2.0513 -0.2565 -2.6922
17024TIP3   OH272486   3.850   3.771   2.391 -0.1165  0.3824 -0.4032
17024TIP3    H172487   3.825   3.822   2.468 -1.7403  0.4214 -0.9109
17024TIP3    H272488   3.895   3.694   2.427 -2.1291 -0.3522  0.7215
17025TIP3   OH272489   3.178   0.847  14.852 -0.4378 -0.3398  0.2126
17025TIP3    H172490   3.255   0.793  14.873 -0.2901 -0.1297  0.2104
17025TIP3    H272491   3.214   0.923  14.806 -0.5183  0.3331  1.2343
17026TIP3   OH272492   2.342   3.695   3.508  0.0216 -0.3125  0.6004
17026TIP3    H172493   2.374   3.720   3.421  0.4193  2.3285  1.4113
17026TIP3    H272494   2.359   3.601   3.513  2.5380 -0.0791 -1.1714
17027TIP3   OH272495   2.678   3.020   2.479 -0.7805  0.0823  0.4599
17027TIP3    H172496   2.704   3.081   2.410  0.2567 -0.1294  0.6395
17027TIP3    H272497   2.691   2.933   2.440  1.8219 -0.0938  1.5449
17028TIP3   OH272498   5.319   1.988   4.378 -0.4023 -0.4232 -0.1847
17028TIP3    H172499   5.234   1.961   4.413  0.7103 -0.7881  2.4902
17028TIP3    H272500   5.311   2.083   4.367 -1.1031 -0.4290  0.1943
17029TIP3   OH272501   1.900   5.939   1.635 -0.0024 -0.6650  0.1584
17029TIP3    H172502   1.952   6.017   1.613 -1.6535  0.1162 -1.2100
17029TIP3    H272503   1.957   5.887   1.691  1.8661  0.6230 -0.4574
17030TIP3   OH272504   1.087   2.031  15.710 -0.4809  0.0878  0.0283
17030TIP3    H172505   1.023   1.973  15.752 -2.2669  2.5228  0.9608
17030TIP3    H272506   1.035   2.106  15.682  1.6370  1.0903 -1.4552
17031TIP3   OH272507   1.589   2.564  15.243 -0.2681 -0.0138 -0.1930
17031TIP3    H172508   1.514   2.504  15.236 -1.1580  1.2807 -3.2765
17031TIP3    H272509   1.666   2.507  15.242 -1.1481 -1.2366  0.0718
17032TIP3   OH272510   1.943   1.753  10.743 -0.0747  0.1478 -0.5025
17032TIP3    H172511   2.005   1.817  10.709  0.3781 -0.2496 -0.4422
17032TIP3    H272512   1.961   1.749  10.837 -0.0565 -0.1106 -0.5152
17033TIP3   OH272513   2.922   4.649   4.401  0.2527 -0.2425  0.2718
17033TIP3    H172514   2.871   4.604   4.334 -1.2443 -0.1676  1.3342
17033TIP3    H272515   2.975   4.712   4.351 -0.8973 -0.1043 -0.8326
17034TIP3   OH272516   1.066   1.399  13.690  0.4698 -0.5054  0.3014
17034TIP3    H172517   1.081   1.304  13.686 -0.7731 -0.6977 -0.2720
17034TIP3    H272518   1.051   1.417  13.783  0.8304 -0.8482  0.4283
17035TIP3   OH272519   0.004   5.346   0.926  0.7120 -0.7513 -0.0075
17035TIP3    H172520  -0.077   5.395   0.910 -0.4907 -2.8230 -0.6037
17035TIP3    H272521  -0.004   5.315   1.017  2.1554  1.2570  0.8952
17036TIP3   OH272522   4.421   2.860  10.961  0.4191  0.1734  0.0546
17036TIP3    H172523   4.515   2.856  10.979  0.4700 -1.3924 -0.4610
17036TIP3    H272524   4.411   2.938  10.905  1.3669  0.4764  0.2923
17037TIP3   OH272525   5.128   1.785  15.624 -0.2466 -0.2542 -0.6193
17037TIP3    H172526   5.131   1.691  15.607 -0.8976 -0.1049 -1.5897
17037TIP3    H272527   5.198   1.800  15.689  1.3850 -1.0666 -2.1008
17038TIP3   OH272528   2.730   5.518   4.262  0.9454 -0.4300  0.0660
17038TIP3    H172529   2.710   5.601   4.219  1.1607 -0.6320 -0.4366
17038TIP3    H272530   2.782   5.469   4.197 -0.9443 -1.8231 -0.4713
17039TIP3   OH272531   2.742   4.890   1.618 -0.0340 -0.3596  0.5401
17039TIP3    H172532   2.738   4.986   1.623 -0.4975 -0.3852  0.6918
17039TIP3    H272533   2.763   4.872   1.526 -5.1824 -0.2206 -0.9532
17040TIP3   OH272534   4.429   2.316  16.235 -0.2513  0.3678  0.1928
17040TIP3    H172535   4.478   2.237  16.212 -0.2442  0.4393 -0.0413
17040TIP3    H272536   4.447   2.330  16.328 -0.9777 -0.4193  0.4669
17041TIP3   OH272537   1.456   4.591   1.376  1.0782  0.5814 -0.1755
17041TIP3    H172538   1.369   4.554   1.359  1.4050 -0.3926  0.2257
17041TIP3    H272539   1.497   4.595   1.290  0.8166  0.5797 -0.3014
17042TIP3   OH272540   3.406   4.704  14.433  0.3303 -0.4269 -0.0226
17042TIP3    H172541   3.355   4.625  14.417 -0.8301  0.4252 -0.7670
17042TIP3    H272542   3.347   4.775  14.406  1.8137  0.6218 -0.5977
17043TIP3   OH272543   3.142   1.633   4.587  1.0320  0.2847  0.2168
17043TIP3    H172544   3.212   1.663   4.645  0.9320  1.8478 -0.4367
17043TIP3    H272545   3.110   1.713   4.544  0.0183 -0.6282 -0.7861
17044TIP3   OH272546   5.683   4.499   4.658 -0.2817  0.1046  0.1652
17044TIP3    H172547   5.634   4.580   4.647 -1.2763 -0.6099 -0.8988
17044TIP3    H272548   5.727   4.487   4.574  0.4922 -0.0752  0.5833
17045TIP3   OH272549   5.440   3.281  13.992  0.0641  0.3689 -0.5416
17045TIP3    H172550   5.442   3.374  13.968  1.9762  0.2472 -1.0153
17045TIP3    H272551   5.427   3.281  14.087  0.2728  1.1205 -0.5083
17046TIP3   OH272552   2.543   6.074   0.749 -0.0934  0.1291 -0.6465
17046TIP3    H172553   2.623   6.051   0.797 -0.2968  0.5756 -0.0696
17046TIP3    H272554   2.522   5.997   0.697  0.4863 -0.1385 -0.4886
17047TIP3   OH272555   5.148   1.993  13.670 -0.0504  0.3951 -0.2408
17047TIP3    H172556   5.104   1.922  13.624 -0.4584 -0.7964  1.8321
17047TIP3    H272557   5.238   1.991  13.639 -0.3602 -0.2047 -1.1170
17048TIP3   OH272558   4.267   0.356  16.666 -0.1523  0.4631 -0.1654
17048TIP3    H172559   4.333   0.425  16.667 -0.9526  1.2475  0.6317
17048TIP3    H272560   4.184   0.403  16.659 -0.8851 -0.2307  2.5377
17049TIP3   OH272561   4.592   5.702   1.775 -0.1266  0.3578  0.4625
17049TIP3    H172562   4.688   5.698   1.772 -0.1615 -2.7833 -2.1703
17049TIP3    H272563   4.569   5.776   1.719  0.7860 -0.5439 -1.1535
17050TIP3   OH272564   4.773   1.961   0.994  0.0963  0.0285  0.4996
17050TIP3    H172565   4.814   1.941   0.910 -0.6719 -0.0553  0.1409
17050TIP3    H272566   4.688   1.998   0.972 -0.8363 -1.5388  1.2292
17051TIP3   OH272567   5.181   1.707  13.856  0.1067 -0.2060 -0.0231
17051TIP3    H172568   5.236   1.784  13.873  0.2069  0.0116 -1.1832
17051TIP3    H272569   5.149   1.680  13.942  0.2754  0.9849  0.4381
17052TIP3   OH272570   4.774   4.987  12.111  0.2544 -0.1105  0.0035
17052TIP3    H172571   4.717   4.939  12.171  1.1309 -0.3951  0.6222
17052TIP3    H272572   4.815   5.054  12.166 -0.7660  1.2257 -0.7860
17053TIP3   OH272573   0.719   4.803  13.823 -0.3838  0.4050 -0.6295
17053TIP3    H172574   0.731   4.715  13.787 -1.2203  0.3942 -0.9027
17053TIP3    H272575   0.626   4.808  13.844  0.1151  0.2282  2.0309
17054TIP3   OH272576   6.564   6.398  14.756  0.3413 -0.1111  0.3129
17054TIP3    H172577   6.500   6.458  14.718 -0.2325  0.4224  2.0632
17054TIP3    H272578   6.527   6.372  14.840  1.7092 -1.0232  0.6703
17055TIP3   OH272579   4.569   2.318   2.302 -0.3199  0.5013  0.0329
17055TIP3    H172580   4.662   2.339   2.308 -0.0156 -1.0032  1.0006
17055TIP3    H272581   4.527   2.374   2.367 -0.2768  1.9730 -1.1461
17056TIP3   OH272582   2.464   0.275   0.875 -0.4875  0.1726  1.2459
17056TIP3    H172583   2.490   0.283   0.783 -3.1233 -1.1089  0.2853
17056TIP3    H272584   2.521   0.206   0.910  1.4409  1.5540  1.0410
17057TIP3   OH272585   6.313   5.241   1.289 -0.2971  0.2145  0.9755
17057TIP3    H172586   6.317   5.261   1.383  1.5518  0.2397  0.9299
17057TIP3    H272587   6.366   5.161   1.279  1.2196  1.3083 -0.2797
17058TIP3   OH272588   2.633   1.431   5.284 -0.0233  0.0314  0.5271
17058TIP3    H172589   2.549   1.423   5.239 -0.3577 -2.3227  1.3884
17058TIP3    H272590   2.695   1.386   5.227  0.1957 -0.1740  0.9229
17059TIP3   OH272591   3.763   2.364  13.679  0.9174 -0.4504  0.8127
17059TIP3    H172592   3.807   2.365  13.763  0.0590  1.7289  1.3244
17059TIP3    H272593   3.765   2.456  13.650 -1.9929 -0.4676  0.2305
17060TIP3   OH272594   0.899   5.287  14.447 -0.2716 -0.0152 -0.2413
17060TIP3    H172595   0.813   5.290  14.404 -0.8545 -1.4253  0.7350
17060TIP3    H272596   0.944   5.213  14.406  0.2245  0.3080 -0.2867
17061TIP3   OH272597   3.133   5.638  15.923 -0.2081  0.2045 -0.5534
17061TIP3    H172598   3.079   5.710  15.957  1.5008  1.1121  0.3959
17061TIP3    H272599   3.141   5.578  15.996 -0.5318 -0.3060 -0.9308
17062TIP3   OH272600   6.000   6.149   4.139  0.0687 -0.7240 -0.2020
17062TIP3    H172601   5.945   6.084   4.182 -0.1030  0.2249  1.0702
17062TIP3    H272602   6.053   6.186   4.210  1.5153 -0.7829 -1.2086
17063TIP3   OH272603   2.414   4.119  13.559 -0.2363 -0.5796  0.1796
17063TIP3    H172604   2.321   4.134  13.539 -0.1887  0.1464  0.4547
17063TIP3    H272605   2.428   4.026  13.540 -1.3026 -0.9875  1.2171
17064TIP3   OH272606   2.087   1.223  14.865 -0.6191  0.0299 -0.5186
17064TIP3    H172607   2.063   1.130  14.870  1.4049 -0.5333  0.0241
17064TIP3    H272608   2.110   1.238  14.774  1.6919 -0.8148 -0.1516
17065TIP3   OH272609   4.499   4.323  15.122 -0.0227 -0.4067  0.1654
17065TIP3    H172610   4.489   4.250  15.061  3.0071 -0.1258 -0.8414
17065TIP3    H272611   4.572   4.374  15.086 -1.3559  2.5843  1.3653
17066TIP3   OH272612   4.807   3.598  14.152 -0.4019 -0.1299  0.2317
17066TIP3    H172613   4.862   3.576  14.227  0.8716  0.5640 -0.4582
17066TIP3    H272614   4.773   3.514  14.121  0.3323 -0.5832  0.6405
17067TIP3   OH272615   3.590   0.040  15.513 -0.2731 -0.2217 -0.1867
17067TIP3    H172616   3.583  -0.017  15.436  0.7451 -0.4327 -0.1313
17067TIP3    H272617   3.502   0.077  15.523 -0.5011 -0.4393 -1.2575
17068TIP3   OH272618   3.482   3.694   5.510  0.3134 -0.1283 -0.3605
17068TIP3    H172619   3.397   3.716   5.548  0.6359  1.8080 -0.6702
17068TIP3    H272620   3.544   3.705   5.582  0.6093  1.0990 -0.7788
17069TIP3   OH272621   3.502   0.105   0.864  0.3390  0.7398  1.1357
17069TIP3    H172622   3.420   0.152   0.849  0.7654  1.8849  2.2340
17069TIP3    H272623   3.502   0.036   0.798 -0.6105  1.8955 -0.1529
17070TIP3   OH272624   4.852   1.565   4.311  0.5302  0.7002  0.2541
17070TIP3    H172625   4.767   1.591   4.276 -0.1221 -0.3133  1.0331
17070TIP3    H272626   4.847   1.470   4.318  1.5731  0.6698  0.7269
17071TIP3   OH272627   2.595   5.282  10.437  0.0939  0.7614 -0.2114
17071TIP3    H172628   2.608   5.191  10.467  0.4083 -1.0677 -5.0246
17071TIP3    H272629   2.683   5.312  10.415 -0.1984  1.6610 -0.1813
17072TIP3   OH272630   2.883   0.174   5.894 -0.5427  0.2848  0.2047
17072TIP3    H172631   2.967   0.148   5.856 -0.4301  1.2626 -0.2580
17072TIP3    H272632   2.907   0.230   5.968 -0.7698  0.9800 -0.2330
17073TIP3   OH272633   2.573   3.913  12.881  0.6333 -0.1570 -0.3329
17073TIP3    H172634   2.486   3.888  12.911  0.8148 -3.3629 -2.0040
17073TIP3    H272635   2.632   3.851  12.925  1.6033 -0.4635 -1.9809
17074TIP3   OH272636   1.552   4.957   1.432  0.5952 -0.1899  0.2839
17074TIP3    H172637   1.557   4.960   1.527  1.0482  0.8654  0.2392
17074TIP3    H272638   1.606   4.883   1.407  0.7231 -0.2826  0.8352
17075TIP3   OH272639   3.272   0.514   2.561 -0.1771 -0.1792  0.1592
17075TIP3    H172640   3.296   0.581   2.497 -0.5923  0.9119  1.1212
17075TIP3    H272641   3.299   0.432   2.520  0.4339  0.5703 -1.0052
17076TIP3   OH272642   5.135   1.848   6.699  0.0744  0.1532 -0.5292
17076TIP3    H172643   5.057   1.857   6.644 -0.8674  0.5337  0.8339
17076TIP3    H272644   5.159   1.938   6.720  0.6896  0.0207 -0.6504
17077TIP3   OH272645   3.323   6.695   5.498  0.6496 -0.3552 -0.0772
17077TIP3    H172646   3.402   6.646   5.521  0.8739  0.0848  0.0990
17077TIP3    H272647   3.263   6.681   5.571  0.7502 -0.2815  0.0177
17078TIP3   OH272648   2.934   0.212  15.788  0.1726  0.2436 -0.0703
17078TIP3    H172649   2.895   0.252  15.866 -0.8908  0.4492 -0.6824
17078TIP3    H272650   2.907   0.268  15.716  1.6811  0.4085 -0.5368
17079TIP3   OH272651   5.174   6.652   5.864  0.0377  0.5380  0.6723
17079TIP3    H172652   5.132   6.577   5.905  2.5645 -1.1659  0.3802
17079TIP3    H272653   5.252   6.616   5.822  2.2633  3.5453  1.8583
17080TIP3   OH272654   2.011   6.516   1.010  0.0481  0.0024 -0.6819
17080TIP3    H172655   1.923   6.479   1.006 -0.1376  0.4245 -0.5392
17080TIP3    H272656   2.065   6.455   0.960 -0.7279  0.8854 -2.7127
17081TIP3   OH272657   4.692   3.105  15.601  0.0781 -0.5761 -0.3037
17081TIP3    H172658   4.654   3.092  15.514 -1.4293 -1.0674  0.3884
17081TIP3    H272659   4.616   3.119  15.658  1.1351  3.0502  0.4617
17082TIP3   OH272660   2.364   2.749   1.890 -0.3385  0.7429 -0.5815
17082TIP3    H172661   2.402   2.745   1.977 -1.8137  2.4234  0.2008
17082TIP3    H272662   2.277   2.711   1.900 -0.4516  0.7704 -1.3775
17083TIP3   OH272663   3.269   2.077  13.189  0.0461 -0.0440  0.7645
17083TIP3    H172664   3.294   2.166  13.164 -1.7807  0.9224  2.1287
17083TIP3    H272665   3.261   2.080  13.284  0.2626 -1.7840  0.8692
17084TIP3   OH272666   5.502   0.624  12.556 -0.3481 -0.1002 -0.2932
17084TIP3    H172667   5.528   0.672  12.477 -1.1430  1.1999  0.1883
17084TIP3    H272668   5.407   0.626  12.555 -0.4189 -2.0469 -0.4313
17085TIP3   OH272669   6.514   6.340   0.601  0.0150  0.1697  0.4141
17085TIP3    H172670   6.607   6.356   0.586 -0.1085 -0.2953 -1.0993
17085TIP3    H272671   6.511   6.249   0.632  0.0238 -0.0678 -0.2625
17086TIP3   OH272672   5.652   3.830   2.458  0.2175 -0.6126  0.8347
17086TIP3    H172673   5.556   3.826   2.456  0.2212 -0.5790  0.5985
17086TIP3    H272674   5.678   3.740   2.480  0.1845 -1.1272 -1.0203
17087TIP3   OH272675   1.668   0.479  10.466 -0.1103 -0.2872 -0.0985
17087TIP3    H172676   1.626   0.408  10.417 -2.5254  1.0630 -0.1485
17087TIP3    H272677   1.605   0.501  10.535  1.1347  0.9848  0.6905
17088TIP3   OH272678   5.763   4.133  14.172  0.0643 -0.0557  0.2079
17088TIP3    H172679   5.735   4.107  14.259  0.3186 -0.1003  0.2763
17088TIP3    H272680   5.710   4.210  14.152  0.1288  0.0561  0.4712
17089TIP3   OH272681   0.564   1.646   4.636 -0.3562  0.0658  0.2044
17089TIP3    H172682   0.615   1.692   4.703 -1.5795  0.5573  0.8251
17089TIP3    H272683   0.554   1.558   4.671  0.1608 -0.0730  0.0183
17090TIP3   OH272684   3.109   1.446  16.011 -0.3189  0.3946 -0.1955
17090TIP3    H172685   3.201   1.427  16.030 -0.0453  0.9267 -0.9015
17090TIP3    H272686   3.112   1.493  15.927 -1.1702  1.1276  0.1749
17091TIP3   OH272687   3.989   2.190   2.772  0.2530 -0.0761 -0.2254
17091TIP3    H172688   3.903   2.151   2.787  0.6995 -0.7309  0.8268
17091TIP3    H272689   4.013   2.228   2.857  0.7244  0.6735 -0.6820
17092TIP3   OH272690   3.108   1.752  14.468  0.0119 -0.2000 -0.0430
17092TIP3    H172691   3.041   1.707  14.416  0.8255  0.0670 -1.3474
17092TIP3    H272692   3.083   1.844  14.464  0.3939 -0.1149 -0.4272
17093TIP3   OH272693   0.047   0.773   4.543 -0.1066 -0.3771  0.4115
17093TIP3    H172694  -0.023   0.720   4.504 -0.7026  1.0303 -0.5251
17093TIP3    H272695   0.124   0.754   4.489 -0.3363 -0.2556  0.0335
17094TIP3   OH272696   0.717   3.590  17.285 -0.1858 -0.3002 -0.3144
17094TIP3    H172697   0.747   3.541  17.361  0.7493  0.4100 -0.2139
17094TIP3    H272698   0.776   3.665  17.279 -0.1870 -0.3775 -1.7888
17095TIP3   OH272699   6.232   4.730   0.107  0.3881 -0.4828 -0.2288
17095TIP3    H172700   6.253   4.710   0.198 -0.3898  0.2119  0.1184
17095TIP3    H272701   6.274   4.813   0.089  0.0734 -0.3409 -0.3241
17096TIP3   OH272702   3.810   2.424  12.247 -0.3263  0.6944  0.9980
17096TIP3    H172703   3.813   2.414  12.152 -1.7583 -0.3817  1.0327
17096TIP3    H272704   3.758   2.349  12.277  0.0023  1.0857  2.6198
17097TIP3   OH272705   5.932   2.610  10.602 -0.3297  0.5206 -0.4302
17097TIP3    H172706   5.877   2.649  10.671  0.4827 -0.9630  1.1377
17097TIP3    H272707   6.013   2.661  10.606 -0.4271  0.6866 -0.5624
17098TIP3   OH272708   6.057   1.517  12.833 -0.1590  0.0490 -0.0510
17098TIP3    H172709   5.985   1.550  12.781  1.7176  1.3126 -1.9999
17098TIP3    H272710   6.129   1.577  12.816  1.9778 -2.2871  0.1355
17099TIP3   OH272711   6.440   3.369   2.424  0.3445  0.1649 -0.0254
17099TIP3    H172712   6.369   3.364   2.361 -0.0797 -0.8604  0.5143
17099TIP3    H272713   6.398   3.356   2.509  0.9092  1.5223  0.4842
17100TIP3   OH272714   2.575   1.230  15.262 -0.0178 -0.1780  0.0648
17100TIP3    H172715   2.517   1.284  15.316 -0.9846 -0.0600 -1.0431
17100TIP3    H272716   2.663   1.250  15.294 -0.5113  0.4365  1.0907
17101TIP3   OH272717   2.094   5.859  10.361  0.3801  0.5815 -0.6263
17101TIP3    H172718   2.122   5.889  10.448  0.7487 -1.2967 -0.0482
17101TIP3    H272719   2.173   5.866  10.307  0.8582 -0.6365 -0.1206
17102TIP3   OH272720   6.493   0.019  14.734  0.0926  0.1435 -0.1606
17102TIP3    H172721   6.479  -0.064  14.688 -0.5871 -0.5287  1.2138
17102TIP3    H272722   6.584   0.042  14.713  0.2022 -0.7883 -0.7918
17103TIP3   OH272723   2.146   4.610  12.082 -0.5838 -0.1206 -0.0611
17103TIP3    H172724   2.134   4.705  12.074 -0.8258  0.0220  1.5868
17103TIP3    H272725   2.079   4.573  12.024 -1.7331  0.7180  0.6773
17104TIP3   OH272726   4.679   6.356  15.243 -0.0158 -0.2642 -0.1471
17104TIP3    H172727   4.701   6.320  15.329  0.5852  0.0377 -0.1710
17104TIP3    H272728   4.586   6.375  15.248 -0.1412 -0.9439  0.1839
17105TIP3   OH272729   3.131   4.981  16.108  0.0736  0.1353  0.5514
17105TIP3    H172730   3.052   5.036  16.115 -0.2794 -0.4226  1.0113
17105TIP3    H272731   3.104   4.909  16.051  0.3600  0.1220  0.4317
17106TIP3   OH272732   5.046   0.620  11.944 -0.2295 -0.1712 -0.5669
17106TIP3    H172733   4.997   0.660  11.872 -1.4933 -0.2561  0.2297
17106TIP3    H272734   5.003   0.536  11.959  0.8645 -0.7580 -0.5744
17107TIP3   OH272735   3.377   2.298  12.988  0.1988 -0.4034 -0.4152
17107TIP3    H172736   3.351   2.371  13.043 -2.9298 -0.7497 -1.2318
17107TIP3    H272737   3.378   2.333  12.899  0.9336 -0.8448 -0.5937
17108TIP3   OH272738   1.509   2.763  12.055 -0.2653  0.4546 -0.1851
17108TIP3    H172739   1.587   2.718  12.023 -0.3281  0.8117 -0.8550
17108TIP3    H272740   1.448   2.693  12.076  0.1023  0.1866 -0.0021
17109TIP3   OH272741   4.802   3.955   0.961  0.0153  0.0305 -0.1202
17109TIP3    H172742   4.712   3.939   0.933  0.4059 -1.1561 -0.7698
17109TIP3    H272743   4.815   3.894   1.034  0.4148 -0.0891 -0.2900
17110TIP3   OH272744   0.047   2.427   0.968 -0.1776 -0.2029 -0.2839
17110TIP3    H172745   0.123   2.402   0.916 -0.1632  3.2153 -2.1649
17110TIP3    H272746  -0.028   2.395   0.918 -0.0973 -1.7556  0.5228
17111TIP3   OH272747   4.692   2.215   3.808 -0.0289  0.1247  0.6020
17111TIP3    H172748   4.678   2.124   3.780 -1.1197  0.1174  1.1288
17111TIP3    H272749   4.621   2.232   3.870 -1.0238  1.9822 -0.9482
17112TIP3   OH272750   3.608   2.816   4.493 -0.1020 -0.4472 -0.0163
17112TIP3    H172751   3.703   2.812   4.487 -0.1827 -4.2293 -1.5076
17112TIP3    H272752   3.581   2.870   4.419  0.8403 -0.5473 -0.4459
17113TIP3   OH272753   4.318   0.905  13.213  0.1966  0.4347  0.5321
17113TIP3    H172754   4.292   0.982  13.263 -1.4419 -0.6208  1.3795
17113TIP3    H272755   4.337   0.838  13.278 -0.8943 -0.6299 -0.1890
17114TIP3   OH272756   0.740   3.223  14.016  0.3369 -0.3791 -0.0472
17114TIP3    H172757   0.752   3.257  14.104  1.0885  0.8193 -0.5746
17114TIP3    H272758   0.653   3.183  14.016  0.0171  0.2989  1.0180
17115TIP3   OH272759   0.616   6.719  12.476  0.3655 -0.3488 -0.4880
17115TIP3    H172760   0.627   6.775  12.553 -0.7502  1.7661 -1.7461
17115TIP3    H272761   0.560   6.647  12.505  2.0917 -1.0552  1.2626
17116TIP3   OH272762   2.148   3.107   2.819 -0.0962 -0.2429  0.0563
17116TIP3    H172763   2.067   3.057   2.827 -0.9483  0.1870 -3.7510
17116TIP3    H272764   2.217   3.040   2.812  0.1182 -0.6066  3.8553
17117TIP3   OH272765   1.342   0.746  14.370 -0.4199 -0.4317 -0.1499
17117TIP3    H172766   1.304   0.771  14.454  1.3422  0.4307  0.4245
17117TIP3    H272767   1.371   0.656  14.383  0.8645  0.0704  0.5545
17118TIP3   OH272768   2.697   6.214  15.903  0.2430 -0.0416  1.0285
17118TIP3    H172769   2.699   6.304  15.871  0.0647 -0.0989  0.8536
17118TIP3    H272770   2.764   6.169  15.852 -0.9684 -0.4581 -0.2651
17119TIP3   OH272771   5.546   0.628   4.738  0.4626 -0.0023 -0.1632
17119TIP3    H172772   5.471   0.610   4.680  1.9195  0.9339 -2.4770
17119TIP3    H272773   5.521   0.588   4.822 -0.4947 -4.3103 -2.2150
17120TIP3   OH272774   0.816   6.680  10.601  0.2938 -0.0550 -0.1264
17120TIP3    H172775   0.869   6.685  10.680 -0.3342 -0.8647  0.3585
17120TIP3    H272776   0.779   6.592  10.602 -0.4424  0.2304 -0.8522
17121TIP3   OH272777   5.878   5.196  12.174 -0.3178  0.3871  0.3399
17121TIP3    H172778   5.849   5.274  12.221 -0.4190 -0.0038  0.9335
17121TIP3    H272779   5.907   5.228  12.089 -0.3908  1.0649  0.5717
17122TIP3   OH272780   6.481   6.064   4.999  0.1560 -0.4240 -0.1311
17122TIP3    H172781   6.538   6.128   5.041  0.0304 -0.5856  0.2884
17122TIP3    H272782   6.539   5.991   4.977 -0.0998 -1.1664  1.4922
17123TIP3   OH272783   0.585   3.257  16.184 -0.2747  0.1019  0.1140
17123TIP3    H172784   0.552   3.347  16.187 -1.1876 -0.2299  0.2902
17123TIP3    H272785   0.668   3.260  16.233  1.1178  1.3957 -2.1240
17124TIP3   OH272786   3.582   5.121   2.215 -0.0715  0.1140  0.0366
17124TIP3    H172787   3.528   5.102   2.292  0.3531  1.1317  0.6158
17124TIP3    H272788   3.671   5.103   2.244 -0.0768 -1.5151 -0.9009
17125TIP3   OH272789   6.522   3.596   0.719  0.1666 -0.1489 -0.5828
17125TIP3    H172790   6.427   3.609   0.715  0.2541  0.2344 -1.7535
17125TIP3    H272791   6.547   3.570   0.630  1.4360  1.8751 -0.8965
17126TIP3   OH272792   1.010   5.178  10.976  0.5159  0.7553 -0.0208
17126TIP3    H172793   1.010   5.086  10.951 -2.5391  0.6394  0.1423
17126TIP3    H272794   0.986   5.225  10.897 -0.3626  1.1687  0.4746
17127TIP3   OH272795   0.976   6.631  15.670 -0.1117  0.7021  0.0753
17127TIP3    H172796   0.976   6.540  15.639  4.1818 -0.1231  1.7200
17127TIP3    H272797   0.914   6.631  15.743 -1.0957 -0.5239 -0.7084
17128TIP3   OH272798   1.825   5.572   3.308  0.3585 -0.1014  0.0545
17128TIP3    H172799   1.920   5.581   3.315  0.3572 -0.0351 -0.0209
17128TIP3    H272800   1.812   5.527   3.225  0.2093  1.7704 -0.9793
17129TIP3   OH272801   1.044   6.005   6.033 -0.5620  0.7010  0.5760
17129TIP3    H172802   0.952   6.022   6.054 -0.8754 -0.5977  0.3406
17129TIP3    H272803   1.078   6.091   6.007 -1.8729  1.1084  0.0638
17130TIP3   OH272804   6.495   6.546  16.208 -0.1599 -0.7225  0.6419
17130TIP3    H172805   6.544   6.612  16.158 -0.8868 -0.0880  0.7552
17130TIP3    H272806   6.437   6.506  16.144 -0.6378 -0.3529  0.8431
17131TIP3   OH272807   5.415   5.867  11.177  0.0465  0.3233  0.0217
17131TIP3    H172808   5.325   5.888  11.154 -0.0151  0.0070 -0.0219
17131TIP3    H272809   5.409   5.826  11.264  0.1988  0.7681  0.2487
17132TIP3   OH272810   0.859   6.274   3.477 -0.2458 -0.2620  0.4842
17132TIP3    H172811   0.829   6.267   3.387 -2.5048 -0.1827  1.1647
17132TIP3    H272812   0.844   6.188   3.515 -0.7581  0.1213  1.1745
17133TIP3   OH272813   4.622   6.149   1.815 -0.2199  0.4371  0.1825
17133TIP3    H172814   4.703   6.137   1.865 -0.4736 -0.9276  0.3062
17133TIP3    H272815   4.648   6.203   1.740  1.1565 -1.1121 -0.5362
17134TIP3   OH272816   0.965   2.465   1.870 -0.3148 -0.1538 -0.3114
17134TIP3    H172817   0.984   2.386   1.820 -0.1386  0.0668 -0.6007
17134TIP3    H272818   1.004   2.536   1.818  1.7772 -0.1096  1.1930
17135TIP3   OH272819   2.419   5.556  13.136  0.1351  0.0322  0.0221
17135TIP3    H172820   2.424   5.638  13.185  1.1874  1.0526 -1.6688
17135TIP3    H272821   2.423   5.583  13.044  2.6382 -1.9730 -0.5749
17136TIP3   OH272822   0.653   1.915  16.058  0.0004  0.2010 -0.7437
17136TIP3    H172823   0.660   1.995  16.004 -0.2602  0.4689 -0.3832
17136TIP3    H272824   0.567   1.921  16.099  0.7642  0.7490  0.8713
17137TIP3   OH272825   2.847   2.490  13.548  0.2624  0.4822  0.1765
17137TIP3    H172826   2.933   2.522  13.574 -0.2503  2.5587 -0.4959
17137TIP3    H272827   2.855   2.474  13.454 -0.1568  0.9886  0.0513
17138TIP3   OH272828   1.259   0.917  13.780  0.1857  0.1266  0.4412
17138TIP3    H172829   1.235   0.824  13.782 -0.8827  0.3318 -0.9147
17138TIP3    H272830   1.230   0.951  13.865  0.6531 -0.7770  0.9812
17139TIP3   OH272831   0.226   2.456  17.142  0.0610 -0.2168 -0.1163
17139TIP3    H172832   0.308   2.457  17.192 -1.1031  0.2375  1.9273
17139TIP3    H272833   0.175   2.385  17.182 -0.1891 -1.2085 -2.0564
17140TIP3   OH272834   3.833   0.890   0.337  0.2935  0.1349  0.1443
17140TIP3    H172835   3.840   0.825   0.407 -0.8505  1.2534  1.3750
17140TIP3    H272836   3.757   0.942   0.361  0.6200  1.3462 -1.2971
17141TIP3   OH272837   0.144   1.757  12.985  0.5291  0.0790  0.1574
17141TIP3    H172838   0.055   1.755  12.950  0.2969  0.4727  0.7221
17141TIP3    H272839   0.182   1.837  12.948  0.3701  0.3550  0.5839
17142TIP3   OH272840   4.958   5.000   3.738 -0.4833  0.6048  0.6429
17142TIP3    H172841   4.929   5.077   3.689  0.6184  0.7473  0.1963
17142TIP3    H272842   5.019   4.956   3.679 -1.1759 -0.6853  0.8451
17143TIP3   OH272843   0.587   5.811  15.573  0.4887 -0.3697 -0.3860
17143TIP3    H172844   0.594   5.740  15.510 -0.3345  1.3216 -2.5348
17143TIP3    H272845   0.655   5.873  15.547  0.7668 -0.0598  1.0180
17144TIP3   OH272846   4.713   2.372   0.421 -0.5186  0.1880  0.3697
17144TIP3    H172847   4.776   2.435   0.385  0.1125 -0.6010  0.0579
17144TIP3    H272848   4.627   2.411   0.404 -0.1404  1.0046  0.2679
17145TIP3   OH272849   4.930   0.949   4.653 -0.7767  0.2302  0.6075
17145TIP3    H172850   5.019   0.982   4.642 -0.5124 -0.3086  1.0644
17145TIP3    H272851   4.923   0.929   4.747 -1.7656  1.3633  0.7939
17146TIP3   OH272852   4.506   0.688  14.784 -0.2616  0.6246  0.7127
17146TIP3    H172853   4.469   0.652  14.703 -2.9385  1.8739  1.2916
17146TIP3    H272854   4.583   0.737  14.754 -0.7783  0.4760 -1.0005
17147TIP3   OH272855   5.704   2.859   0.671  0.0669 -0.4290  0.4171
17147TIP3    H172856   5.689   2.910   0.750 -1.3335 -0.5513  0.2462
17147TIP3    H272857   5.640   2.892   0.608  0.8591 -0.6446 -0.5391
17148TIP3   OH272858   0.582   2.003   3.411  0.1023  0.7379  0.0412
17148TIP3    H172859   0.498   2.040   3.437 -0.5538  0.7057 -1.8637
17148TIP3    H272860   0.623   1.975   3.493 -3.0491 -2.0835  0.8734
17149TIP3   OH272861   4.822   5.538   3.425  0.3633 -0.5476 -0.0886
17149TIP3    H172862   4.778   5.458   3.396 -0.5663 -1.0251  2.3727
17149TIP3    H272863   4.812   5.537   3.521  2.7138  1.1426  0.2468
17150TIP3   OH272864   3.834   4.733   1.867  0.5015  0.0445 -0.0823
17150TIP3    H172865   3.743   4.762   1.859  0.2824 -0.3623  0.8001
17150TIP3    H272866   3.886   4.808   1.841 -0.0927 -0.1708 -2.0389
17151TIP3   OH272867   5.435   2.275   3.543 -0.3064  0.1415 -0.1116
17151TIP3    H172868   5.370   2.307   3.480  0.2407  1.2798 -0.1220
17151TIP3    H272869   5.408   2.312   3.627 -0.4471 -0.5168  0.1367
17152TIP3   OH272870   4.435   1.075   4.973  0.3553  0.5390 -0.1238
17152TIP3    H172871   4.429   1.099   5.065 -1.0583  1.4639 -0.4347
17152TIP3    H272872   4.380   1.138   4.927 -0.0209 -0.6902 -1.4655
17153TIP3   OH272873   3.943   5.892  15.982  0.1040  0.0183  0.8486
17153TIP3    H172874   4.025   5.867  15.940  0.6942  0.6319  1.6100
17153TIP3    H272875   3.890   5.929  15.911  0.0443 -1.3703  0.1405
17154TIP3   OH272876   2.372   2.947   2.336 -0.6365 -0.9050  0.0272
17154TIP3    H172877   2.311   2.947   2.409 -0.7541  0.6052 -0.0302
17154TIP3    H272878   2.459   2.951   2.378 -0.6187 -1.6709  0.0854
17155TIP3   OH272879   2.183   6.426   5.083  0.0037  0.3322 -0.4125
17155TIP3    H172880   2.161   6.335   5.066  1.5667 -0.0898 -0.3232
17155TIP3    H272881   2.265   6.422   5.132 -1.1619  1.7043  1.8180
17156TIP3   OH272882   3.886   3.076  12.429  0.1604 -0.1941 -0.2014
17156TIP3    H172883   3.888   3.029  12.346  1.3832 -0.5608  0.0198
17156TIP3    H272884   3.972   3.060  12.468 -0.3159  0.1550  1.0343
17157TIP3   OH272885   5.756   0.981   3.303 -0.1733 -0.3853  0.5609
17157TIP3    H172886   5.792   0.896   3.275 -1.9108 -0.7405 -0.8013
17157TIP3    H272887   5.781   0.989   3.395  2.8201 -0.8323 -0.0937
17158TIP3   OH272888   5.582   5.926   4.698 -0.1763  0.4650  0.5690
17158TIP3    H172889   5.644   5.965   4.760  0.7539 -1.1056  0.6667
17158TIP3    H272890   5.597   5.975   4.617 -0.4376  1.6189  1.1879
17159TIP3   OH272891   0.944   4.269   3.622  0.0625  0.8888 -0.5090
17159TIP3    H172892   0.995   4.254   3.542 -0.5079  1.7441 -1.0519
17159TIP3    H272893   0.868   4.211   3.614  0.4968  0.2424 -0.1007
17160TIP3   OH272894   1.392   4.204  12.213 -0.5110 -0.1930  0.0326
17160TIP3    H172895   1.379   4.285  12.262 -1.9859  0.1521 -0.8759
17160TIP3    H272896   1.482   4.210  12.181 -0.3737  0.7565  0.5495
17161TIP3   OH272897   6.210   2.563   0.787 -0.0082 -0.1291  0.1072
17161TIP3    H172898   6.169   2.503   0.725  1.6243 -1.6337  0.3962
17161TIP3    H272899   6.267   2.618   0.734 -0.7203  0.4936 -0.0310
17162TIP3   OH272900   6.505   6.623   1.661  0.3614  0.0130  0.3901
17162TIP3    H172901   6.421   6.638   1.619 -0.2418 -0.9584  1.2294
17162TIP3    H272902   6.552   6.706   1.651 -0.9375  0.7763  0.4974
17163TIP3   OH272903   2.435   0.270  14.898  0.1120 -0.1809  0.2637
17163TIP3    H172904   2.437   0.180  14.930 -0.6532  0.0013  0.8491
17163TIP3    H272905   2.369   0.314  14.952  0.5595  0.7629  0.0684
17164TIP3   OH272906   0.041   6.326  11.544 -0.5677  0.5046  0.5227
17164TIP3    H172907   0.014   6.321  11.453  0.1354 -0.1343  0.3347
17164TIP3    H272908   0.088   6.244  11.560  2.2126  1.9700  0.4797
17165TIP3   OH272909   0.251   6.681   3.087 -0.7588 -0.1155  0.4561
17165TIP3    H172910   0.346   6.682   3.097 -0.5500 -1.4177 -0.9324
17165TIP3    H272911   0.217   6.726   3.165  0.9519 -0.3831  1.3954
17166TIP3   OH272912   1.277   0.944  14.891 -0.7527  0.3766  0.0925
17166TIP3    H172913   1.344   0.996  14.935 -0.4442 -0.3025  0.4527
17166TIP3    H272914   1.237   1.003  14.828 -2.5862  2.0267  2.6139
17167TIP3   OH272915   2.742   0.757  14.124 -0.4310 -0.3076 -0.0066
17167TIP3    H172916   2.801   0.763  14.049  1.5108  1.3344  1.5165
17167TIP3    H272917   2.740   0.846  14.159 -1.2454 -1.0259  1.8892
17168TIP3   OH272918   2.507   1.625  16.574  0.4151 -0.1128  0.0033
17168TIP3    H172919   2.557   1.707  16.570 -0.8524  0.8655  2.1973
17168TIP3    H272920   2.418   1.653  16.595 -0.4145 -1.9933 -0.8076
17169TIP3   OH272921   0.104   0.860  15.070 -0.1085 -0.4078  0.0797
17169TIP3    H172922   0.087   0.921  15.142 -0.9491  0.2541 -0.6526
17169TIP3    H272923   0.116   0.775  15.113 -0.6228 -0.0306  1.0066
17170TIP3   OH272924   0.673   3.160  12.746 -0.7767 -0.6831  0.4682
17170TIP3    H172925   0.713   3.200  12.824 -0.9379  0.4125  0.0047
17170TIP3    H272926   0.736   3.176  12.676 -1.6165  0.3349 -0.0905
17171TIP3   OH272927   3.692   1.641   3.905 -0.1765 -0.2358 -0.5158
17171TIP3    H172928   3.638   1.584   3.961 -0.4104  0.6588  0.2091
17171TIP3    H272929   3.694   1.725   3.952  2.9063 -0.5799  0.1285
17172TIP3   OH272930   5.082   2.676   4.287 -0.6754 -0.0390  0.7485
17172TIP3    H172931   5.001   2.726   4.285 -0.7896 -0.2550 -0.0773
17172TIP3    H272932   5.066   2.600   4.231  0.6151  0.7366 -0.7421
17173TIP3   OH272933   4.112   3.783  17.059  0.4222  0.1744 -0.7227
17173TIP3    H172934   4.172   3.754  17.128  1.0073  0.0807 -1.2655
17173TIP3    H272935   4.028   3.793  17.104  0.4856 -1.1265 -0.2537
17174TIP3   OH272936   6.763   3.267  10.431 -0.5395  0.0211 -0.8927
17174TIP3    H172937   6.799   3.298  10.348 -0.1797  0.9745 -0.3965
17174TIP3    H272938   6.744   3.346  10.480  2.5585 -0.4326  1.3667
17175TIP3   OH272939   2.775   6.207   5.269  0.0646  0.2790 -0.0947
17175TIP3    H172940   2.699   6.257   5.298  0.8113  1.3148  0.1660
17175TIP3    H272941   2.836   6.274   5.236  0.1544 -0.6585 -1.9577
17176TIP3   OH272942   0.747   3.759  11.522  0.1084  0.1991 -0.2072
17176TIP3    H172943   0.659   3.721  11.528  0.1239  0.3335  1.1936
17176TIP3    H272944   0.794   3.701  11.461 -0.1747 -1.4788  1.0940
17177TIP3   OH272945   3.692   4.987   2.958 -0.2295 -0.2104  0.4436
17177TIP3    H172946   3.741   5.049   2.904  0.6674 -0.2040  1.2389
17177TIP3    H272947   3.606   4.982   2.917 -0.2849  1.4728  0.3020
17178TIP3   OH272948   0.054   4.394  13.643 -0.3251  0.7136  0.5444
17178TIP3    H172949   0.023   4.315  13.688  0.4251  0.4856  0.6671
17178TIP3    H272950   0.111   4.362  13.573  1.4826  1.1733  1.7247
17179TIP3   OH272951   4.736   2.103  16.843 -0.5368  0.5106 -0.7477
17179TIP3    H172952   4.815   2.113  16.897  0.6907  1.6867 -2.6537
17179TIP3    H272953   4.724   2.009  16.836  0.8397  0.2976 -0.5882
17180TIP3   OH272954   2.178   3.528   5.831 -0.7591  0.4950 -0.1561
17180TIP3    H172955   2.242   3.564   5.770  0.1886  1.1367  1.1779
17180TIP3    H272956   2.223   3.454   5.872 -1.8219 -0.7089 -1.0798
17181TIP3   OH272957   6.369   4.137   3.423 -0.4362 -0.2843 -0.6470
17181TIP3    H172958   6.454   4.111   3.388 -0.3104 -2.5316  1.1317
17181TIP3    H272959   6.389   4.207   3.485 -0.2098  0.8827 -1.9944
17182TIP3   OH272960   4.427   0.290   5.864  0.3303 -0.0277  0.1807
17182TIP3    H172961   4.443   0.311   5.956  1.3977  0.2763 -0.0705
17182TIP3    H272962   4.355   0.227   5.867  1.8520 -1.8011  1.3641
17183TIP3   OH272963   3.432   4.944   1.580 -0.2259  0.2530 -0.0470
17183TIP3    H172964   3.386   5.018   1.619  0.0192 -0.0275  0.7989
17183TIP3    H272965   3.377   4.868   1.600 -0.6645  0.2405 -1.2269
17184TIP3   OH272966   0.853   4.769   2.660  0.6045  0.7625  0.0800
17184TIP3    H172967   0.833   4.828   2.733  0.3747 -0.3176  0.9126
17184TIP3    H272968   0.769   4.756   2.616  0.4541  0.2517  0.5139
17185TIP3   OH272969   4.389   6.510   0.328  0.0100  0.4438  0.0464
17185TIP3    H172970   4.430   6.593   0.353 -0.1027  0.7985 -0.9111
17185TIP3    H272971   4.357   6.525   0.239  0.6640 -0.8802 -0.4323
17186TIP3   OH272972   3.947   5.788   6.363 -0.1344 -0.1164 -0.1875
17186TIP3    H172973   3.945   5.699   6.326  0.8270  1.2156 -3.9200
17186TIP3    H272974   4.039   5.801   6.387  0.4518  0.7657 -2.5624
17187TIP3   OH272975   0.181   0.992  11.270  0.1336 -0.0719 -0.3062
17187TIP3    H172976   0.147   0.945  11.346 -1.2165  1.2627 -0.0347
17187TIP3    H272977   0.266   1.025  11.298 -0.1629  0.0370  0.4875
17188TIP3   OH272978   5.569   1.486  11.745  0.4504 -0.8839 -0.2302
17188TIP3    H172979   5.620   1.554  11.702 -0.2327 -0.0414  0.2578
17188TIP3    H272980   5.549   1.424  11.675 -0.0854  0.1220 -0.9970
17189TIP3   OH272981   1.608   0.220  16.007  0.1676 -0.2660  0.1895
17189TIP3    H172982   1.592   0.126  16.010 -0.5932 -0.1482  0.0783
17189TIP3    H272983   1.703   0.229  16.018  0.3703 -1.0904 -0.7335
17190TIP3   OH272984   6.412   4.560   2.759 -0.2842  0.1437  0.1005
17190TIP3    H172985   6.416   4.465   2.748 -0.3477  0.3205 -1.8517
17190TIP3    H272986   6.502   4.589   2.745 -0.0432  0.2958  1.8424
17191TIP3   OH272987   2.337   3.160  14.838  0.0975 -0.7413 -0.2160
17191TIP3    H172988   2.295   3.085  14.797  1.1058 -1.1642 -0.4976
17191TIP3    H272989   2.408   3.184  14.779 -2.3091  2.7568 -2.0865
17192TIP3   OH272990   4.978   6.490  12.411 -0.4532  0.1002  0.2639
17192TIP3    H172991   5.003   6.519  12.499 -0.3619  0.7208  0.0399
17192TIP3    H272992   5.061   6.485  12.364 -0.6459  1.4391 -0.2670
17193TIP3   OH272993   3.219   1.342   6.322  0.5755 -0.5930  0.1480
17193TIP3    H172994   3.253   1.431   6.330  0.6527 -0.6659  0.6889
17193TIP3    H272995   3.250   1.311   6.237  0.6924 -0.1655  0.0352
17194TIP3   OH272996   2.455   3.517  14.087 -0.2811 -0.1115  1.0397
17194TIP3    H172997   2.464   3.423  14.106  0.6430 -0.0961  0.7275
17194TIP3    H272998   2.383   3.522  14.025 -0.0622 -0.6644  0.7311
17195TIP3   OH272999   0.471   2.207  11.711  0.0934  0.1721 -0.4540
17195TIP3    H173000   0.376   2.202  11.706  0.0948  1.0064 -1.7819
17195TIP3    H273001   0.501   2.121  11.681 -0.2232 -0.9549  2.1571
17196TIP3   OH273002   6.752   4.207  10.272  0.8389 -0.1061  0.2860
17196TIP3    H173003   6.760   4.115  10.300  1.3769  0.3640  1.7594
17196TIP3    H273004   6.781   4.258  10.347  0.2863  1.3005 -0.4118
17197TIP3   OH273005   5.886   2.858   5.902  0.2646 -0.3287  0.6067
17197TIP3    H173006   5.850   2.916   5.969  1.8461 -0.4330  1.6254
17197TIP3    H273007   5.972   2.895   5.882 -0.3441 -0.0335 -1.7594
17198TIP3   OH273008   3.197   5.578   1.038  0.3293 -0.7369  0.3246
17198TIP3    H173009   3.201   5.529   1.120 -0.0843 -0.2633  0.6289
17198TIP3    H273010   3.186   5.669   1.064  0.3304 -0.5661 -0.2535
17199TIP3   OH273011   3.551   4.442  11.555 -0.2640  0.7904  0.1215
17199TIP3    H173012   3.643   4.446  11.579  0.0269  0.5272 -0.9142
17199TIP3    H273013   3.522   4.534  11.558 -0.4431  0.7201  2.1193
17200TIP3   OH273014   3.709   4.224  11.449 -0.0620  0.2803  0.0488
17200TIP3    H173015   3.662   4.162  11.505 -0.4767 -0.7661 -1.3940
17200TIP3    H273016   3.769   4.269  11.508 -3.1409  2.0430  2.0931
17201TIP3   OH273017   6.655   2.377  11.268  0.3298 -0.8197 -0.5131
17201TIP3    H173018   6.686   2.467  11.264  0.5016 -0.9034 -1.0928
17201TIP3    H273019   6.664   2.353  11.360 -0.2858 -0.0472 -0.2422
17202TIP3   OH273020   0.770   6.570  16.855  0.3019  0.7462  0.0722
17202TIP3    H173021   0.702   6.569  16.788  0.6513  1.5200 -0.3139
17202TIP3    H273022   0.816   6.486  16.845 -0.3535  0.3842  0.0920
17203TIP3   OH273023   0.243   0.740  16.371 -0.1177 -0.2287 -0.4942
17203TIP3    H173024   0.167   0.763  16.318 -1.2821 -3.2381 -0.3329
17203TIP3    H273025   0.213   0.750  16.462  0.7467  1.5562 -0.3681
17204TIP3   OH273026   6.116   6.381  11.389  0.2254  0.1737 -0.7203
17204TIP3    H173027   6.087   6.470  11.413 -1.9992 -1.1609  2.3079
17204TIP3    H273028   6.058   6.356  11.318  0.2512  0.8199 -0.9810
17205TIP3   OH273029   5.352   0.479   6.182 -0.5101  0.4212  0.5381
17205TIP3    H173030   5.380   0.434   6.102  1.0893 -1.6132  2.1320
17205TIP3    H273031   5.257   0.488   6.172 -0.2791  0.8755 -1.8585
17206TIP3   OH273032   5.019   0.398  16.713  0.5961 -0.3165 -0.1310
17206TIP3    H173033   4.946   0.458  16.729  0.7065  0.1043 -1.1784
17206TIP3    H273034   5.054   0.380  16.801 -0.6686 -0.4221  0.3803
17207TIP3   OH273035   0.111   5.000  16.007 -0.7778  0.3497  0.2345
17207TIP3    H173036   0.123   4.953  16.089  0.4934  1.9578  1.0273
17207TIP3    H273037   0.127   5.092  16.030 -1.6725  0.9906 -1.5544
17208TIP3   OH273038   0.014   1.135  13.371  0.2367  0.0798  0.1410
17208TIP3    H173039   0.030   1.204  13.436  0.6460  0.7445 -0.6377
17208TIP3    H273040   0.094   1.083  13.372  0.1239 -0.0888  0.3805
17209TIP3   OH273041   3.411   5.066  16.773 -0.0816 -0.6167  0.5474
17209TIP3    H173042   3.424   4.971  16.779 -0.0685 -0.6844 -0.4521
17209TIP3    H273043   3.327   5.076  16.730  0.1197 -0.1683  0.2577
17210TIP3   OH273044   3.368   0.260  14.934 -0.0660 -0.3399 -0.3461
17210TIP3    H173045   3.298   0.314  14.898 -0.8674 -1.6552 -0.8314
17210TIP3    H273046   3.406   0.216  14.858 -0.3301 -1.4762  0.1529
17211TIP3   OH273047   4.884   3.384  11.870  0.3864  0.1697 -0.2927
17211TIP3    H173048   4.841   3.301  11.851  0.4612 -0.0486  0.4636
17211TIP3    H273049   4.838   3.417  11.948 -0.1352  1.1939 -1.0190
17212TIP3   OH273050   0.645   2.217   0.060  0.3930  0.1652 -0.5956
17212TIP3    H173051   0.593   2.255  -0.011 -0.3578  0.3941  0.0505
17212TIP3    H273052   0.642   2.284   0.129  0.1541 -0.5230  0.0721
17213TIP3   OH273053   0.653   1.504   5.033  0.2091 -0.1089 -0.5270
17213TIP3    H173054   0.599   1.476   4.959  1.4702  0.0700 -1.5461
17213TIP3    H273055   0.645   1.433   5.097 -0.1454 -0.7093 -1.2256
17214TIP3   OH273056   5.352   1.550  11.892 -0.2239 -0.1165  0.1757
17214TIP3    H173057   5.440   1.555  11.854  0.4709  1.3431  1.8398
17214TIP3    H273058   5.298   1.512  11.822  1.2736  0.9885 -1.6988
17215TIP3   OH273059   0.908   0.473  16.431  0.1139 -0.0741 -0.1002
17215TIP3    H173060   0.817   0.501  16.419  0.0211 -1.1305 -2.3134
17215TIP3    H273061   0.903   0.404  16.498 -0.5292  0.6257  0.5948
17216TIP3   OH273062   0.058   2.196  16.438 -0.6108 -0.1789 -0.1350
17216TIP3    H173063  -0.007   2.257  16.473  0.1320  0.9720 -0.7020
17216TIP3    H273064   0.138   2.213  16.488 -0.4608 -0.8747 -0.1213
17217TIP3   OH273065   0.311   4.060   3.047  0.0192 -0.1583 -0.2282
17217TIP3    H173066   0.367   4.103   2.983 -0.1820 -1.8360 -1.5866
17217TIP3    H273067   0.336   4.100   3.131  3.0885 -0.6648 -0.7940
17218TIP3   OH273068   5.421   1.190  16.902  0.8048 -0.2292  0.1403
17218TIP3    H173069   5.437   1.115  16.844 -0.0676  1.4078 -2.3574
17218TIP3    H273070   5.509   1.220  16.926  1.1750 -1.4044  0.3563
17219TIP3   OH273071   1.651   5.072  14.643  0.0801  1.0058 -0.1665
17219TIP3    H173072   1.693   5.121  14.714  3.2004 -2.4205  0.6425
17219TIP3    H273073   1.612   4.996  14.686 -0.7951  0.4780 -1.8222
17220TIP3   OH273074   1.632   0.749  15.482 -0.2887 -0.0572  0.0420
17220TIP3    H173075   1.689   0.822  15.459 -1.2827  0.8864  0.5138
17220TIP3    H273076   1.584   0.729  15.401 -1.1102  0.8260  0.2975
17221TIP3   OH273077   0.706   0.960  17.100 -0.6122 -0.3153  0.0187
17221TIP3    H173078   0.707   1.014  17.179 -2.0691 -0.0913 -0.0871
17221TIP3    H273079   0.787   0.982  17.055 -1.0979  1.7071  0.0441
17222TIP3   OH273080   0.709   6.020   0.489 -0.3197  0.1562  0.0815
17222TIP3    H173081   0.686   5.939   0.443 -0.0689 -0.2809  0.7166
17222TIP3    H273082   0.631   6.042   0.540 -0.5134  0.5132 -0.3592
17223TIP3   OH273083   4.456   2.649  15.641  0.2321 -0.0510  0.1671
17223TIP3    H173084   4.400   2.637  15.564  0.1709  1.3335 -0.0280
17223TIP3    H273085   4.542   2.620  15.612  0.7332  2.5287 -1.2128
17224TIP3   OH273086   2.548   5.813  14.763 -0.8293  0.1292 -0.0472
17224TIP3    H173087   2.509   5.809  14.676  1.2098  0.4708 -1.0267
17224TIP3    H273088   2.633   5.772  14.754 -0.5827  0.1279  1.8109
17225TIP3   OH273089   4.824   1.831  12.011 -0.2478 -0.3422  0.2019
17225TIP3    H173090   4.897   1.846  12.071  0.8838 -0.4029 -1.1067
17225TIP3    H273091   4.753   1.798  12.066 -0.0531  1.8246  1.8748
17226TIP3   OH273092   0.031   5.542  12.312 -0.4150  0.4607  0.4159
17226TIP3    H173093   0.056   5.624  12.354 -1.2465  1.8110 -1.6255
17226TIP3    H273094   0.098   5.479  12.341  1.3791  2.3066  0.4648
17227TIP3   OH273095   6.668   1.681   5.019 -0.2421 -0.3231  0.8348
17227TIP3    H173096   6.617   1.662   4.940  0.0840  0.9743  0.2830
17227TIP3    H273097   6.626   1.759   5.056  1.3197  0.8177  0.3394
17228TIP3   OH273098   4.462   2.246   3.981 -0.0105 -0.3407  0.4872
17228TIP3    H173099   4.372   2.214   3.974 -0.6495  1.1503  1.3241
17228TIP3    H273100   4.453   2.341   3.985  1.8462  0.1314 -3.0505
17229TIP3   OH273101   6.490   0.648  16.780 -0.1457 -0.0745 -0.2309
17229TIP3    H173102   6.402   0.673  16.808  0.6039  1.1997  1.1138
17229TIP3    H273103   6.523   0.725  16.734  0.9938  0.2245  1.0503
17230TIP3   OH273104   4.738   4.038  17.369  0.3169 -0.1450  0.2728
17230TIP3    H173105   4.798   4.088  17.313 -1.0529 -0.3362 -1.4238
17230TIP3    H273106   4.660   4.094  17.376  0.7397  0.2306  2.6868
17231TIP3   OH273107   1.546   4.886  16.437  0.5606 -0.5017 -0.0326
17231TIP3    H173108   1.628   4.846  16.464 -0.1242 -2.0324 -0.0782
17231TIP3    H273109   1.568   4.940  16.362  1.5634 -0.6543  0.1468
17232TIP3   OH273110   3.281   1.752   1.763  0.2782 -0.2004  0.1361
17232TIP3    H173111   3.196   1.759   1.806  1.7094  0.7836  3.0015
17232TIP3    H273112   3.317   1.669   1.795  1.2016  0.3510  0.5527
17233TIP3   OH273113   1.937   0.929  14.576  0.1484 -0.0727  0.8184
17233TIP3    H173114   1.910   0.859  14.634  0.3408 -1.3569 -0.5679
17233TIP3    H273115   1.857   0.956  14.531  0.5451 -1.7281 -1.0246
17234TIP3   OH273116   5.501   5.132   1.423  0.0527 -0.3681  0.3190
17234TIP3    H173117   5.447   5.209   1.442  0.3533  0.1197 -0.7224
17234TIP3    H273118   5.471   5.103   1.337 -0.7277 -2.0189  1.1025
17235TIP3   OH273119   4.215   1.643   1.767  0.3498  0.5831  0.2392
17235TIP3    H173120   4.243   1.718   1.819  0.7361  1.1427 -0.7341
17235TIP3    H273121   4.120   1.642   1.775  0.2203  1.9435 -0.7130
17236TIP3   OH273122   5.469   6.716   2.469 -0.0505  0.0741 -0.1141
17236TIP3    H173123   5.378   6.704   2.442 -0.6696  1.4124  1.2567
17236TIP3    H273124   5.468   6.794   2.524  2.0289  0.4244 -0.4884
17237TIP3   OH273125   5.453   5.368  14.332  0.6693  0.1026 -0.4620
17237TIP3    H173126   5.434   5.460  14.351  2.8556  0.2663  1.3604
17237TIP3    H273127   5.378   5.321  14.369 -0.1007  1.0738 -0.7078
17238TIP3   OH273128   2.702   5.564   3.412 -0.5090  0.3286 -0.1015
17238TIP3    H173129   2.762   5.490   3.422 -0.1769  0.3398 -1.8098
17238TIP3    H273130   2.632   5.546   3.475 -0.2509 -1.2491 -0.2136
17239TIP3   OH273131   1.489   0.718   0.155 -0.0889  0.2031  0.6556
17239TIP3    H173132   1.470   0.662   0.080 -0.4095  1.9996 -0.6592
17239TIP3    H273133   1.413   0.708   0.212 -0.5122 -0.0774  0.0532
17240TIP3   OH273134   0.692   0.934  12.216 -0.0880 -0.2337  0.3833
17240TIP3    H173135   0.752   0.921  12.289  0.3221  0.2075  0.1310
17240TIP3    H273136   0.671   0.846  12.185  1.1469 -0.3693 -0.1113
17241TIP3   OH273137   2.888   4.210  15.799 -0.4372  0.0215  0.0175
17241TIP3    H173138   2.885   4.250  15.712 -0.1239  0.7970  0.3518
17241TIP3    H273139   2.823   4.140  15.795  0.0822 -0.4332 -1.0686
17242TIP3   OH273140   0.733   1.795  16.556 -0.2535  0.0504 -0.4216
17242TIP3    H173141   0.675   1.806  16.481 -0.0192 -0.7664 -0.7338
17242TIP3    H273142   0.797   1.730  16.528  0.0656  0.0120  0.3553
17243TIP3   OH273143   2.498   5.925  16.645 -0.1036  0.4100  0.4199
17243TIP3    H173144   2.447   5.966  16.575  0.2023  0.1262  0.0252
17243TIP3    H273145   2.478   5.832  16.637 -0.3851  0.4191  0.9727
17244TIP3   OH273146   3.969   0.686  15.757  0.8046 -0.3060 -0.0243
17244TIP3    H173147   3.940   0.668  15.668 -0.0512 -0.3977  0.2589
17244TIP3    H273148   3.896   0.656  15.812  1.2923 -0.1916  0.7001
17245TIP3   OH273149   2.038   5.114  12.063  0.8155  0.8172 -0.0887
17245TIP3    H173150   2.023   5.085  12.153  1.0838  1.2641  0.1014
17245TIP3    H273151   1.951   5.140  12.032  0.8838  1.7084  0.4182
17246TIP3   OH273152   0.600   4.913  10.910 -0.5108  0.0441  0.7934
17246TIP3    H173153   0.516   4.872  10.889 -1.7014  1.4257  2.5298
17246TIP3    H273154   0.657   4.840  10.934 -1.1586 -0.9256 -0.5229
17247TIP3   OH273155   0.570   5.047   5.487 -0.1256 -0.1033  0.0170
17247TIP3    H173156   0.584   4.966   5.536  1.0882  0.2283  0.2395
17247TIP3    H273157   0.551   5.113   5.554 -3.5144 -0.6059 -0.2719
17248TIP3   OH273158   4.471   4.379   2.282 -0.2730  0.2552 -0.4229
17248TIP3    H173159   4.524   4.301   2.296 -2.0301 -0.8063  0.7863
17248TIP3    H273160   4.500   4.413   2.197  1.3323 -1.0377 -0.4369
17249TIP3   OH273161   5.117   5.573   1.047  0.3566  0.3806  0.0287
17249TIP3    H173162   5.123   5.577   1.143  0.7474 -0.3042  0.0384
17249TIP3    H273163   5.079   5.657   1.022 -0.0038  0.4571  0.8061
17250TIP3   OH273164   3.668   2.189  12.333 -0.3019 -0.6384 -0.3164
17250TIP3    H173165   3.734   2.160  12.396  0.8487  0.2555 -1.0794
17250TIP3    H273166   3.637   2.109  12.292 -1.0302 -1.2345  1.3164
17251TIP3   OH273167   6.434   3.287  16.046  0.5914  0.2610 -0.0002
17251TIP3    H173168   6.528   3.272  16.036  0.9428  1.6936  0.8717
17251TIP3    H273169   6.422   3.379  16.025 -0.5979  0.1293  0.0472
17252TIP3   OH273170   0.534   6.098  16.077  0.7671  0.1106  0.4309
17252TIP3    H173171   0.474   6.155  16.126  0.9309 -0.1164  0.8991
17252TIP3    H273172   0.616   6.146  16.074  0.6823  0.2400  0.1473
17253TIP3   OH273173   2.875   6.496   4.986 -0.1107  0.3059  0.0348
17253TIP3    H173174   2.915   6.424   4.937 -0.0451  0.0895  0.4007
17253TIP3    H273175   2.877   6.467   5.077 -1.0499  0.3139  0.0701
17254TIP3   OH273176   5.757   6.376  12.841  0.2992 -0.2149 -0.0070
17254TIP3    H173177   5.750   6.285  12.813 -0.4052  0.1065 -0.9115
17254TIP3    H273178   5.734   6.427  12.763  0.4066  0.7342  0.5701
17255TIP3   OH273179   1.602   2.515   3.883  0.0244 -0.5948  0.4119
17255TIP3    H173180   1.559   2.434   3.853  0.9470 -0.6772 -0.7377
17255TIP3    H273181   1.674   2.528   3.823  1.5206 -0.3354  2.1614
17256TIP3   OH273182   3.395   3.125   3.563  0.2351 -0.0867  0.1321
17256TIP3    H173183   3.413   3.145   3.654  1.1214 -2.3080  0.5049
17256TIP3    H273184   3.479   3.134   3.519  0.2504 -1.0388 -0.0499
17257TIP3   OH273185   4.088   4.977  15.761  0.6628 -0.1241 -0.0605
17257TIP3    H173186   4.144   4.900  15.747  0.7345  0.1150 -1.2012
17257TIP3    H273187   4.001   4.942  15.775  1.1596 -0.5434  2.4426
17258TIP3   OH273188   4.154   4.827  12.057  0.2292  0.2876  0.4725
17258TIP3    H173189   4.151   4.833  11.962  2.0608 -2.3012  0.1467
17258TIP3    H273190   4.194   4.910  12.085  1.7235  0.2021 -1.2306
17259TIP3   OH273191   3.960   6.461   1.810 -0.1365  0.0657  0.1352
17259TIP3    H173192   3.909   6.385   1.835  0.8506  0.4269  3.8422
17259TIP3    H273193   3.903   6.536   1.827 -0.4205  0.2894 -1.6127
17260TIP3   OH273194   1.348   5.977   2.830  0.8601  0.1894 -0.4732
17260TIP3    H173195   1.253   5.979   2.835  0.7272 -2.7325  0.0021
17260TIP3    H273196   1.377   6.027   2.905 -0.2065  2.5774 -1.5592
17261TIP3   OH273197   5.351   2.839   0.932 -0.1135 -0.1036 -0.0171
17261TIP3    H173198   5.281   2.781   0.961  0.3686 -1.2015 -0.9941
17261TIP3    H273199   5.431   2.787   0.940  0.3830  0.5627 -0.5067
17262TIP3   OH273200   0.877   0.075   2.508  0.3073 -0.6443 -0.0622
17262TIP3    H173201   0.912   0.005   2.453  1.6720 -0.7351  0.8780
17262TIP3    H273202   0.846   0.030   2.586 -1.9410 -0.5571 -0.8379
17263TIP3   OH273203   5.874   4.437  16.324  0.1943  0.2390 -0.4372
17263TIP3    H173204   5.800   4.415  16.381  1.6301 -0.9579  1.0459
17263TIP3    H273205   5.869   4.532  16.313 -0.0145  0.5404  1.8733
17264TIP3   OH273206   0.629   6.398  15.845 -0.4244 -0.2720 -0.1682
17264TIP3    H173207   0.535   6.397  15.862 -0.3244  0.3853  0.4791
17264TIP3    H273208   0.639   6.355  15.760 -1.2163 -1.2140  0.1985
17265TIP3   OH273209   6.055   0.027  17.183  0.5966  0.7007  0.1829
17265TIP3    H173210   6.098  -0.055  17.208  5.2179  2.2657 -1.4912
17265TIP3    H273211   6.067   0.084  17.259 -0.1655  0.6614  0.3399
17266TIP3   OH273212   4.090   5.906  16.231 -0.2103 -0.1749  0.2303
17266TIP3    H173213   4.035   5.889  16.155 -2.2659  1.1922  1.3249
17266TIP3    H273214   4.079   5.828  16.286  1.9558 -1.5616 -1.1288
17267TIP3   OH273215   0.579   3.560  11.857  0.0565  0.4634  0.3741
17267TIP3    H173216   0.652   3.499  11.868  0.2142  1.0572  3.2293
17267TIP3    H273217   0.620   3.647  11.856 -0.4465  0.7030 -0.2661
17268TIP3   OH273218   2.024   2.037   5.153 -0.6611 -0.1907 -0.4443
17268TIP3    H173219   2.039   2.105   5.087 -1.9209  0.9695  0.4022
17268TIP3    H273220   1.933   2.050   5.180  0.1023  0.1071  2.3088
17269TIP3   OH273221   3.881   1.160   3.034  0.3814 -0.4723  0.0143
17269TIP3    H173222   3.869   1.153   3.129  1.6366  0.6664  0.2954
17269TIP3    H273223   3.840   1.082   2.999  0.8285 -1.4772  1.5907
17270TIP3   OH273224   6.683   6.155   2.880  0.2359  0.1675  0.2458
17270TIP3    H173225   6.704   6.236   2.833 -1.2722  0.3098 -0.2196
17270TIP3    H273226   6.694   6.178   2.973  1.7208  0.3259  0.0545
17271TIP3   OH273227   2.370   2.707  14.480 -0.6125  0.2592  0.2909
17271TIP3    H173228   2.372   2.674  14.390 -0.9667 -1.1652  0.7872
17271TIP3    H273229   2.346   2.631  14.533  0.9621  0.7210  1.7538
17272TIP3   OH273230   2.185   0.727   0.716  0.2271  0.0783 -0.5190
17272TIP3    H173231   2.141   0.785   0.655 -1.9978  0.2865  1.1614
17272TIP3    H273232   2.203   0.648   0.665  0.9294  1.2068 -2.1239
17273TIP3   OH273233   1.171   5.763   1.869  0.2156 -0.6043 -0.5870
17273TIP3    H173234   1.225   5.807   1.803  0.2945  1.5205  0.8018
17273TIP3    H273235   1.165   5.672   1.838  2.1027 -0.2209 -2.3238
17274TIP3   OH273236   1.928   3.734   4.052 -0.3570  0.4661  0.4939
17274TIP3    H173237   1.847   3.782   4.070  0.5400  1.8202  1.0926
17274TIP3    H273238   1.902   3.664   3.993 -1.7062  1.7785 -0.5227
17275TIP3   OH273239   2.311   1.545   4.666 -0.1045  0.0426  0.4470
17275TIP3    H173240   2.215   1.539   4.658 -0.0838 -2.0258  1.1255
17275TIP3    H273241   2.344   1.536   4.577 -0.5173  1.0067  0.1785
17276TIP3   OH273242   2.418   4.724   4.826  0.5296  0.2816  0.3414
17276TIP3    H173243   2.350   4.734   4.893  1.8316  0.2259  1.7307
17276TIP3    H273244   2.456   4.811   4.818  1.3137 -0.0131  0.7346
17277TIP3   OH273245   3.487   2.335  12.674  0.4596  0.0888 -0.5388
17277TIP3    H173246   3.474   2.360  12.583  0.4919 -0.3011 -0.6561
17277TIP3    H273247   3.560   2.388  12.704  0.3319  0.3488 -0.6867
17278TIP3   OH273248   4.015   5.790   3.241  0.1469 -0.6135 -0.1768
17278TIP3    H173249   4.040   5.856   3.177 -2.2725  0.3981 -0.1641
17278TIP3    H273250   4.033   5.830   3.326 -3.1486  0.9573 -0.1029
17279TIP3   OH273251   1.646   1.357  15.376 -0.0987  0.0476  0.3640
17279TIP3    H173252   1.719   1.409  15.342  0.3346  0.1725  1.4378
17279TIP3    H273253   1.649   1.276  15.325  0.8296  0.0258  0.4308
17280TIP3   OH273254   0.522   0.801   1.552 -0.2542 -0.1429 -0.4124
17280TIP3    H173255   0.545   0.863   1.483  0.3101 -1.7834 -1.7788
17280TIP3    H273256   0.586   0.816   1.621  0.1679  0.4574 -0.9284
17281TIP3   OH273257   1.746   0.064  11.457 -0.3940  0.4052 -0.1511
17281TIP3    H173258   1.839   0.085  11.444  0.5374 -2.2970  1.4157
17281TIP3    H273259   1.725   0.103  11.542  0.0801 -1.0834  0.6814
17282TIP3   OH273260   4.390   4.506   4.289 -0.1806  0.0051  0.3514
17282TIP3    H173261   4.313   4.512   4.233 -0.2576 -2.2509  0.1219
17282TIP3    H273262   4.427   4.419   4.270  2.0730  0.7754  0.9069
17283TIP3   OH273263   3.755   2.090   2.858  0.5484 -0.1185  0.3335
17283TIP3    H173264   3.770   2.054   2.945 -2.2976  2.3457  2.0130
17283TIP3    H273265   3.697   2.027   2.816  0.8799 -0.6819  0.7128
17284TIP3   OH273266   4.686   6.348  14.784  0.1210 -0.4152 -0.6814
17284TIP3    H173267   4.606   6.397  14.804  1.2999  1.0984  0.5382
17284TIP3    H273268   4.714   6.313  14.869  1.3832  0.0903 -0.8692
17285TIP3   OH273269   5.301   4.176  15.040  1.1929 -0.1026  0.2426
17285TIP3    H173270   5.241   4.212  15.105  0.7109 -0.9373  0.2881
17285TIP3    H273271   5.332   4.251  14.990  1.2881  0.5047  1.2015
17286TIP3   OH273272   0.686   0.773   1.802 -0.3689  0.1802 -0.3898
17286TIP3    H173273   0.715   0.689   1.836  0.1685 -0.0568 -1.3754
17286TIP3    H273274   0.706   0.836   1.871 -1.7729 -0.6328  0.7967
17287TIP3   OH273275   6.368   3.335  17.003 -0.1106 -0.3169  0.3169
17287TIP3    H173276   6.300   3.301  17.061  1.3720 -0.4986  2.0802
17287TIP3    H273277   6.411   3.403  17.055  1.1039 -0.2854 -0.6843
17288TIP3   OH273278   3.231   1.355  14.159 -0.4559  0.0030 -0.6484
17288TIP3    H173279   3.302   1.301  14.125 -1.7203 -2.2861  0.1633
17288TIP3    H273280   3.240   1.350  14.254 -1.0535  0.5966 -0.5530
17289TIP3   OH273281   1.833   3.811   0.488 -0.4157 -0.6780 -0.4839
17289TIP3    H173282   1.869   3.725   0.505 -1.4511 -1.5887 -2.5345
17289TIP3    H273283   1.904   3.860   0.447  0.5076 -0.1225  1.6293
17290TIP3   OH273284   6.482   2.261   0.478  0.0282 -0.0720 -0.6661
17290TIP3    H173285   6.511   2.171   0.467  0.0889 -0.4733  2.1303
17290TIP3    H273286   6.390   2.254   0.505  0.2040  0.6374  0.1770
17291TIP3   OH273287   1.945   4.935  11.482 -0.6593 -0.3946 -0.4614
17291TIP3    H173288   1.994   4.855  11.502 -1.5143 -0.7938  0.1073
17291TIP3    H273289   1.990   5.003  11.531  0.3232 -0.4400 -1.2711
17292TIP3   OH273290   3.118   2.427  12.512  0.2352  1.2500 -0.1275
17292TIP3    H173291   3.082   2.415  12.425  1.1092  0.6602 -0.4183
17292TIP3    H273292   3.189   2.490  12.500  2.7260 -1.4489 -0.5294
17293TIP3   OH273293   3.503   6.352   3.401 -0.3577  0.3003 -0.6782
17293TIP3    H173294   3.518   6.284   3.468 -1.6499  1.7562  1.2097
17293TIP3    H273295   3.580   6.408   3.406 -0.2228  0.1209 -0.7551
17294TIP3   OH273296   5.943   1.682   3.966 -0.2778  0.1339  0.2644
17294TIP3    H173297   5.931   1.777   3.977 -0.2228  0.1386  0.2812
17294TIP3    H273298   6.037   1.671   3.953  0.0939 -0.1559  2.7095
17295TIP3   OH273299   0.704   6.088  10.305 -0.1817  0.7464 -0.3703
17295TIP3    H173300   0.702   6.168  10.358  1.3180  0.2406  0.5214
17295TIP3    H273301   0.796   6.076  10.284 -0.2934 -1.0715  0.0391
17296TIP3   OH273302   6.634   0.317   0.105 -0.2107  0.1899 -0.2711
17296TIP3    H173303   6.638   0.339   0.012 -1.0511  3.2157  0.3049
17296TIP3    H273304   6.621   0.222   0.107  1.4090 -0.1787 -3.1648
17297TIP3   OH273305   6.614   4.707   1.019 -0.5496 -0.0287  0.3070
17297TIP3    H173306   6.550   4.727   0.951  0.1013  0.3033 -0.2271
17297TIP3    H273307   6.679   4.777   1.011  1.3076 -1.7740 -0.9665
17298TIP3   OH273308   3.065   2.984  16.019  0.2613 -0.4300  0.3545
17298TIP3    H173309   3.043   3.076  16.034 -2.8693 -0.9990 -0.0150
17298TIP3    H273310   3.023   2.937  16.091  3.7796 -1.5371  1.9264
17299TIP3   OH273311   4.467   5.265   2.934 -0.0266  0.2895 -0.2162
17299TIP3    H173312   4.490   5.208   2.861 -0.3633 -1.7137  1.1507
17299TIP3    H273313   4.550   5.283   2.978  0.0489  0.5998 -0.4921
17300TIP3   OH273314   4.724   3.236   4.112  0.5387 -0.2026 -0.4575
17300TIP3    H173315   4.747   3.328   4.096  1.9038 -0.6675 -1.3592
17300TIP3    H273316   4.731   3.226   4.207 -1.8974  1.1613 -0.0414
17301TIP3   OH273317   4.474   3.047  15.810 -0.0052 -0.2211  0.0425
17301TIP3    H173318   4.429   3.009  15.735  0.3946 -1.1630  0.2647
17301TIP3    H273319   4.405   3.062  15.875 -0.1327 -0.8039  0.0435
17302TIP3   OH273320   1.796   3.941   4.825 -0.6896 -0.5756  0.2022
17302TIP3    H173321   1.799   4.002   4.751  1.8873  0.7946  1.2839
17302TIP3    H273322   1.787   3.998   4.901  0.7434 -1.5981  1.1733
17303TIP3   OH273323   1.071   0.792   0.192  0.0094 -1.0662 -0.6528
17303TIP3    H173324   1.085   0.876   0.148 -0.4715 -0.9375 -0.5701
17303TIP3    H273325   1.010   0.745   0.134 -1.8305 -0.3104  0.5638
17304TIP3   OH273326   5.838   2.839  12.806  0.4315 -0.4413 -0.0350
17304TIP3    H173327   5.880   2.924  12.811  1.4215 -0.9238  0.0482
17304TIP3    H273328   5.898   2.780  12.851 -0.9490 -0.9242  1.2745
17305TIP3   OH273329   5.597   6.150   5.508  0.7407  0.2699 -0.2670
17305TIP3    H173330   5.535   6.106   5.450  1.9490 -0.0412 -1.3872
17305TIP3    H273331   5.672   6.091   5.512  1.9734  1.7043 -0.9675
17306TIP3   OH273332   6.768   4.727  13.253 -0.8792  0.0143 -0.0763
17306TIP3    H173333   6.793   4.637  13.274  0.0097  0.7151  2.1377
17306TIP3    H273334   6.823   4.749  13.178  1.4239 -0.2441  1.4289
17307TIP3   OH273335   0.195   5.323   2.963 -0.0794  0.3144  0.2419
17307TIP3    H173336   0.232   5.398   3.011 -0.7377  0.0897  1.1410
17307TIP3    H273337   0.161   5.361   2.882 -0.0096  0.9189  0.4854
17308TIP3   OH273338   0.836   4.065   2.240 -0.2025 -0.2398 -0.1909
17308TIP3    H173339   0.890   3.986   2.240  0.3501  0.1400 -0.0375
17308TIP3    H273340   0.894   4.135   2.211 -0.1683  0.4751  1.5055
17309TIP3   OH273341   1.687   1.741   5.647 -0.0748  0.3082 -1.4778
17309TIP3    H173342   1.697   1.667   5.707 -0.3283 -0.0033 -1.8165
17309TIP3    H273343   1.757   1.730   5.583 -0.5660 -0.0734 -1.9698
17310TIP3   OH273344   1.969   5.080   2.726  0.3700 -0.0513 -0.2113
17310TIP3    H173345   1.940   5.102   2.815 -0.0395  1.2151 -0.6302
17310TIP3    H273346   2.057   5.118   2.720 -0.2483  1.3443 -0.8641
17311TIP3   OH273347   4.730   2.453  12.918 -0.6415 -0.0114 -0.1756
17311TIP3    H173348   4.805   2.414  12.874  0.2169  2.0262 -0.6335
17311TIP3    H273349   4.720   2.539  12.876 -2.2738  0.3806  0.9356
17312TIP3   OH273350   4.629   3.003   2.406  0.3027  0.5211  0.6369
17312TIP3    H173351   4.621   2.910   2.382  0.8465  0.6962 -0.2815
17312TIP3    H273352   4.692   3.004   2.478  3.6857  0.4854 -2.0584
17313TIP3   OH273353   3.087   3.151  15.330  0.4061  0.7652  0.7117
17313TIP3    H173354   3.023   3.082  15.313  0.6726  0.4730  0.8677
17313TIP3    H273355   3.105   3.145  15.424  0.5416  0.9485  0.6982
17314TIP3   OH273356   1.722   2.253  13.197 -0.0465 -0.3249  0.0110
17314TIP3    H173357   1.750   2.328  13.145 -2.0558  0.5174  0.0550
17314TIP3    H273358   1.627   2.262  13.204 -0.2931 -2.6110  0.4610
17315TIP3   OH273359   1.761   6.588  13.495  0.2806 -0.1108  0.0744
17315TIP3    H173360   1.688   6.578  13.556  0.9881 -1.2448  0.7907
17315TIP3    H273361   1.824   6.642  13.542 -0.3161  1.3581 -0.7720
17316TIP3   OH273362   2.683   4.351  16.157  0.3507  0.5638  0.4345
17316TIP3    H173363   2.755   4.410  16.137 -0.4358  0.9407 -1.4830
17316TIP3    H273364   2.712   4.266  16.125  0.8902  0.1681  1.8805
17317TIP3   OH273365   5.240   5.865  12.642 -0.1894 -0.1335  0.2998
17317TIP3    H173366   5.217   5.786  12.691  0.2564  0.2331  1.1246
17317TIP3    H273367   5.290   5.833  12.567 -0.5380 -0.6723  0.2867
17318TIP3   OH273368   2.195   5.819   5.026  0.0583 -0.0800  0.3760
17318TIP3    H173369   2.122   5.757   5.019 -1.7782  2.0483 -0.4243
17318TIP3    H273370   2.221   5.814   5.118 -1.6940 -0.3022  0.9104
17319TIP3   OH273371   1.755   0.566   0.759 -0.1392 -0.0201  0.4255
17319TIP3    H173372   1.761   0.661   0.767  1.3413 -0.1788  1.6184
17319TIP3    H273373   1.662   0.547   0.769 -0.7063  1.3883 -1.4232
17320TIP3   OH273374   0.409   1.102  15.324  0.0901 -0.1168 -0.2072
17320TIP3    H173375   0.451   1.022  15.357  0.6790  0.1096 -0.3886
17320TIP3    H273376   0.339   1.070  15.267 -1.2719 -0.5144  1.6102
17321TIP3   OH273377   3.881   2.935   1.879  0.0288  0.9760  0.9425
17321TIP3    H173378   3.870   3.018   1.925 -0.9778  0.6814  1.2724
17321TIP3    H273379   3.811   2.934   1.813  0.4374  0.6793  0.5075
17322TIP3   OH273380   0.409   5.379  10.833  0.2212 -0.2470  0.3038
17322TIP3    H173381   0.437   5.425  10.754 -0.9819  0.3170  0.1921
17322TIP3    H273382   0.368   5.299  10.802  0.4531 -0.4030  0.3980
17323TIP3   OH273383   2.065   3.086  17.167  0.0085  0.2075 -0.3840
17323TIP3    H173384   1.976   3.087  17.203  0.0941  1.2181 -0.1623
17323TIP3    H273385   2.119   3.127  17.236  0.0240  3.1476 -1.9924
17324TIP3   OH273386   6.424   3.023  13.124  0.4455 -0.0109 -0.1939
17324TIP3    H173387   6.374   3.099  13.153 -0.4780  0.0063 -1.6853
17324TIP3    H273388   6.500   3.059  13.079  0.5679  0.0137  0.0350
17325TIP3   OH273389   2.215   0.493   1.285  0.7300 -0.1179 -0.0263
17325TIP3    H173390   2.184   0.486   1.195  1.3035  1.4085 -0.3833
17325TIP3    H273391   2.310   0.488   1.278  0.7326 -1.7883  0.7251
17326TIP3   OH273392   3.402   2.250   5.297  0.2713 -0.3213  0.1175
17326TIP3    H173393   3.486   2.295   5.292  0.3519 -0.6043 -1.6333
17326TIP3    H273394   3.342   2.305   5.246  0.4632 -2.2758 -2.4282
17327TIP3   OH273395   0.978   0.670  17.043 -0.2902 -0.6415  0.2553
17327TIP3    H173396   0.925   0.719  17.106 -1.1290  0.1055 -0.9877
17327TIP3    H273397   1.066   0.707  17.053 -0.4348 -0.4665  0.9229
17328TIP3   OH273398   0.887   5.390  16.613  0.0816  0.2995  0.5702
17328TIP3    H173399   0.927   5.304  16.598 -1.5930 -0.2911 -0.9988
17328TIP3    H273400   0.896   5.405  16.707  3.9493  0.2932  0.3462
17329TIP3   OH273401   5.328   4.532  15.610  0.0104 -0.3734 -0.1525
17329TIP3    H173402   5.339   4.515  15.704 -0.8288 -1.3123 -0.2145
17329TIP3    H273403   5.380   4.611  15.594  0.9264 -0.7333  0.9117
17330TIP3   OH273404   3.847   1.948  13.681  0.6190  0.8103 -0.4270
17330TIP3    H173405   3.815   1.990  13.761  1.2589 -1.3671  1.0693
17330TIP3    H273406   3.915   2.007  13.649  1.6486  0.8853  1.7113
17331TIP3   OH273407   5.389   3.979   1.150  0.8016 -0.0076  0.3275
17331TIP3    H173408   5.381   3.946   1.240  1.4900  3.4787  1.8086
17331TIP3    H273409   5.433   3.908   1.103  1.3316 -1.5892  2.9890
17332TIP3   OH273410   5.993   5.904   1.349  0.7747  0.3472 -0.6476
17332TIP3    H173411   6.030   5.830   1.301 -0.2422 -0.4011 -0.3246
17332TIP3    H273412   5.982   5.871   1.439  0.6753  1.0182 -0.4105
17333TIP3   OH273413   6.068   5.575  15.965 -0.0258 -0.0600 -0.6863
17333TIP3    H173414   6.005   5.551  15.897  0.8460  0.0987 -1.5712
17333TIP3    H273415   6.087   5.667  15.948  1.5280 -0.4777 -1.3482
17334TIP3   OH273416   3.662   1.818  16.517  0.1083 -0.6746  0.2235
17334TIP3    H173417   3.566   1.820  16.511 -0.0294  1.8639  1.5380
17334TIP3    H273418   3.692   1.867  16.440  0.0864  1.5827  1.5535
17335TIP3   OH273419   5.929   4.997   0.114 -0.3365  0.6545 -0.1968
17335TIP3    H173420   5.859   5.045   0.159 -1.2375 -0.8024  0.0366
17335TIP3    H273421   6.005   5.004   0.172 -0.5231  1.5353 -0.0435
17336TIP3   OH273422   5.575   4.588   0.453  0.1035 -0.5491 -0.0695
17336TIP3    H173423   5.624   4.648   0.508  0.6251 -0.4142 -0.6620
17336TIP3    H273424   5.483   4.608   0.471  0.2682  0.3337 -0.1492
17337TIP3   OH273425   6.000   3.311   3.225  0.3888  0.0354 -0.4911
17337TIP3    H173426   6.006   3.231   3.278  2.4400  0.4443 -0.0086
17337TIP3    H273427   5.913   3.307   3.185 -1.4959 -0.0720  3.2220
17338TIP3   OH273428   3.014   3.438   2.773  0.2285 -0.1663  0.1915
17338TIP3    H173429   2.954   3.410   2.841  0.1533  1.8182  1.0012
17338TIP3    H273430   3.091   3.382   2.784 -0.4540 -0.9941  0.8101
17339TIP3   OH273431   1.206   4.481   2.446 -0.5311 -0.3515  0.5394
17339TIP3    H173432   1.161   4.516   2.369  0.5011  1.3919  0.6700
17339TIP3    H273433   1.161   4.521   2.520 -0.8466 -1.1870  0.8001
17340TIP3   OH273434   5.083   6.320   4.255 -0.0995  0.4079  0.1849
17340TIP3    H173435   4.995   6.283   4.246  0.4685 -1.2313  1.0067
17340TIP3    H273436   5.069   6.406   4.293 -1.3279 -0.0970  0.9313
17341TIP3   OH273437   2.759   0.443   5.065  0.1528  0.0202  0.1663
17341TIP3    H173438   2.666   0.456   5.086  0.6207  0.7316  1.9639
17341TIP3    H273439   2.803   0.440   5.150  1.7360 -0.7647 -0.6373
17342TIP3   OH273440   0.135   5.568   3.513  0.1941  0.2130 -0.4740
17342TIP3    H173441   0.230   5.568   3.498  0.2728  0.3911  0.0151
17342TIP3    H273442   0.100   5.514   3.442  0.5523  1.0565 -1.3137
17343TIP3   OH273443   4.811   0.142   2.315 -0.5150 -0.8286  0.2238
17343TIP3    H173444   4.726   0.162   2.353 -0.4146 -0.9412  0.5102
17343TIP3    H273445   4.873   0.195   2.366 -0.7183  1.7518 -1.9851
17344TIP3   OH273446   1.084   4.526  12.027  0.2936  0.3913  0.2778
17344TIP3    H173447   1.107   4.594  11.965 -1.3569  0.2479 -0.5248
17344TIP3    H273448   1.126   4.554  12.109 -2.7312  4.0301  0.8428
17345TIP3   OH273449   4.637   1.013   5.608 -0.1824  0.1856  0.2333
17345TIP3    H173450   4.554   0.984   5.647  0.0670 -0.3496  0.3834
17345TIP3    H273451   4.667   1.084   5.664 -0.6241  0.4999  0.0772
17346TIP3   OH273452   1.476   2.381  10.955 -0.2308 -0.3866  0.3163
17346TIP3    H173453   1.391   2.343  10.932  0.3014 -1.5125  0.1129
17346TIP3    H273454   1.500   2.433  10.879 -1.1457  0.7121  0.7469
17347TIP3   OH273455   3.452   6.499  17.042 -0.2991  0.0219  0.4561
17347TIP3    H173456   3.357   6.501  17.050 -0.6355 -1.1528 -2.2225
17347TIP3    H273457   3.481   6.430  17.101 -1.3674 -1.1310 -0.3395
17348TIP3   OH273458   3.727   4.545  17.239 -0.0265 -0.4849  0.5388
17348TIP3    H173459   3.755   4.479  17.302  2.1926 -0.7567 -0.6131
17348TIP3    H273460   3.784   4.532  17.163 -1.0446  1.3041 -0.6290
17349TIP3   OH273461   3.225   2.193  11.852 -0.1488  0.2782 -0.3147
17349TIP3    H173462   3.282   2.233  11.786 -1.4721  2.5027 -0.2033
17349TIP3    H273463   3.258   2.226  11.936 -0.5904  0.2420 -0.1246
17350TIP3   OH273464   2.793   5.472  15.372  0.5068  0.2965 -0.0270
17350TIP3    H173465   2.774   5.485  15.279  1.7130 -2.1627 -0.7247
17350TIP3    H273466   2.779   5.378  15.385  1.2299  0.4465  2.0788
17351TIP3   OH273467   5.653   2.073   1.820 -0.1205  0.8007  0.0044
17351TIP3    H173468   5.579   2.030   1.864 -0.8332  0.8350 -1.1076
17351TIP3    H273469   5.625   2.164   1.810  0.3991  0.9894  0.2583
17352TIP3   OH273470   0.334   5.963   4.027  0.1553  0.3722  0.1306
17352TIP3    H173471   0.290   5.997   4.105  0.6860  2.5477 -0.4252
17352TIP3    H273472   0.310   6.025   3.957  2.0880  0.2379 -0.7236
17353TIP3   OH273473   2.960   2.967   4.192 -0.7046  0.4041 -0.3443
17353TIP3    H173474   3.000   3.054   4.203 -0.5162  0.4447 -1.3382
17353TIP3    H273475   2.964   2.929   4.280  2.7823 -0.1456 -0.6016
17354TIP3   OH273476   3.359   0.632  14.851  0.2736 -0.0874 -0.1706
17354TIP3    H173477   3.300   0.595  14.785  1.0346  0.5210 -1.2218
17354TIP3    H273478   3.431   0.569  14.855  0.3516  0.0082 -0.0914
17355TIP3   OH273479   5.378   4.167  15.490  0.2822 -0.6609  0.1084
17355TIP3    H173480   5.467   4.202  15.483 -0.1272  0.1669 -1.4914
17355TIP3    H273481   5.346   4.200  15.574  0.8395  0.6164 -0.1552
17356TIP3   OH273482   5.717   2.534  16.445 -0.5331  0.2598 -0.0715
17356TIP3    H173483   5.757   2.613  16.409 -1.3760  0.3367 -0.8790
17356TIP3    H273484   5.662   2.500  16.374 -0.2418 -1.0174  0.2883
17357TIP3   OH273485   5.704   3.698  12.917  1.0311  0.1991 -0.3956
17357TIP3    H173486   5.764   3.767  12.889  1.8391 -0.3748 -0.1016
17357TIP3    H273487   5.659   3.735  12.994  0.2979  0.9860 -1.1807
17358TIP3   OH273488   1.674   6.078  12.376 -0.6618  0.0972 -0.0671
17358TIP3    H173489   1.737   6.090  12.305 -0.9919 -0.1403 -0.4059
17358TIP3    H273490   1.711   6.127  12.450  0.2029 -0.4968 -0.0837
17359TIP3   OH273491   4.886   3.990  11.789 -0.2767  0.6402 -0.1158
17359TIP3    H173492   4.926   3.942  11.861  0.9307  1.0742 -0.4735
17359TIP3    H273493   4.909   4.081  11.804 -1.4263  0.9588 -0.1620
17360TIP3   OH273494   2.927   5.395  16.607  0.0440  0.5554  1.2401
17360TIP3    H173495   2.902   5.336  16.678 -2.1107  2.2649  2.0314
17360TIP3    H273496   2.867   5.373  16.535  1.2335 -0.1829  0.4468
17361TIP3   OH273497   6.426   5.304  11.392  0.1049 -0.6823  0.4784
17361TIP3    H173498   6.388   5.234  11.445 -0.6947 -1.2705 -0.8266
17361TIP3    H273499   6.496   5.340  11.447 -2.8979  1.1600  3.4458
17362TIP3   OH273500   4.958   0.778   5.376  0.2613  0.0841  1.1216
17362TIP3    H173501   4.942   0.813   5.464  1.1285  2.2102  0.5069
17362TIP3    H273502   5.053   0.768   5.372  0.1970 -0.3018  0.5219
17363TIP3   OH273503   5.076   4.887   2.210  0.5052  0.0571  0.2750
17363TIP3    H173504   5.060   4.978   2.186 -0.1982  0.0871  0.8080
17363TIP3    H273505   5.159   4.889   2.258  0.1799  0.5181  0.8303
17364TIP3   OH273506   5.029   6.425   4.872  0.4992  0.6710 -0.1672
17364TIP3    H173507   5.035   6.329   4.869 -1.2212  0.5398 -0.9563
17364TIP3    H273508   4.935   6.442   4.870  0.7999  2.3982 -0.9642
17365TIP3   OH273509   0.705   0.586  10.784  0.2314 -0.4237 -0.3149
17365TIP3    H173510   0.782   0.534  10.809  0.5882 -0.7811 -2.0676
17365TIP3    H273511   0.734   0.677  10.790  0.0707 -0.4364  1.2372
17366TIP3   OH273512   0.808   0.506   2.603 -0.0691  0.5475  0.4234
17366TIP3    H173513   0.795   0.556   2.523 -0.9466  1.3598  1.0394
17366TIP3    H273514   0.763   0.424   2.588 -0.5136  0.8307  0.1925
17367TIP3   OH273515   3.009   3.929  14.909 -0.1247 -0.0707  0.9227
17367TIP3    H173516   2.933   3.976  14.944 -0.2912 -0.8855  1.6978
17367TIP3    H273517   3.002   3.941  14.814 -0.6056  0.7813  1.0502
17368TIP3   OH273518   3.096   3.097  12.449 -0.2309  0.0285  0.5339
17368TIP3    H173519   3.030   3.038  12.486  0.6241 -1.6535 -0.5397
17368TIP3    H273520   3.050   3.145  12.380 -0.7880  0.2685  1.0555
17369TIP3   OH273521   5.300   4.669   2.926 -0.2550 -0.2781 -0.5330
17369TIP3    H173522   5.234   4.666   2.995  2.1253  0.2050  1.9863
17369TIP3    H273523   5.274   4.742   2.871 -0.9114  1.0614  1.4303
17370TIP3   OH273524   3.059   4.761  13.966  0.6091 -0.1969 -0.6015
17370TIP3    H173525   3.055   4.768  14.061  0.2994  0.9576 -0.6778
17370TIP3    H273526   2.991   4.698  13.943  1.2242 -1.0934 -0.0150
17371TIP3   OH273527   5.252   6.149  16.607 -0.1609 -0.3096 -0.9574
17371TIP3    H173528   5.198   6.184  16.537 -1.0316  0.2275 -0.0436
17371TIP3    H273529   5.222   6.058  16.617 -1.4957  0.2101  0.0726
17372TIP3   OH273530   4.380   2.976   6.561  0.0129 -0.2346 -0.0217
17372TIP3    H173531   4.336   2.997   6.479  0.4071  1.2031  0.0964
17372TIP3    H273532   4.320   2.919   6.607 -1.2701  0.8463 -0.3036
17373TIP3   OH273533   4.504   2.557  11.459 -0.8555 -0.4305 -0.0245
17373TIP3    H173534   4.539   2.533  11.373  0.5289 -2.5153  1.0379
17373TIP3    H273535   4.460   2.478  11.490  0.6788 -0.5317  2.1112
17374TIP3   OH273536   1.294   2.013   1.043 -0.0598 -0.2471 -0.0600
17374TIP3    H173537   1.307   2.086   0.983 -0.2547 -1.3235 -1.4445
17374TIP3    H273538   1.262   1.942   0.989 -1.1725 -0.9804  1.4858
17375TIP3   OH273539   4.393   2.526   5.079 -0.0250  0.1238 -0.9659
17375TIP3    H173540   4.474   2.565   5.112 -0.6024  1.4993 -1.0924
17375TIP3    H273541   4.341   2.509   5.157  0.7037 -1.5990 -0.8094
17376TIP3   OH273542   2.458   0.271   1.499  0.5459 -0.0444  0.3430
17376TIP3    H173543   2.365   0.273   1.524  0.5367  0.6243  0.2530
17376TIP3    H273544   2.467   0.340   1.433  1.3282  0.6037  1.1045
17377TIP3   OH273545   6.528   0.197   4.127  0.4023  0.7340 -0.2193
17377TIP3    H173546   6.512   0.103   4.118 -1.9707  1.1364 -0.9219
17377TIP3    H273547   6.573   0.206   4.211 -0.5323 -0.9064  0.4985
17378TIP3   OH273548   2.906   2.531  15.535 -0.2744 -0.4080 -1.5155
17378TIP3    H173549   2.980   2.471  15.521 -1.0919 -1.2728 -2.2734
17378TIP3    H273550   2.831   2.486  15.497 -1.7232 -0.6566  1.3362
17379TIP3   OH273551   2.712   1.128  13.872 -0.6878 -0.4247  0.6121
17379TIP3    H173552   2.723   1.123  13.967 -0.9622  0.2412  0.6818
17379TIP3    H273553   2.801   1.134  13.838 -0.6350  0.5557  0.9060
17380TIP3   OH273554   1.204   2.013  14.117 -0.3434  0.4310  0.1526
17380TIP3    H173555   1.163   2.017  14.031 -1.6183 -1.8695  0.5795
17380TIP3    H273556   1.131   2.000  14.178  0.7165 -0.1939  1.3405
17381TIP3   OH273557   6.081   3.120  10.876 -0.0346  0.1340  0.1515
17381TIP3    H173558   6.014   3.186  10.895 -0.3403  0.2496 -1.2586
17381TIP3    H273559   6.163   3.160  10.905 -0.0711  1.5861 -1.6052
17382TIP3   OH273560   3.590   6.700  12.828 -0.1770 -0.4681 -0.1769
17382TIP3    H173561   3.675   6.659  12.812  0.1324  0.2807 -0.4884
17382TIP3    H273562   3.601   6.748  12.910 -0.6344 -1.2478  0.3565
17383TIP3   OH273563   0.669   6.213   2.887 -0.2381 -0.0518  0.2879
17383TIP3    H173564   0.622   6.131   2.897 -0.4044  0.1014  0.8010
17383TIP3    H273565   0.615   6.264   2.826 -0.1998 -0.2748  0.0681
17384TIP3   OH273566   3.779   0.517  12.479 -0.1969 -0.3573 -0.1467
17384TIP3    H173567   3.796   0.559  12.394  1.0278  1.4516  0.9272
17384TIP3    H273568   3.863   0.477  12.503 -0.1582  0.2729  0.7921
17385TIP3   OH273569   6.722   3.305   5.647 -0.8180 -0.5855  0.1900
17385TIP3    H173570   6.663   3.269   5.581 -0.4938  0.2178 -0.5589
17385TIP3    H273571   6.669   3.308   5.727 -1.2507 -1.4696 -0.0475
17386TIP3   OH273572   3.127   0.389  17.401 -0.4530 -0.4323 -0.1472
17386TIP3    H173573   3.201   0.338  17.367 -0.9227 -1.1287 -0.1397
17386TIP3    H273574   3.079   0.417  17.323 -0.5985 -0.6133 -0.1228
17387TIP3   OH273575   0.934   6.027  15.185  0.1240 -0.3241  0.8640
17387TIP3    H173576   1.020   5.985  15.183  0.5510  0.4634  1.7437
17387TIP3    H273577   0.927   6.073  15.101  1.0020  0.4127  1.1761
17388TIP3   OH273578   4.989   6.122  15.585 -0.6376 -0.1116 -0.0214
17388TIP3    H173579   5.061   6.181  15.606 -0.7665  0.1919 -0.4126
17388TIP3    H273580   4.973   6.073  15.666  0.2312 -0.4244 -0.0245
17389TIP3   OH273581   6.343   1.980   5.078  0.4286  0.0289 -0.3760
17389TIP3    H173582   6.266   1.951   5.129  1.0172  1.1358  1.2320
17389TIP3    H273583   6.312   2.056   5.030 -0.6982 -2.1581 -3.4234
17390TIP3   OH273584   4.981   2.190   3.481 -0.7269 -0.5409  0.2004
17390TIP3    H173585   4.887   2.188   3.461 -0.6353 -1.1768 -0.1807
17390TIP3    H273586   5.003   2.101   3.507  0.0168 -0.7009 -0.8923
17391TIP3   OH273587   3.268   5.376  13.134  0.8305 -0.0874 -0.0232
17391TIP3    H173588   3.265   5.307  13.067 -1.3177  0.5251 -0.6192
17391TIP3    H273589   3.257   5.457  13.085  3.0237  0.7237  0.7182
17392TIP3   OH273590   3.329   3.499  13.746  0.4567  0.3446  0.3610
17392TIP3    H173591   3.318   3.471  13.655  2.8990 -2.2982  0.7472
17392TIP3    H273592   3.242   3.486  13.785  0.0175 -1.0744 -0.9644
17393TIP3   OH273593   4.788   1.324   1.912 -0.0712  0.3312 -0.7874
17393TIP3    H173594   4.756   1.303   1.999  0.5646  0.0457 -0.6161
17393TIP3    H273595   4.858   1.387   1.926  0.6391 -0.3930 -1.0186
17394TIP3   OH273596   6.641   2.013   5.433 -0.9854 -0.5158  0.4217
17394TIP3    H173597   6.668   2.103   5.451  2.6684 -0.9857 -1.6788
17394TIP3    H273598   6.547   2.019   5.417 -1.0609  2.7192  1.3156
17395TIP3   OH273599   2.666   5.870   2.708 -1.0252 -0.1671 -0.0575
17395TIP3    H173600   2.590   5.864   2.650 -0.1773 -1.4307 -1.0973
17395TIP3    H273601   2.740   5.885   2.649 -0.0773 -1.9046  0.6212
17396TIP3   OH273602   4.096   6.255  11.820 -0.1123  0.0151 -0.2234
17396TIP3    H173603   4.088   6.226  11.729 -2.1045 -0.8375  0.1753
17396TIP3    H273604   4.054   6.341  11.822  1.6147  0.9079 -0.4469
17397TIP3   OH273605   5.616   3.071  14.010  0.3473 -0.0073  0.0793
17397TIP3    H173606   5.547   3.008  14.028  0.5300  0.1513  1.5434
17397TIP3    H273607   5.570   3.150  13.981 -0.2326  0.4798  2.1542
17398TIP3   OH273608   4.727   6.372   2.081 -0.5190 -0.4185  0.2955
17398TIP3    H173609   4.772   6.409   2.157 -1.4555  1.0292  0.1719
17398TIP3    H273610   4.740   6.277   2.090  1.9463 -0.1272  0.6034
17399TIP3   OH273611   1.516   5.983  12.621 -0.0050 -0.1221 -0.1109
17399TIP3    H173612   1.501   5.895  12.588 -0.3893 -0.2343  0.3424
17399TIP3    H273613   1.582   6.020  12.563  0.3975 -0.8251 -0.1140
17400TIP3   OH273614   1.519   0.184  14.454  0.3902 -0.6281  0.1087
17400TIP3    H173615   1.494   0.182  14.547  2.2926 -0.5453  0.6554
17400TIP3    H273616   1.604   0.140  14.451  1.9825  2.2857 -1.0604
17401TIP3   OH273617   2.990   3.887   0.032 -0.1913 -0.1234  0.8593
17401TIP3    H173618   3.003   3.796   0.007 -0.1937  0.4647 -1.5418
17401TIP3    H273619   3.067   3.908   0.086  0.5281 -1.1539  0.2723
17402TIP3   OH273620   2.816   2.046   5.573 -0.0194 -0.9408 -0.4617
17402TIP3    H173621   2.729   2.085   5.573 -0.0994 -1.1140 -0.1649
17402TIP3    H273622   2.800   1.951   5.569  0.1979 -0.9257 -3.3129
17403TIP3   OH273623   6.389   5.748   3.738 -0.5793 -0.6249 -0.0164
17403TIP3    H173624   6.413   5.658   3.759  0.1851 -0.5097 -0.3743
17403TIP3    H273625   6.362   5.744   3.646 -0.9184 -0.5553  0.0783
17404TIP3   OH273626   5.954   0.983   2.348 -0.2247 -0.3401  0.3015
17404TIP3    H173627   5.958   1.079   2.350 -2.1293 -0.2214  0.6413
17404TIP3    H273628   6.014   0.958   2.278  0.1371  1.1136  0.0541
17405TIP3   OH273629   3.830   6.665  14.230 -0.1599 -0.0618  0.0200
17405TIP3    H173630   3.793   6.584  14.266 -1.4644 -0.3910 -1.8913
17405TIP3    H273631   3.923   6.661  14.253  0.4345 -3.4602 -2.1679
17406TIP3   OH273632   1.775   5.173  13.444  0.0650  0.5902 -0.8032
17406TIP3    H173633   1.826   5.200  13.368 -0.2097  2.2349 -0.4323
17406TIP3    H273634   1.766   5.252  13.497 -1.1811 -0.1262  0.1203
17407TIP3   OH273635   2.478   3.202   3.389 -0.4238 -0.0821  0.0773
17407TIP3    H173636   2.397   3.153   3.405 -1.7165  2.2867  1.3980
17407TIP3    H273637   2.468   3.237   3.300 -0.6371 -0.1720  0.0662
17408TIP3   OH273638   4.170   4.971  10.444 -0.2110  0.5238  0.2517
17408TIP3    H173639   4.261   4.958  10.473 -0.0569  1.2006  0.1063
17408TIP3    H273640   4.174   5.052  10.394 -1.2697  1.6601  1.9112
17409TIP3   OH273641   0.144   6.057   0.124  0.1132 -0.2291  0.0890
17409TIP3    H173642   0.233   6.023   0.116 -0.2972 -1.6345  1.0909
17409TIP3    H273643   0.116   6.032   0.212 -1.0002  0.8860  0.0894
17410TIP3   OH273644   2.252   5.362  14.139 -0.0225  0.5198  0.2337
17410TIP3    H173645   2.196   5.289  14.166 -1.7995  0.9196 -2.0950
17410TIP3    H273646   2.207   5.440  14.173  0.6776  0.6926  0.7930
17411TIP3   OH273647   6.431   6.414  13.731  0.2991 -0.5188  0.0949
17411TIP3    H173648   6.473   6.362  13.800 -0.2173 -1.0034  0.0487
17411TIP3    H273649   6.446   6.365  13.651  1.4236  0.3456 -0.2531
17412TIP3   OH273650   5.351   3.142  17.318 -0.2324  0.0369  0.4039
17412TIP3    H173651   5.423   3.085  17.343 -0.0153  0.2106  0.1842
17412TIP3    H273652   5.376   3.229  17.349  1.9259  1.1369 -3.6411
17413TIP3   OH273653   4.084   4.302   5.678 -0.7912 -0.1302  0.0577
17413TIP3    H173654   4.054   4.223   5.633 -0.5086 -1.0021  1.3346
17413TIP3    H273655   4.076   4.281   5.771 -0.1213  1.1236  0.4244
17414TIP3   OH273656   2.827   0.722   5.638  0.6866  0.9101 -0.0924
17414TIP3    H173657   2.803   0.732   5.731 -1.0308  0.6446 -0.4763
17414TIP3    H273658   2.841   0.628   5.627  0.1351  0.8409 -0.2537
17415TIP3   OH273659   0.710   1.142  15.887  0.0362  0.0117  0.6032
17415TIP3    H173660   0.753   1.080  15.828 -0.9611  1.0623 -1.3457
17415TIP3    H273661   0.662   1.200  15.828  0.3898  2.2160  2.3870
17416TIP3   OH273662   1.083   0.380  10.327 -0.0092 -0.2602  0.1397
17416TIP3    H173663   1.032   0.300  10.340 -1.5268  0.6625  0.1546
17416TIP3    H273664   1.083   0.393  10.232  2.1684 -1.4479 -0.0651
17417TIP3   OH273665   4.221   1.204  13.750  0.6318  0.2784 -0.0332
17417TIP3    H173666   4.230   1.156  13.667 -0.5269 -0.2578  0.1193
17417TIP3    H273667   4.127   1.198  13.770  0.4300  2.6778 -0.0190
17418TIP3   OH273668   2.843   3.842   2.528 -0.4437 -0.2028  0.1948
17418TIP3    H173669   2.761   3.888   2.507  0.1102  0.3279 -0.9175
17418TIP3    H273670   2.906   3.877   2.465  0.4346 -1.2145  0.4937
17419TIP3   OH273671   6.734   1.285   4.241 -0.4083 -0.3517 -0.2523
17419TIP3    H173672   6.817   1.281   4.288 -0.9272 -0.1948  0.6978
17419TIP3    H273673   6.675   1.331   4.300 -1.6246 -1.8585 -0.2404
17420TIP3   OH273674   6.634   3.846  13.955  0.1240 -0.3324  0.1665
17420TIP3    H173675   6.669   3.915  14.012  1.5807 -1.8356  1.1669
17420TIP3    H273676   6.540   3.863  13.952  0.5065  2.0593 -0.1451
17421TIP3   OH273677   3.440   3.173   5.167  0.4435  0.3423 -0.1609
17421TIP3    H173678   3.425   3.150   5.259 -0.9451  2.2456  0.1563
17421TIP3    H273679   3.528   3.212   5.167  0.1904  0.9510  0.5192
17422TIP3   OH273680   4.247   2.968   6.067 -0.3738  0.1215 -0.2734
17422TIP3    H173681   4.244   3.048   6.015  0.0298 -0.4944 -1.2734
17422TIP3    H273682   4.268   2.899   6.004  0.6008 -0.5861  0.7808
17423TIP3   OH273683   0.623   3.540   0.158 -0.3489 -0.3949  0.3660
17423TIP3    H173684   0.625   3.457   0.111 -3.2667 -1.1873  1.4319
17423TIP3    H273685   0.687   3.529   0.229 -0.4547 -1.6059  0.2908
17424TIP3   OH273686   2.672   5.349  13.695 -0.2012  0.3909  0.0991
17424TIP3    H173687   2.633   5.290  13.631  0.1415  1.4167 -1.1000
17424TIP3    H273688   2.739   5.296  13.738  0.8759  0.1764 -1.7412
17425TIP3   OH273689   1.924   6.651  15.055 -0.5776 -0.4742 -0.3511
17425TIP3    H173690   1.836   6.686  15.073  0.3237  1.3809  0.8464
17425TIP3    H273691   1.967   6.652  15.141  0.9567 -0.2951 -1.1012
17426TIP3   OH273692   5.455   1.986   2.024 -0.4090  0.2866  0.9911
17426TIP3    H173693   5.496   2.010   2.107 -1.3741  0.6881  1.3662
17426TIP3    H273694   5.374   2.037   2.021 -0.2519  0.5040 -0.3366
17427TIP3   OH273695   3.171   4.049  16.129 -0.4532  0.3560  0.4252
17427TIP3    H173696   3.123   3.989  16.072 -0.0862  1.0522 -0.6491
17427TIP3    H273697   3.243   4.081  16.075  1.6120 -1.0884  2.1578
17428TIP3   OH273698   1.851   2.598   0.578 -0.3120 -0.0919  0.1712
17428TIP3    H173699   1.913   2.636   0.640  0.0053 -0.2186 -0.0687
17428TIP3    H273700   1.860   2.504   0.590 -0.0016 -0.1242 -0.3097
17429TIP3   OH273701   6.663   3.730  14.397 -0.3609 -0.1403  0.3748
17429TIP3    H173702   6.658   3.725  14.493 -1.2806  4.2374  0.7706
17429TIP3    H273703   6.757   3.735  14.379 -0.1774 -0.9608  1.0261
17430TIP3   OH273704   2.369   5.508  11.927  0.1942  0.3128  0.2116
17430TIP3    H173705   2.294   5.451  11.908  0.2897 -0.5774  2.2718
17430TIP3    H273706   2.431   5.491  11.856 -0.8272 -0.2652 -0.5610
17431TIP3   OH273707   1.547   3.104  14.045 -0.0269  0.1123 -0.0566
17431TIP3    H173708   1.538   3.079  13.953 -0.4403 -2.5088  0.6133
17431TIP3    H273709   1.494   3.184  14.053  0.7881  0.9643 -2.2455
17432TIP3   OH273710   2.752   6.196   1.897  0.0958 -0.3995  0.8249
17432TIP3    H173711   2.795   6.112   1.910  1.5685  0.2483  0.3125
17432TIP3    H273712   2.823   6.259   1.889 -0.8567  0.4872 -1.6591
17433TIP3   OH273713   0.195   6.129  11.708 -0.7681  0.0124 -0.3471
17433TIP3    H173714   0.159   6.041  11.701  1.6037 -1.0749  0.3623
17433TIP3    H273715   0.286   6.117  11.733 -0.2675  2.6727 -0.5289
17434TIP3   OH273716   3.606   0.824   1.489 -0.6628  0.1646 -0.0153
17434TIP3    H173717   3.660   0.813   1.412 -0.4928  0.6725  0.0249
17434TIP3    H273718   3.653   0.889   1.542 -0.7702 -0.1832  0.5178
17435TIP3   OH273719   0.095   1.174   2.685 -0.4887  0.8637  0.2472
17435TIP3    H173720   0.177   1.140   2.649 -1.3772  0.1922 -1.2561
17435TIP3    H273721   0.065   1.239   2.622 -1.5232  0.4962  0.3276
17436TIP3   OH273722   0.338   5.923  14.540 -0.4411  0.1406 -0.3285
17436TIP3    H173723   0.255   5.883  14.567 -1.6641  0.3702 -3.3273
17436TIP3    H273724   0.321   6.017  14.541 -0.2711  0.1835 -1.0984
17437TIP3   OH273725   1.600   5.992   0.440  0.4413  0.6376 -0.0433
17437TIP3    H173726   1.629   5.955   0.524 -2.1559  1.2912  1.2475
17437TIP3    H273727   1.655   5.949   0.375  0.5154 -2.2441  1.7428
17438TIP3   OH273728   4.902   4.533   4.894 -0.3978 -0.3344 -0.0453
17438TIP3    H173729   4.987   4.573   4.909 -0.2632 -0.5526 -0.2169
17438TIP3    H273730   4.922   4.449   4.852 -0.7332  0.1332 -1.1939
17439TIP3   OH273731   1.630   4.222  11.128  0.1214  0.2408 -0.3848
17439TIP3    H173732   1.722   4.201  11.142  0.0257 -0.5117 -0.8373
17439TIP3    H273733   1.587   4.137  11.117 -0.4372  0.6191 -1.2548
17440TIP3   OH273734   2.890   5.149  14.049  0.5071 -0.3566  0.2479
17440TIP3    H173735   2.871   5.056  14.044  0.1579 -0.4978  2.8084
17440TIP3    H273736   2.829   5.183  14.114  0.2734  1.8049 -0.9885
17441TIP3   OH273737   6.360   3.636  11.943  0.3971  0.2218  0.0570
17441TIP3    H173738   6.288   3.680  11.898 -1.4176 -0.6245  1.9914
17441TIP3    H273739   6.361   3.673  12.031  2.6313  0.4857 -0.0108
17442TIP3   OH273740   5.229   4.010  12.011 -0.1690 -0.2375  0.5081
17442TIP3    H173741   5.259   4.007  11.920 -0.4119  0.5886  0.3915
17442TIP3    H273742   5.134   4.002  12.006 -0.0277 -3.9738  0.9418
17443TIP3   OH273743   1.896   3.288   5.069 -0.3383  0.3127  0.4216
17443TIP3    H173744   1.958   3.224   5.105 -0.0985 -0.3774 -1.1555
17443TIP3    H273745   1.942   3.327   4.995 -2.3018 -1.3681 -1.8304
17444TIP3   OH273746   2.486   4.932   6.072  0.2954 -0.2816 -0.5066
17444TIP3    H173747   2.555   4.897   6.129  0.7793  0.1776 -0.7979
17444TIP3    H273748   2.507   4.899   5.985  1.8667  2.1667 -1.1705
17445TIP3   OH273749   4.403   2.179   4.441  0.0093 -0.7108 -0.1385
17445TIP3    H173750   4.416   2.233   4.519 -0.8708 -0.5173 -0.1156
17445TIP3    H273751   4.484   2.188   4.391 -0.0940  0.5827 -0.1066
17446TIP3   OH273752   6.179   6.386   1.956  0.4335 -0.2327  0.1451
17446TIP3    H173753   6.175   6.473   1.997 -2.1262 -0.3039  0.1791
17446TIP3    H273754   6.265   6.384   1.915 -0.6148  3.7730 -2.8855
17447TIP3   OH273755   1.768   1.004   6.008  0.8897  0.5669  0.2467
17447TIP3    H173756   1.689   1.008   6.062  0.1804 -0.4020 -0.6659
17447TIP3    H273757   1.826   0.945   6.055  0.4305  0.0362  0.1649
17448TIP3   OH273758   3.868   4.148  16.573  0.0724  0.1384 -0.4955
17448TIP3    H173759   3.898   4.217  16.633  0.6516 -0.0676 -0.5420
17448TIP3    H273760   3.947   4.101  16.549 -0.3343 -0.6189 -0.3795
17449TIP3   OH273761   1.961   1.415   0.659 -0.0430  0.1285 -0.0471
17449TIP3    H173762   2.004   1.330   0.670 -2.5897 -1.0927  1.4585
17449TIP3    H273763   1.938   1.418   0.566  0.0744 -0.8516 -0.1195
17450TIP3   OH273764   4.620   5.959   3.486 -0.2357  0.6870  0.2430
17450TIP3    H173765   4.621   6.052   3.505  0.6029  0.3038  2.3554
17450TIP3    H273766   4.548   5.924   3.538 -0.3075  0.1116 -0.2327
17451TIP3   OH273767   6.094   2.946  16.034  0.4756  0.0413 -0.5558
17451TIP3    H173768   6.091   3.014  16.101  2.5079  0.2736 -0.6274
17451TIP3    H273769   6.048   2.983  15.960 -0.7551  0.2663  0.2929
17452TIP3   OH273770   6.189   3.744   5.250  0.3311 -0.4403  0.0146
17452TIP3    H173771   6.243   3.706   5.320  3.2039  0.5829 -1.5020
17452TIP3    H273772   6.186   3.677   5.182  2.4649  0.5980 -1.2047
17453TIP3   OH273773   3.606   1.526  17.296 -0.7232 -0.4725 -0.5356
17453TIP3    H173774   3.560   1.581  17.359 -0.0869 -0.6125  0.0620
17453TIP3    H273775   3.604   1.577  17.214 -0.8240  0.0930 -0.1870
17454TIP3   OH273776   2.801   1.566  15.499 -0.3412  0.6131 -0.0917
17454TIP3    H173777   2.776   1.589  15.588  0.7569  2.3013 -0.1631
17454TIP3    H273778   2.896   1.555  15.503 -0.4358 -0.6751 -0.8017
17455TIP3   OH273779   0.711   2.974   5.042 -0.5394  0.0211  0.1966
17455TIP3    H173780   0.621   3.005   5.057 -1.4515 -2.2491 -0.2041
17455TIP3    H273781   0.751   2.974   5.129 -1.0040  0.7811  0.4222
17456TIP3   OH273782   3.430   6.101   2.174  0.0901 -0.2586 -0.2675
17456TIP3    H173783   3.434   6.055   2.257 -0.7849 -0.2820 -0.2245
17456TIP3    H273784   3.348   6.151   2.178  0.9768  1.2824 -0.3335
17457TIP3   OH273785   0.221   4.897   0.807  0.0895 -0.2242 -0.1995
17457TIP3    H173786   0.279   4.929   0.739  0.4855 -2.6777 -1.0850
17457TIP3    H273787   0.263   4.818   0.840 -1.2839 -0.4047  1.2422
17458TIP3   OH273788   5.259   3.446   5.977 -0.2356 -0.3589  0.0035
17458TIP3    H173789   5.321   3.458   5.905 -1.0636  2.5856 -0.3609
17458TIP3    H273790   5.243   3.352   5.980  1.3374 -0.7826 -2.3622
17459TIP3   OH273791   6.714   2.099   4.462  0.0960  0.1824 -0.1032
17459TIP3    H173792   6.679   2.019   4.500  2.1910 -1.2326 -0.9491
17459TIP3    H273793   6.666   2.110   4.380 -1.4149  0.8351  0.8167
17460TIP3   OH273794   4.244   4.727  15.703 -0.0123  0.9177 -0.1845
17460TIP3    H173795   4.228   4.690  15.790 -0.4325  1.0152 -0.2203
17460TIP3    H273796   4.325   4.686  15.674  0.4052  1.2657  0.4682
17461TIP3   OH273797   3.191   5.213   4.872 -0.3460 -0.1034 -0.2356
17461TIP3    H173798   3.142   5.172   4.943 -0.7202 -3.1454 -2.0399
17461TIP3    H273799   3.146   5.296   4.855 -0.1349  0.8143  3.0494
17462TIP3   OH273800   2.418   6.127   4.727 -0.2754 -0.0812  0.0424
17462TIP3    H173801   2.478   6.061   4.692 -1.1970 -1.5446  1.0826
17462TIP3    H273802   2.457   6.152   4.811 -1.1393 -1.1690  0.8069
17463TIP3   OH273803   3.543   5.619   3.918 -0.3540 -0.0768  0.4764
17463TIP3    H173804   3.532   5.536   3.871 -0.3576  0.4512 -0.4560
17463TIP3    H273805   3.459   5.663   3.910 -0.2005  0.2355  0.5483
17464TIP3   OH273806   3.567   0.069  15.156 -0.2851 -0.0151  0.1646
17464TIP3    H173807   3.500   0.127  15.192 -1.4954 -0.1109 -1.7639
17464TIP3    H273808   3.532  -0.019  15.167  0.4497 -0.2325  0.9054
17465TIP3   OH273809   4.434   2.008  16.422  0.5454 -0.2553  0.5513
17465TIP3    H173810   4.478   1.943  16.367 -3.1651 -1.1481 -1.7123
17465TIP3    H273811   4.429   2.087  16.367  0.7115  0.3366  1.3722
17466TIP3   OH273812   3.732   1.608   0.460 -0.6165  0.1302  0.3486
17466TIP3    H173813   3.815   1.655   0.474 -0.7990  0.3015  0.8716
17466TIP3    H273814   3.667   1.677   0.452 -0.6177  0.0215 -0.7747
17467TIP3   OH273815   4.635   4.822  12.278  0.0158  0.1203 -0.3442
17467TIP3    H173816   4.568   4.769  12.234  0.2021 -0.2428 -0.1913
17467TIP3    H273817   4.612   4.818  12.371  0.1371  0.1556 -0.3122
17468TIP3   OH273818   3.740   3.122   5.770 -0.3879 -0.4525 -0.0497
17468TIP3    H173819   3.724   3.064   5.696  0.1683 -0.4876 -0.1463
17468TIP3    H273820   3.671   3.100   5.833 -1.7769  0.6202 -1.1437
17469TIP3   OH273821   0.442   6.403   0.001 -0.7848  0.0489  0.6218
17469TIP3    H173822   0.382   6.408   0.075  2.1475  0.2987  3.1866
17469TIP3    H273823   0.496   6.482   0.008  0.5379 -0.6496 -0.9100
17470TIP3   OH273824   4.137   1.583   4.513  0.0493 -0.3083 -0.1958
17470TIP3    H173825   4.159   1.675   4.526 -0.4308 -0.1821 -0.2411
17470TIP3    H273826   4.052   1.585   4.468 -0.5133 -0.7738  0.7975
17471TIP3   OH273827   3.092   0.147   5.106 -0.0044 -0.0263  0.2966
17471TIP3    H173828   3.098   0.196   5.188  0.2290 -0.4982  0.5677
17471TIP3    H273829   3.144   0.068   5.121 -0.0249 -0.1563 -0.2796
17472TIP3   OH273830   1.088   0.279  12.460 -0.3280  0.2662  0.0544
17472TIP3    H173831   1.027   0.353  12.455 -1.4524 -0.6819 -0.7837
17472TIP3    H273832   1.102   0.253  12.369  2.3749  1.2389  0.1089
17473TIP3   OH273833   6.661   1.719   4.182  0.0985  0.2758 -0.5690
17473TIP3    H173834   6.583   1.693   4.230  0.4285  1.6894  0.7868
17473TIP3    H273835   6.629   1.775   4.112 -0.4792 -2.4642 -2.7066
17474TIP3   OH273836   0.247   6.525  11.683  0.0206  0.1360 -0.2749
17474TIP3    H173837   0.190   6.493  11.613 -0.0719  0.5328 -0.3800
17474TIP3    H273838   0.228   6.618  11.689  0.0012  0.0975  0.3099
17475TIP3   OH273839   6.749   2.547  13.394  0.0874  0.0435 -0.4667
17475TIP3    H173840   6.714   2.635  13.383  0.2399  0.2952  0.8308
17475TIP3    H273841   6.673   2.494  13.419  0.2017  0.0747 -0.0440
17476TIP3   OH273842   4.684   5.433  15.939 -0.2959 -0.4903 -0.1421
17476TIP3    H173843   4.779   5.433  15.928  0.0851 -1.0860  2.4322
17476TIP3    H273844   4.657   5.348  15.904  0.0208 -0.1423 -1.2921
17477TIP3   OH273845   0.023   0.025  17.181  0.2820  0.1096  0.6431
17477TIP3    H173846  -0.048  -0.023  17.139  1.5865  0.6578 -2.4364
17477TIP3    H273847   0.022  -0.005  17.272 -0.8066 -3.5244 -0.4074
17478TIP3   OH273848   5.446   5.117  13.351  0.4683 -0.0569  0.3581
17478TIP3    H173849   5.522   5.132  13.407  0.0085  0.5522  0.8322
17478TIP3    H273850   5.413   5.031  13.378  1.0943 -0.4159  0.0103
17479TIP3   OH273851   0.579   5.597  13.030  0.1872 -0.3747  0.0538
17479TIP3    H173852   0.616   5.681  13.055 -0.2943  1.0406 -3.4170
17479TIP3    H273853   0.653   5.536  13.034  0.6779  0.2674  2.0265
17480TIP3   OH273854   2.638   4.030   5.279 -0.5592 -0.0887 -0.1769
17480TIP3    H173855   2.627   4.015   5.185  0.4510 -1.1775 -0.1464
17480TIP3    H273856   2.628   3.944   5.319 -0.1302  0.2215  0.6249
17481TIP3   OH273857   4.161   4.507  12.903  0.0198  0.1909  0.3064
17481TIP3    H173858   4.114   4.466  12.831  0.2732 -1.5326  1.0521
17481TIP3    H273859   4.161   4.600  12.883  2.2332 -0.4138 -3.2071
17482TIP3   OH273860   2.553   6.432  11.630 -0.5506 -0.2235 -0.8004
17482TIP3    H173861   2.586   6.521  11.615  0.4192 -0.5623 -0.7275
17482TIP3    H273862   2.630   6.383  11.660 -0.7227 -1.4731 -2.3371
17483TIP3   OH273863   1.684   0.590   5.016 -0.7715 -0.5130  0.4278
17483TIP3    H173864   1.757   0.631   5.062 -1.1802 -0.6815  1.2570
17483TIP3    H273865   1.692   0.497   5.039  0.7983 -1.1597 -2.3004
17484TIP3   OH273866   4.407   6.428  17.007 -0.5953  0.0235  0.5636
17484TIP3    H173867   4.488   6.416  16.957 -0.9720  0.5181 -0.1751
17484TIP3    H273868   4.423   6.381  17.089 -0.4315 -1.9292 -0.5223
17485TIP3   OH273869   5.045   1.185  15.201 -0.4986  0.4493  0.0913
17485TIP3    H173870   5.096   1.199  15.281 -0.1452  0.5343 -0.1506
17485TIP3    H273871   5.064   1.261  15.146  0.3435 -0.2733 -0.6454
17486TIP3   OH273872   2.563   4.602   4.161 -0.0659  0.1285  0.2990
17486TIP3    H173873   2.653   4.579   4.141 -0.5972 -0.6697 -1.3381
17486TIP3    H273874   2.556   4.593   4.256  1.2589 -0.9469  0.3156
17487TIP3   OH273875   6.594   5.908  14.879  0.2673 -1.0250 -0.1727
17487TIP3    H173876   6.588   5.815  14.858  1.4724 -1.3462  0.8214
17487TIP3    H273877   6.688   5.926  14.887  0.2791  0.9296 -2.9993
17488TIP3   OH273878   5.802   2.857  13.361 -0.3519 -0.3432 -0.5111
17488TIP3    H173879   5.860   2.782  13.345 -0.3254 -0.1395 -1.4279
17488TIP3    H273880   5.856   2.934  13.341 -0.3781 -0.0667  0.4245
17489TIP3   OH273881   5.533   5.950  13.814  0.0180 -0.8607  0.5437
17489TIP3    H173882   5.619   5.992  13.812  0.6577 -2.0599  1.1156
17489TIP3    H273883   5.506   5.956  13.906 -0.4853 -0.5195  0.3702
17490TIP3   OH273884   3.656   5.089  13.910  0.1374  0.1602  0.5369
17490TIP3    H173885   3.678   5.138  13.830  0.9974  1.3287  1.4515
17490TIP3    H273886   3.608   5.153  13.964 -0.5971 -0.6732  0.8922
17491TIP3   OH273887   2.696   1.397   4.507  0.1892  0.4760  0.4532
17491TIP3    H173888   2.710   1.324   4.567  2.0633 -0.9629 -1.5574
17491TIP3    H273889   2.681   1.356   4.422 -0.4857  2.4309 -0.4428
17492TIP3   OH273890   5.560   5.570   2.748  0.1271 -0.0340  0.5305
17492TIP3    H173891   5.656   5.569   2.739  0.0025  2.0127 -2.3189
17492TIP3    H273892   5.542   5.644   2.806  0.2581  1.1894 -0.9260
17493TIP3   OH273893   5.341   5.286   4.880 -0.5442 -0.3789 -0.2363
17493TIP3    H173894   5.406   5.352   4.858 -0.4858 -0.3422  0.0407
17493TIP3    H273895   5.367   5.209   4.829 -1.3713  0.2011 -1.5833
17494TIP3   OH273896   6.016   5.841  12.882 -0.0538  0.1229 -0.2555
17494TIP3    H173897   5.938   5.796  12.850 -1.3157 -0.1887  2.9590
17494TIP3    H273898   5.995   5.934  12.873 -0.0561  0.0576 -0.9966
17495TIP3   OH273899   2.122   1.751   6.250 -0.0802  0.0811 -0.0967
17495TIP3    H173900   2.207   1.779   6.282  0.4498 -0.6817 -0.7772
17495TIP3    H273901   2.063   1.824   6.267  0.7428  0.6621  0.2661
17496TIP3   OH273902   2.540   5.611   0.380 -0.1169 -0.9139  0.0705
17496TIP3    H173903   2.606   5.572   0.438 -0.8621 -2.9718 -0.3745
17496TIP3    H273904   2.559   5.573   0.294 -1.3139 -0.8208 -0.2453
17497TIP3   OH273905   4.305   5.180  11.386 -0.0048  0.5361  0.4952
17497TIP3    H173906   4.312   5.123  11.463 -0.3843  0.3453  0.3936
17497TIP3    H273907   4.212   5.174  11.361 -0.2695  1.9089  1.0239
17498TIP3   OH273908   6.112   4.765  16.476 -0.7909 -0.1297  0.2317
17498TIP3    H173909   6.175   4.697  16.452 -0.1508  0.5730 -0.1167
17498TIP3    H273910   6.038   4.752  16.417 -0.0780  0.3362 -0.7914
17499TIP3   OH273911   4.228   5.354  13.924  0.1225 -0.8412  0.1474
17499TIP3    H173912   4.310   5.344  13.876  0.0599 -0.8824  0.0493
17499TIP3    H273913   4.203   5.264  13.948 -0.9795 -1.0553 -1.6233
17500TIP3   OH273914   5.398   2.823   1.712  0.5692  0.3555  0.0446
17500TIP3    H173915   5.364   2.812   1.623 -1.9118 -0.7211  1.0378
17500TIP3    H273916   5.418   2.734   1.740  0.5988  0.6081  0.8294
17501TIP3   OH273917   5.288   6.454   2.481  0.1210 -0.4289 -0.0324
17501TIP3    H173918   5.345   6.481   2.554  0.9377  1.5646 -1.3066
17501TIP3    H273919   5.217   6.406   2.523  1.9924 -1.8030  1.7850
17502TIP3   OH273920   1.296   1.968  14.935 -0.1490  1.1113 -0.4745
17502TIP3    H173921   1.325   1.952  14.845 -0.1752 -0.2257 -0.2707
17502TIP3    H273922   1.241   1.892  14.956  0.1963  1.1934  0.8109
17503TIP3   OH273923   3.849   4.318   4.148  0.1673  0.5628  0.2791
17503TIP3    H173924   3.886   4.403   4.172  0.6756  0.7514 -1.1268
17503TIP3    H273925   3.909   4.254   4.188  2.2145  0.8558 -2.1023
17504TIP3   OH273926   4.577   6.320   3.608  0.1662  0.2828  0.3791
17504TIP3    H173927   4.484   6.340   3.603  0.1340  0.2816  0.9911
17504TIP3    H273928   4.612   6.346   3.522 -0.3623  0.4303  0.2081
17505TIP3   OH273929   4.270   6.742  11.436  0.2490 -0.1479  0.0337
17505TIP3    H173930   4.362   6.717  11.436  0.3380  0.1609 -0.3163
17505TIP3    H273931   4.230   6.689  11.504  0.1433 -2.3291 -1.6398
17506TIP3   OH273932   1.152   1.174  13.827 -0.2543  0.3192 -1.0160
17506TIP3    H173933   1.228   1.215  13.869  1.1126 -1.1784 -1.9231
17506TIP3    H273934   1.130   1.101  13.885 -0.1861 -0.0081 -1.3996
17507TIP3   OH273935   3.905   6.701  16.073 -0.0674 -0.5737  0.5263
17507TIP3    H173936   3.815   6.698  16.107 -0.7446  0.2807 -1.0903
17507TIP3    H273937   3.923   6.612  16.043 -0.2899 -0.7950  1.0345
17508TIP3   OH273938   0.239   3.129  12.465  0.5608 -0.0357  0.2325
17508TIP3    H173939   0.285   3.213  12.462 -0.2858  0.5161  1.5235
17508TIP3    H273940   0.295   3.073  12.519  0.4436  0.1648  0.5672
17509TIP3   OH273941   6.740   4.591  16.208  0.5915 -0.3570 -0.3740
17509TIP3    H173942   6.675   4.628  16.148  1.2462 -0.1476 -0.9730
17509TIP3    H273943   6.708   4.613  16.295  0.3861  0.6380 -0.6903
17510TIP3   OH273944   1.809   2.358  15.917 -0.2458  0.4610  0.0760
17510TIP3    H173945   1.791   2.354  15.823 -1.2279  2.3992  0.1349
17510TIP3    H273946   1.855   2.277  15.936  1.1157  0.5938 -2.3113
17511TIP3   OH273947   1.124   2.666   2.476 -0.2894  0.1613  0.3027
17511TIP3    H173948   1.186   2.739   2.469 -0.2687  0.1445  0.3095
17511TIP3    H273949   1.042   2.706   2.504 -0.2181  0.1534  0.5240
17512TIP3   OH273950   3.399   5.033   1.318 -0.5138 -0.5696  0.3076
17512TIP3    H173951   3.471   5.081   1.279 -1.0460  0.3970  0.4992
17512TIP3    H273952   3.422   5.024   1.411  0.9397 -3.2082 -0.2077
17513TIP3   OH273953   3.187   5.808   2.030 -0.4454 -0.0347  0.6276
17513TIP3    H173954   3.126   5.791   1.958 -0.0996  0.4095  0.2234
17513TIP3    H273955   3.131   5.830   2.104 -0.7633  1.1695  0.0466
17514TIP3   OH273956   1.137   5.944  16.446  0.7531 -0.0854  0.2411
17514TIP3    H173957   1.067   5.892  16.406  0.4540  1.3553 -1.1686
17514TIP3    H273958   1.213   5.886  16.445  0.3592 -0.6070 -1.0215
17515TIP3   OH273959   0.969   2.680   4.152 -0.1964 -0.0108 -0.0885
17515TIP3    H173960   0.932   2.705   4.067 -1.0405 -0.0278  0.2586
17515TIP3    H273961   1.063   2.697   4.144  0.0881 -2.0439 -1.7442
17516TIP3   OH273962   0.420   1.184  16.343  0.2257 -0.3720  0.1790
17516TIP3    H173963   0.452   1.101  16.381  0.0252 -0.2590  0.6040
17516TIP3    H273964   0.330   1.164  16.316 -0.4771  0.2032  1.9739
17517TIP3   OH273965   0.916   3.632  13.571 -0.0140 -0.1516 -0.0437
17517TIP3    H173966   0.955   3.593  13.493  1.3432 -0.1320  0.5986
17517TIP3    H273967   0.917   3.726  13.554 -0.3465 -0.1852 -0.2688
17518TIP3   OH273968   6.739   2.563   3.312 -0.0971  0.3959 -0.1613
17518TIP3    H173969   6.654   2.580   3.351 -0.3385 -2.4401  0.7760
17518TIP3    H273970   6.719   2.532   3.224  0.0397  0.7177 -0.3065
17519TIP3   OH273971   1.341   2.397   2.603 -0.0189  0.0037  0.2360
17519TIP3    H173972   1.250   2.375   2.584  0.7296 -2.9517 -0.6039
17519TIP3    H273973   1.376   2.428   2.520 -0.2829  1.3428  0.6112
17520TIP3   OH273974   4.797   5.191   0.483  0.3889  0.0571 -0.6408
17520TIP3    H173975   4.873   5.240   0.452  3.4273 -4.7768 -1.9937
17520TIP3    H273976   4.760   5.152   0.404 -2.8558  1.1904  0.1649
17521TIP3   OH273977   2.797   4.468  13.601 -0.2008  0.2503 -0.0416
17521TIP3    H173978   2.712   4.431  13.577 -0.0171 -1.5260  1.7643
17521TIP3    H273979   2.795   4.474  13.697  1.7045  0.0808  0.0612
17522TIP3   OH273980   6.542   3.813  14.934 -0.1181 -0.1579  0.0514
17522TIP3    H173981   6.606   3.749  14.967  0.2523  0.3351  0.2971
17522TIP3    H273982   6.459   3.765  14.932  0.2063 -0.7235 -0.0118
17523TIP3   OH273983   4.453   3.414   2.380  0.2082 -0.1804 -0.0679
17523TIP3    H173984   4.528   3.370   2.339 -0.3700 -0.8575 -0.4226
17523TIP3    H273985   4.490   3.455   2.458  0.7370 -1.6088  0.4826
17524TIP3   OH273986   4.615   4.346  12.413  0.0307  0.3981  0.3530
17524TIP3    H173987   4.606   4.355  12.318  1.1833 -1.3796  0.0332
17524TIP3    H273988   4.708   4.332  12.427 -0.2480 -0.3180  1.6556
17525TIP3   OH273989   4.960   3.965  12.213  0.1168  0.6581  0.2979
17525TIP3    H173990   4.903   4.040  12.198 -0.3893  0.6166  1.7896
17525TIP3    H273991   4.971   3.925  12.127 -0.0705  2.1024 -0.4262
17526TIP3   OH273992   4.709   5.806  15.831  0.8011 -0.3172  0.1106
17526TIP3    H173993   4.744   5.789  15.744 -0.3459 -0.5194 -0.3279
17526TIP3    H273994   4.765   5.756  15.890  0.2558 -1.9866 -0.7279
17527TIP3   OH273995   0.636   3.199  14.771 -0.3259  0.6338  0.5584
17527TIP3    H173996   0.707   3.229  14.713 -0.5020  0.1399  0.0717
17527TIP3    H273997   0.673   3.124  14.816 -1.0185 -0.6165 -0.8568
17528TIP3   OH273998   5.135   0.109   5.215  0.1288 -0.3835  0.4622
17528TIP3    H173999   5.175   0.024   5.231 -3.4083 -1.7653  3.4224
17528TIP3    H274000   5.140   0.155   5.299  0.4817  1.7017 -0.6174
17529TIP3   OH274001   1.426   4.530  16.398 -0.4427  0.2170  0.1236
17529TIP3    H174002   1.408   4.540  16.304 -0.7646 -1.6317 -0.0546
17529TIP3    H274003   1.374   4.599  16.440 -0.4211  0.9690 -1.0345
17530TIP3   OH274004   5.866   1.704  12.413 -0.2578 -0.6050  0.3658
17530TIP3    H174005   5.832   1.794  12.409 -0.4987 -0.6791  0.7454
17530TIP3    H274006   5.961   1.716  12.417 -0.3443 -0.2626  2.8042
17531TIP3   OH274007   2.060   0.363  12.275  0.5248 -0.6991 -0.0405
17531TIP3    H174008   1.994   0.423  12.309  1.4302  0.2250  0.1390
17531TIP3    H274009   2.023   0.330  12.193 -0.4999 -0.8384  0.4638
17532TIP3   OH274010   4.763   6.109  17.167 -0.2388 -0.4628 -0.2611
17532TIP3    H174011   4.727   6.138  17.083  1.2950  1.4786 -0.3092
17532TIP3    H274012   4.857   6.108  17.154  0.1226  1.1123  1.7818
17533TIP3   OH274013   4.886   5.661   3.189  0.7881  0.1936  0.3021
17533TIP3    H174014   4.951   5.601   3.152  0.5677  0.7031 -0.9788
17533TIP3    H274015   4.871   5.629   3.278  3.0908  0.3052  0.7795
17534TIP3   OH274016   5.874   4.353  17.070  0.1478  0.8006  0.2065
17534TIP3    H174017   5.856   4.341  16.977 -1.3885 -1.6134  0.7370
17534TIP3    H274018   5.811   4.419  17.099 -0.5701  0.2708 -0.1346
17535TIP3   OH274019   0.857   4.214   4.292  0.0420  0.6589 -0.3443
17535TIP3    H174020   0.823   4.135   4.252  0.0502  1.2852 -1.6288
17535TIP3    H274021   0.926   4.184   4.352  1.0631 -0.2179 -1.8916
17536TIP3   OH274022   6.188   5.692  15.122  0.7965 -0.0825  0.4635
17536TIP3    H174023   6.129   5.636  15.173  0.9462 -0.7766 -0.1082
17536TIP3    H274024   6.241   5.631  15.071  1.1249  0.5793 -0.0039
17537TIP3   OH274025   1.119   0.066   3.866  0.5353 -0.4407  0.5577
17537TIP3    H174026   1.145   0.149   3.906  0.1730  0.7747 -1.6330
17537TIP3    H274027   1.024   0.064   3.876  0.3199  0.3715 -1.0882
17538TIP3   OH274028   2.061   2.233   0.899  0.2755 -0.5519 -0.2736
17538TIP3    H174029   2.011   2.249   0.979 -0.0655 -0.0208 -0.5829
17538TIP3    H274030   1.996   2.203   0.836  0.5727 -1.1340 -0.3011
17539TIP3   OH274031   5.797   1.572  15.780 -0.2723  0.5396 -0.1518
17539TIP3    H174032   5.814   1.497  15.723 -0.1446  0.2774  0.2283
17539TIP3    H274033   5.884   1.606  15.802 -0.3239  0.7032 -0.1990
17540TIP3   OH274034   2.875   1.634  16.078  0.4539 -0.0440  0.3838
17540TIP3    H174035   2.847   1.616  16.168 -0.8108  0.6869  0.1546
17540TIP3    H274036   2.962   1.596  16.073  0.2552 -0.7550  1.7019
17541TIP3   OH274037   2.512   2.601  16.125  0.0290  0.3455 -0.2108
17541TIP3    H174038   2.491   2.665  16.057 -1.7373 -0.2263 -0.2472
17541TIP3    H274039   2.450   2.619  16.196 -0.7591 -1.5196 -0.3665
17542TIP3   OH274040   6.360   3.116   6.009  0.7160  0.3192  0.2113
17542TIP3    H174041   6.342   3.040   6.064 -0.3679 -1.0396 -1.9030
17542TIP3    H274042   6.285   3.173   6.021 -1.1594 -1.4511 -2.1532
17543TIP3   OH274043   5.537   1.662   5.726 -0.0902 -0.0033  0.2897
17543TIP3    H174044   5.532   1.755   5.751  1.2479 -0.3565  2.1119
17543TIP3    H274045   5.474   1.619   5.784  0.8593 -0.4789  0.9857
17544TIP3   OH274046   3.491   5.414   3.757 -0.3759  0.7859  0.1029
17544TIP3    H174047   3.438   5.337   3.737 -0.3648  0.7541  0.1934
17544TIP3    H274048   3.517   5.449   3.672  1.5117 -0.5916  0.0528
17545TIP3   OH274049   3.404   0.668  16.990  0.2678 -0.4687 -0.6944
17545TIP3    H174050   3.456   0.718  17.054 -0.7946  0.5741 -0.6092
17545TIP3    H274051   3.350   0.610  17.044  0.1634 -0.3679 -0.6884
17546TIP3   OH274052   6.326   0.338  12.231  0.3719 -0.4328 -0.3931
17546TIP3    H174053   6.377   0.405  12.185 -0.2025 -0.2318 -0.7560
17546TIP3    H274054   6.286   0.287  12.160 -1.9351  0.9409 -0.1931
17547TIP3   OH274055   2.875   0.937   1.327  0.3713  0.6428 -0.6268
17547TIP3    H174056   2.858   0.928   1.421  0.2167 -1.0345 -0.7793
17547TIP3    H274057   2.811   1.001   1.297 -0.6897 -0.0173  0.1401
17548TIP3   OH274058   6.219   0.528  16.633 -0.1140  0.0658  0.0443
17548TIP3    H174059   6.223   0.607  16.687  0.3011 -1.4186  2.3103
17548TIP3    H274060   6.310   0.498  16.628 -0.3454 -0.5911 -0.3201
17549TIP3   OH274061   0.069   1.312  12.467  0.4270 -0.0294  0.3300
17549TIP3    H174062   0.145   1.359  12.498  1.3430 -1.4435  0.3307
17549TIP3    H274063   0.079   1.310  12.371 -0.3595  0.9789  0.2096
17550TIP3   OH274064   0.971   3.378   6.018  0.5551  0.2621  0.0428
17550TIP3    H174065   0.877   3.362   6.029  0.2243  0.4941 -2.0747
17550TIP3    H274066   1.008   3.292   5.997  0.8795  0.1304  1.0886
17551TIP3   OH274067   1.886   3.093  17.377  0.3297 -0.0600 -0.2756
17551TIP3    H174068   1.846   3.171  17.339 -0.7079 -0.0269  0.8518
17551TIP3    H274069   1.825   3.065  17.445  1.7903 -0.5224  0.8956
17552TIP3   OH274070   2.301   4.131   0.230  0.4233 -0.0643  0.1587
17552TIP3    H174071   2.390   4.117   0.196  0.6997 -1.3095  1.3078
17552TIP3    H274072   2.302   4.089   0.316 -1.5428 -0.8862 -0.1774
17553TIP3   OH274073   3.132   3.001  17.043  0.3534 -0.1174  0.3022
17553TIP3    H174074   3.148   3.015  17.136 -1.0815 -0.9965  0.7125
17553TIP3    H274075   3.213   3.030  17.000  0.5600  1.5390  1.6930
17554TIP3   OH274076   5.241   5.235  11.440  0.2837 -0.9623 -0.4096
17554TIP3    H174077   5.323   5.234  11.490  1.0466 -1.0884 -1.6085
17554TIP3    H274078   5.263   5.284  11.361 -0.3443 -2.3398 -1.4717
17555TIP3   OH274079   2.203   0.164   6.023  0.3455 -0.4874  0.1309
17555TIP3    H174080   2.112   0.141   6.041 -0.4941  0.8940 -1.9684
17555TIP3    H274081   2.215   0.146   5.930  2.6327 -1.7754  0.6036
17556TIP3   OH274082   3.066   0.290  12.270  0.6287 -0.6981 -0.6406
17556TIP3    H174083   3.146   0.287  12.322  0.9352 -0.7106 -1.1118
17556TIP3    H274084   3.082   0.231  12.196 -0.8299 -2.8421  0.6446
17557TIP3   OH274085   2.555   3.915  17.057  0.7158 -0.1298  0.1958
17557TIP3    H174086   2.532   3.884  16.969 -0.8938  0.1282  0.4963
17557TIP3    H274087   2.536   4.009  17.054  2.4806  0.2514  0.2647
17558TIP3   OH274088   2.326   1.712   4.216 -0.0523  0.9583  0.0511
17558TIP3    H174089   2.368   1.636   4.177 -1.3384 -0.1549  0.7537
17558TIP3    H274090   2.348   1.784   4.157  1.7762  0.2139 -0.2554
17559TIP3   OH274091   6.119   2.401  16.812  0.1773 -1.3937 -0.1673
17559TIP3    H174092   6.186   2.360  16.757  1.2643  0.7351 -0.5418
17559TIP3    H274093   6.062   2.447  16.750  0.9976  0.4403  0.3647
17560TIP3   OH274094   2.658   5.014  10.515  0.2282 -1.0517  0.7876
17560TIP3    H174095   2.596   4.953  10.555  2.1835 -2.4113  1.9286
17560TIP3    H274096   2.742   4.996  10.559  1.2892  1.2641 -0.0785
17561TIP3   OH274097   1.844   3.107  15.656  0.4186 -0.4027  0.0254
17561TIP3    H174098   1.753   3.112  15.684  0.3148  0.1645 -0.3734
17561TIP3    H274099   1.885   3.186  15.693  0.5210 -0.1798 -0.5435
17562TIP3   OH274100   3.930   4.574  12.594  0.3572  0.4643 -0.0926
17562TIP3    H174101   3.983   4.650  12.571 -2.4437  1.8288 -2.6963
17562TIP3    H274102   3.859   4.608  12.647  0.9910 -1.0488  1.8682
17563TIP3   OH274103   1.833   5.597  14.286  0.5051 -0.6424 -0.0738
17563TIP3    H174104   1.785   5.645  14.353  0.9227  0.5590 -0.5995
17563TIP3    H274105   1.766   5.568  14.224  0.4243  1.0913 -0.8469
17564TIP3   OH274106   2.785   0.893   4.212  0.8014  0.4927  0.0085
17564TIP3    H174107   2.692   0.875   4.195  1.0697 -1.8388  0.5749
17564TIP3    H274108   2.786   0.980   4.251 -1.1981  0.4671  0.2291
17565TIP3   OH274109   3.674   4.680  10.776  0.7275 -0.1832 -0.0016
17565TIP3    H174110   3.592   4.641  10.806  1.3499 -1.3843  0.2044
17565TIP3    H274111   3.740   4.649  10.838  1.1453  1.8861  0.6486
17566TIP3   OH274112   3.983   2.744   5.185  0.1974  0.8275 -0.0561
17566TIP3    H174113   3.994   2.762   5.279 -4.6540  2.7972  0.4036
17566TIP3    H274114   3.982   2.649   5.179  4.7845  0.4550  0.9764
17567TIP3   OH274115   0.274   3.606  14.840 -0.0985 -0.1025  0.0983
17567TIP3    H174116   0.359   3.563  14.834 -0.4068 -0.4976 -1.8037
17567TIP3    H274117   0.268   3.660  14.762 -2.6477 -2.0658 -1.2016
17568TIP3   OH274118   0.916   4.833   1.749 -0.1350  0.1259  0.3677
17568TIP3    H174119   0.896   4.764   1.686 -1.4979 -0.0984  1.0152
17568TIP3    H274120   0.871   4.910   1.716  0.4216  0.4129  0.2659
17569TIP3   OH274121   4.286   3.362  17.093  0.1931 -0.3187 -0.1817
17569TIP3    H174122   4.350   3.398  17.155  0.4561  0.5983 -0.9529
17569TIP3    H274123   4.268   3.274  17.125  1.1530 -0.2554  0.5731
17570TIP3   OH274124   4.310   2.005   0.222 -0.3587  0.1047  0.1198
17570TIP3    H174125   4.377   2.065   0.190 -0.6209  0.3123 -0.0346
17570TIP3    H274126   4.353   1.958   0.294 -0.2384  0.6660  0.4166
17571TIP3   OH274127   2.870   3.130   0.143  0.1577 -0.1155 -0.8669
17571TIP3    H174128   2.916   3.213   0.151  0.4552 -0.4228  1.3711
17571TIP3    H274129   2.931   3.066   0.181  0.0377 -1.4166 -2.7611
17572TIP3   OH274130   1.864   3.400  13.421  0.3993  0.0801 -0.4519
17572TIP3    H174131   1.793   3.353  13.466 -0.8976 -0.7487 -3.1471
17572TIP3    H274132   1.942   3.380  13.472 -0.9457 -0.8791  1.3314
17573TIP3   OH274133   6.267   0.657   0.605  0.8649 -0.2455  0.1181
17573TIP3    H174134   6.310   0.572   0.612 -0.2823 -0.8837 -0.2912
17573TIP3    H274135   6.329   0.712   0.558  1.6936 -0.8051  0.5426
17574TIP3   OH274136   2.358   2.025  14.755 -0.4381  0.2942 -0.1798
17574TIP3    H174137   2.283   1.976  14.722 -0.8285 -1.1857  2.5781
17574TIP3    H274138   2.433   1.989  14.708 -1.1808  0.0873 -1.2356
17575TIP3   OH274139   2.476   6.537   3.381  0.0776 -0.5535 -0.3432
17575TIP3    H174140   2.540   6.468   3.397  0.8092  0.6443  2.5368
17575TIP3    H274141   2.448   6.564   3.469 -2.4968  0.7175 -1.4600
17576TIP3   OH274142   5.483   2.084  14.566 -0.4567  0.3608  0.9155
17576TIP3    H174143   5.493   2.046  14.479 -2.1563  1.0883  0.3508
17576TIP3    H274144   5.393   2.064  14.591 -0.6579  1.9254  1.5957
17577TIP3   OH274145   0.245   1.652   5.341 -0.5089 -0.3033  0.3677
17577TIP3    H174146   0.205   1.738   5.348 -1.7364 -0.7406 -0.9153
17577TIP3    H274147   0.262   1.626   5.432 -2.0214  0.4185  0.8769
17578TIP3   OH274148   4.777   2.849   6.145 -0.0262 -0.2775  0.0826
17578TIP3    H174149   4.813   2.777   6.196  1.2814  0.9906  1.0451
17578TIP3    H274150   4.854   2.891   6.105 -0.9390 -0.7320 -2.3166
17579TIP3   OH274151   5.778   1.975   2.771  0.3110 -0.2125 -0.1783
17579TIP3    H174152   5.854   1.984   2.829  1.1822 -1.2994 -1.1198
17579TIP3    H274153   5.704   2.008   2.823  0.7671 -2.5621  2.1889
17580TIP3   OH274154   0.431   1.555  15.096 -0.4147  0.3394  0.7136
17580TIP3    H174155   0.415   1.461  15.102 -1.7035  0.5761  1.3301
17580TIP3    H274156   0.398   1.591  15.178 -2.2963  1.6203 -0.5038
17581TIP3   OH274157   6.562   1.495   2.396  0.0104  0.0324  0.4105
17581TIP3    H174158   6.605   1.568   2.442 -0.2399  1.1956 -1.1272
17581TIP3    H274159   6.487   1.535   2.353  1.4626 -0.4989 -2.8606
17582TIP3   OH274160   5.166   1.627  15.991 -0.3409 -0.1910  0.4073
17582TIP3    H174161   5.073   1.609  15.986 -0.4570  0.3518  0.5817
17582TIP3    H274162   5.180   1.704  15.935  0.1504 -0.7993 -0.3349
17583TIP3   OH274163   0.310   3.397   0.067  0.1521  0.6928  0.0141
17583TIP3    H174164   0.385   3.412   0.125 -0.7215 -1.6948  1.9742
17583TIP3    H274165   0.276   3.484   0.048  1.0867  1.6482  2.3425
17584TIP3   OH274166   3.843   1.689   5.082  0.5866  0.0279 -0.1194
17584TIP3    H174167   3.871   1.711   5.170 -1.8965 -0.0077  0.7670
17584TIP3    H274168   3.923   1.664   5.036  2.0629  0.9970  1.8188
17585TIP3   OH274169   2.702   1.806   3.978 -0.0823  0.0345  0.2565
17585TIP3    H174170   2.772   1.747   4.007 -0.7392 -0.7524  0.2775
17585TIP3    H274171   2.742   1.858   3.908  0.6313 -0.1395  0.5284
17586TIP3   OH274172   1.229   2.141   4.182  0.5245  0.4569  0.3099
17586TIP3    H174173   1.187   2.228   4.184 -1.6553 -0.5405  0.6607
17586TIP3    H274174   1.161   2.081   4.212  0.8696 -1.8005 -2.8685
17587TIP3   OH274175   0.983   3.664   0.678 -0.2289  0.2909  0.4525
17587TIP3    H174176   0.939   3.745   0.653 -1.3695 -0.3616  0.2457
17587TIP3    H274177   0.920   3.619   0.734 -0.4786 -1.3655 -1.0686
17588TIP3   OH274178   6.548   1.399   3.086  0.1504  0.0254  0.2398
17588TIP3    H174179   6.579   1.316   3.049  0.6263 -0.9568  2.7026
17588TIP3    H274180   6.453   1.387   3.096  0.0144  0.3070 -0.6128
17589TIP3   OH274181   4.010   4.995  10.149  0.0975  0.7862 -0.1353
17589TIP3    H174182   4.075   4.974  10.216  0.1005  0.7288 -0.1568
17589TIP3    H274183   4.037   5.080  10.115  0.6280  0.3937 -0.7145
17590TIP3   OH274184   2.076   3.318   0.559 -0.6632 -0.0762 -0.0209
17590TIP3    H174185   2.059   3.224   0.551  0.7680 -0.3943  0.2764
17590TIP3    H274186   2.137   3.337   0.488  1.2603 -0.0075  1.5373
17591TIP3   OH274187   4.141   3.606  14.397  0.3754 -0.1231  0.3095
17591TIP3    H174188   4.070   3.557  14.357  1.4691 -0.7481 -0.9452
17591TIP3    H274189   4.161   3.557  14.477  0.7738 -1.1661 -0.4061
17592TIP3   OH274190   2.706   4.274  14.551  0.7940 -0.0202  0.3667
17592TIP3    H174191   2.770   4.305  14.487  0.5156 -0.3670 -0.0821
17592TIP3    H274192   2.712   4.179  14.547 -1.0174 -0.1334 -0.9998
17593TIP3   OH274193   6.389   6.014   3.623  0.0306  0.0656 -0.0810
17593TIP3    H174194   6.395   6.061   3.706  1.1999 -2.0017  1.0893
17593TIP3    H274195   6.400   5.922   3.646 -0.5573 -0.6736 -2.4381
17594TIP3   OH274196   5.225   2.212  12.399 -0.1801  0.6974  0.3351
17594TIP3    H174197   5.282   2.206  12.322  0.0091  2.3744  0.3190
17594TIP3    H274198   5.259   2.144  12.458  0.2780  0.0320 -0.6496
17595TIP3   OH274199   0.148   2.788   1.332  0.0979 -0.4475 -0.3485
17595TIP3    H174200   0.164   2.882   1.326  0.6878 -0.5641 -0.6963
17595TIP3    H274201   0.181   2.752   1.250 -0.4453 -0.9155 -0.3682
17596TIP3   OH274202   2.204   5.036   1.701 -0.3980 -0.4679 -0.0648
17596TIP3    H174203   2.116   5.000   1.712 -1.2561  1.3010 -0.8320
17596TIP3    H274204   2.232   5.059   1.789 -0.5947 -1.2188  0.2081
17597TIP3   OH274205   3.760   2.129  10.599 -0.1341 -0.1985 -0.1563
17597TIP3    H174206   3.824   2.091  10.539 -0.1555 -0.6503  0.1048
17597TIP3    H274207   3.782   2.223  10.601 -0.0084 -0.2145 -0.7092
17598TIP3   OH274208   4.572   2.782  16.126  0.2790 -0.0974  0.3166
17598TIP3    H174209   4.546   2.692  16.141  2.2148 -0.5905  1.0527
17598TIP3    H274210   4.595   2.786  16.033  1.1661 -0.6680  0.4943
17599TIP3   OH274211   3.540   6.606  15.340 -0.6865  0.1805 -0.1134
17599TIP3    H174212   3.451   6.589  15.372 -0.5279 -0.5489 -0.0421
17599TIP3    H274213   3.587   6.524  15.356  0.3539  0.9650  1.0494
17600TIP3   OH274214   5.596   5.854   1.547 -0.1768 -0.2737  0.2218
17600TIP3    H174215   5.638   5.767   1.550  2.5352  0.8791 -0.7775
17600TIP3    H274216   5.561   5.860   1.458  1.4471  0.3684 -0.4076
17601TIP3   OH274217   4.281   0.374   4.567 -0.4299 -0.1375 -0.7695
17601TIP3    H174218   4.315   0.357   4.480  1.5181 -1.4264  0.1775
17601TIP3    H274219   4.345   0.336   4.626 -1.1062  1.6861  1.2893
17602TIP3   OH274220   6.627   0.531  13.883 -0.2316  0.1756  0.9081
17602TIP3    H174221   6.634   0.439  13.858  1.0072  0.2212  1.0185
17602TIP3    H274222   6.541   0.539  13.923 -2.0793 -0.0825 -2.6178
17603TIP3   OH274223   5.846   4.747  11.478 -0.0123 -0.0043 -0.2070
17603TIP3    H174224   5.939   4.735  11.457  0.3469  1.6702  0.2905
17603TIP3    H274225   5.801   4.724  11.397  1.0158  1.2964 -1.2175
17604TIP3   OH274226   2.864   4.749   3.643  0.6252  0.5881  0.1381
17604TIP3    H174227   2.914   4.763   3.723  1.8806 -0.9960 -0.3050
17604TIP3    H274228   2.785   4.703   3.672  1.0842  0.0016  0.4752
17605TIP3   OH274229   3.809   4.988  16.036  0.4741  0.0517  0.5715
17605TIP3    H174230   3.840   4.934  15.963 -0.4371 -0.7248  0.7299
17605TIP3    H274231   3.843   4.944  16.114 -2.3621 -1.8744  0.8686
17606TIP3   OH274232   1.197   0.215   4.083  1.0541  0.0514  0.4462
17606TIP3    H174233   1.277   0.250   4.043  1.4298 -2.8365 -1.6071
17606TIP3    H274234   1.228   0.162   4.156  0.6521  1.8290  1.9945
17607TIP3   OH274235   5.796   3.560   4.154 -0.3342  0.1166 -0.0757
17607TIP3    H174236   5.735   3.543   4.082  0.2414 -0.9150 -0.3446
17607TIP3    H274237   5.800   3.478   4.202 -0.6244  0.7601  1.0959
17608TIP3   OH274238   5.204   1.469   1.857 -0.2506  0.2141 -0.0559
17608TIP3    H174239   5.122   1.519   1.855 -0.3022  0.2439  1.5778
17608TIP3    H274240   5.209   1.434   1.946  0.4499 -1.6152 -0.7709
17609TIP3   OH274241   6.130   4.899   4.972  0.5529  0.0825  0.3092
17609TIP3    H174242   6.175   4.972   5.015  2.7680 -0.8056 -0.3654
17609TIP3    H274243   6.075   4.942   4.906  0.8864  1.2080  0.7284
17610TIP3   OH274244   6.571   5.079   4.692  0.1278 -0.1357 -0.2356
17610TIP3    H174245   6.621   5.150   4.651  2.9557 -2.4222 -1.0116
17610TIP3    H274246   6.509   5.052   4.624 -0.8862  1.3823  0.0138
17611TIP3   OH274247   1.876   0.986  12.520  0.6830  0.6440  0.3661
17611TIP3    H174248   1.969   0.962  12.523  0.4065 -1.0977 -2.1408
17611TIP3    H274249   1.833   0.923  12.579  0.8114 -0.3729 -0.5989
17612TIP3   OH274250   2.499   6.484   4.851 -0.0083 -0.2568  0.1635
17612TIP3    H174251   2.557   6.413   4.824 -2.4170 -2.4649  0.3558
17612TIP3    H274252   2.469   6.459   4.938 -0.3137  1.4356  0.5857
17613TIP3   OH274253   5.425   2.505   0.916 -0.8434 -0.2417 -0.1476
17613TIP3    H174254   5.509   2.505   0.870 -0.9659  3.0569 -0.5606
17613TIP3    H274255   5.449   2.498   1.009  0.0815  2.1450 -0.1374
17614TIP3   OH274256   1.216   4.193  16.925  0.5364 -0.2445  0.6016
17614TIP3    H174257   1.233   4.243  16.845  1.1185 -1.2387  0.0806
17614TIP3    H274258   1.297   4.144  16.940 -0.2741 -1.6084  0.6541
17615TIP3   OH274259   2.628   4.144  11.668  0.0035 -0.3362 -0.2311
17615TIP3    H174260   2.622   4.205  11.742  1.4935  0.3166 -0.5941
17615TIP3    H274261   2.573   4.070  11.693 -2.0280  1.2065  0.1523
17616TIP3   OH274262   4.005   1.983  12.842 -0.2325 -0.2833 -0.6947
17616TIP3    H174263   3.939   1.929  12.885 -2.6566  2.2231 -0.9031
17616TIP3    H274264   4.012   1.947  12.754 -0.0643 -1.5894 -0.1639
17617TIP3   OH274265   6.311   3.596   4.735 -0.0893 -0.1579 -0.6646
17617TIP3    H174266   6.353   3.531   4.792 -0.4045 -1.2063 -1.5817
17617TIP3    H274267   6.256   3.647   4.794  0.3390 -0.5806  0.1214
17618TIP3   OH274268   4.934   4.165  15.252  0.3587 -0.2414 -0.6901
17618TIP3    H174269   4.889   4.197  15.174 -0.9535  1.8774  0.8240
17618TIP3    H274270   5.009   4.223  15.262  1.0664 -1.1057 -0.8733
17619TIP3   OH274271   4.917   6.172   3.472  0.1770  0.5077 -0.6950
17619TIP3    H174272   5.002   6.144   3.437  0.3116  2.2042 -1.8868
17619TIP3    H274273   4.938   6.246   3.529 -0.3580 -0.2347  0.5047
17620TIP3   OH274274   2.186   1.674  16.340  0.4022  0.0300  0.4360
17620TIP3    H174275   2.253   1.609  16.363  0.8510  0.0784 -0.6567
17620TIP3    H274276   2.215   1.709  16.255 -1.1076 -0.0749 -0.1531
17621TIP3   OH274277   6.281   2.947  13.526  0.7803 -0.4225 -0.0487
17621TIP3    H174278   6.315   2.921  13.440  1.0659 -1.1137  0.2665
17621TIP3    H274279   6.216   2.880  13.546 -0.5430  0.6897 -0.4881
17622TIP3   OH274280   1.604   2.385   0.838 -0.8804 -0.2293 -0.0220
17622TIP3    H174281   1.662   2.323   0.794 -2.6848 -1.2706 -1.0602
17622TIP3    H274282   1.599   2.354   0.928 -0.1443 -0.3379 -0.0073
17623TIP3   OH274283   1.440   2.483   3.202  0.3786 -0.7353  0.1501
17623TIP3    H174284   1.414   2.509   3.291 -0.4538  1.1434 -0.5689
17623TIP3    H274285   1.376   2.528   3.145  0.4546 -2.4615 -1.3785
17624TIP3   OH274286   6.692   0.960   0.967  0.2135  0.3691  0.3980
17624TIP3    H174287   6.673   0.888   1.027 -0.2916  0.5975  0.5233
17624TIP3    H274288   6.640   0.940   0.889 -0.2705  0.8076  0.5962
17625TIP3   OH274289   2.909   1.737   2.804  0.0912 -0.0870 -0.1534
17625TIP3    H174290   2.993   1.779   2.792 -0.4893  2.2924  2.9389
17625TIP3    H274291   2.845   1.797   2.765 -0.3058 -1.6578 -2.0909
17626TIP3   OH274292   4.371   3.109  17.167 -0.1367 -0.3754  0.1538
17626TIP3    H174293   4.465   3.089  17.171 -0.1984 -0.5039  1.5420
17626TIP3    H274294   4.336   3.046  17.104  1.0629  1.2999 -2.3530
17627TIP3   OH274295   3.990   6.344   2.717 -0.9567 -0.8471 -0.6033
17627TIP3    H174296   4.063   6.296   2.757 -1.5716 -0.4414  1.1017
17627TIP3    H274297   4.032   6.399   2.650  0.6237  0.5891  1.4066
17628TIP3   OH274298   4.521   6.718  17.018 -0.3839  0.2040  0.4680
17628TIP3    H174299   4.479   6.718  16.932 -1.7925 -0.2046  1.1307
17628TIP3    H274300   4.615   6.717  16.998 -0.6660 -1.3234 -1.0694
17629TIP3   OH274301   3.849   3.578  15.758  0.4388  0.0134 -0.3359
17629TIP3    H174302   3.865   3.637  15.685 -2.5844 -3.6759 -4.4888
17629TIP3    H274303   3.763   3.604  15.792 -0.5454 -1.3421 -1.6697
17630TIP3   OH274304   2.364   4.600  13.377 -0.2399  0.3627  0.0575
17630TIP3    H174305   2.402   4.664  13.437  2.4144  0.5108 -1.5832
17630TIP3    H274306   2.353   4.647  13.294  0.5795 -0.9120 -0.8283
17631TIP3   OH274307   4.085   3.697  12.472  0.3226 -0.4328  0.1913
17631TIP3    H174308   4.178   3.723  12.473  0.1880  0.3348 -1.9924
17631TIP3    H274309   4.080   3.629  12.405 -0.6199 -0.8269  0.6483
17632TIP3   OH274310   4.831   2.454   5.436 -0.5312 -0.2810 -0.2162
17632TIP3    H174311   4.764   2.387   5.422  0.8491 -1.8781  0.5431
17632TIP3    H274312   4.804   2.498   5.517 -2.3818  1.3618 -1.6098
17633TIP3   OH274313   3.364   0.850   0.253 -0.4643 -0.2576 -0.3074
17633TIP3    H174314   3.399   0.828   0.339 -0.0037  1.0569 -0.1398
17633TIP3    H274315   3.364   0.767   0.206  0.5357 -0.7531  0.5149
17634TIP3   OH274316   4.017   4.751  13.278  0.5807 -0.0158  0.1700
17634TIP3    H174317   3.980   4.720  13.361 -0.1617  0.1789 -0.0767
17634TIP3    H274318   3.951   4.727  13.213  1.3552 -0.5516 -0.4231
17635TIP3   OH274319   4.986   5.454   2.130  0.4749 -0.6556  0.1077
17635TIP3    H174320   4.923   5.460   2.202  0.0996  2.4438 -0.3597
17635TIP3    H274321   5.060   5.507   2.157  2.4064 -3.0905  0.0193
17636TIP3   OH274322   2.513   6.094   1.786  0.1749  0.3949 -0.5059
17636TIP3    H174323   2.561   6.026   1.740  2.3260  0.7915  0.9864
17636TIP3    H274324   2.580   6.141   1.836 -1.8655  0.1784  2.7674
17637TIP3   OH274325   1.121   4.141  16.442 -0.1853  0.0100 -0.6666
17637TIP3    H174326   1.166   4.186  16.513 -0.2943  0.4277 -0.8615
17637TIP3    H274327   1.184   4.144  16.369  0.1855 -0.9784 -0.4020
17638TIP3   OH274328   4.071   1.039   1.483 -0.3944 -0.0400  0.6223
17638TIP3    H174329   4.112   1.001   1.405  0.5906  1.7819  0.1970
17638TIP3    H274330   3.977   1.029   1.468 -0.2053 -0.2461 -0.5235
17639TIP3   OH274331   3.634   0.159   5.268  0.2167 -0.2734  0.5080
17639TIP3    H174332   3.565   0.196   5.213  0.8219 -0.0465 -0.1055
17639TIP3    H274333   3.619   0.064   5.264 -1.7414 -0.1276  2.6183
17640TIP3   OH274334   0.292   6.733   1.379 -0.8132  0.0723  0.2936
17640TIP3    H174335   0.302   6.766   1.290 -3.2504  1.0715  0.3025
17640TIP3    H274336   0.378   6.741   1.419  0.3344 -0.3934 -1.9464
17641TIP3   OH274337   4.572   6.716  15.042 -0.0797 -0.2676  0.0596
17641TIP3    H174338   4.664   6.729  15.064 -0.0919  1.5523 -0.7555
17641TIP3    H274339   4.549   6.631  15.080  1.9841 -0.8568  0.0789
17642TIP3   OH274340   0.916   1.514   1.916  0.0570  0.0663  0.1536
17642TIP3    H174341   0.875   1.505   2.002 -2.1193 -0.5592 -0.8782
17642TIP3    H274342   0.920   1.608   1.901  1.4766  0.2382  1.3499
17643TIP3   OH274343   1.038   4.983   4.104  0.2418  0.2796 -0.2880
17643TIP3    H174344   0.964   4.929   4.074  0.5420 -0.3968  0.1626
17643TIP3    H274345   1.078   5.015   4.024 -0.0173 -0.0746 -0.5660
17644TIP3   OH274346   4.033   5.472  16.513 -0.3937 -0.2858 -0.3178
17644TIP3    H174347   3.976   5.539  16.550 -0.6676 -0.9933  0.5801
17644TIP3    H274348   4.107   5.521  16.478 -0.6790  0.5079  0.1496
17645TIP3   OH274349   1.210   5.983   4.252  0.4626 -0.2840 -0.1740
17645TIP3    H174350   1.260   5.964   4.173 -1.2205 -0.2145 -1.2940
17645TIP3    H274351   1.144   5.914   4.256  0.6590 -0.4254  1.3256
17646TIP3   OH274352   3.287   4.509   5.637 -0.2005 -0.0516  0.1921
17646TIP3    H174353   3.254   4.556   5.560 -0.8966 -1.4377 -0.4017
17646TIP3    H274354   3.379   4.490   5.616  0.7255  2.7224  1.3098
17647TIP3   OH274355   6.235   5.364   0.147 -0.6116  0.0596 -0.0437
17647TIP3    H174356   6.246   5.394   0.057 -1.5973  1.4494  0.2567
17647TIP3    H274357   6.298   5.415   0.198 -0.5762 -0.1733  0.1494
17648TIP3   OH274358   1.144   4.659   5.229  0.0591  0.0392 -0.6353
17648TIP3    H174359   1.139   4.742   5.276  0.4104 -0.0692 -0.4049
17648TIP3    H274360   1.055   4.624   5.234  0.3196 -0.4825  0.8782
17649TIP3   OH274361   2.678   6.258   0.974 -0.1335 -0.0300  0.6909
17649TIP3    H174362   2.750   6.318   0.955  1.4903 -1.9874  0.3519
17649TIP3    H274363   2.693   6.231   1.065  0.1585 -1.1863  0.3169
17650TIP3   OH274364   4.603   3.950  11.259 -0.3742  0.2789  0.0584
17650TIP3    H174365   4.559   4.021  11.307  1.2997  0.4068  1.5150
17650TIP3    H274366   4.584   3.872  11.310  1.1264  0.3588  0.7965
17651TIP3   OH274367   0.319   5.209  16.823  0.0137  0.0396  0.4844
17651TIP3    H174368   0.303   5.154  16.900  0.5189  0.0750  0.6130
17651TIP3    H274369   0.335   5.148  16.752  0.8012  0.0132  0.6761
17652TIP3   OH274370   3.781   5.050   4.964  0.6542 -0.8465  0.6784
17652TIP3    H174371   3.802   5.136   5.001  0.0971 -0.9461  1.2425
17652TIP3    H274372   3.693   5.031   4.996  0.9424 -1.8229  0.9084
17653TIP3   OH274373   6.517   3.225  17.372  0.1680 -0.5329  0.1469
17653TIP3    H174374   6.560   3.147  17.407 -0.7031  0.4025  3.6735
17653TIP3    H274375   6.451   3.248  17.438  0.4795  3.2713 -0.6599
17654TIP3   OH274376   2.036   6.188   1.612 -0.5588  0.2548  0.2289
17654TIP3    H174377   2.116   6.237   1.590 -0.4926 -0.0776 -0.3134
17654TIP3    H274378   1.993   6.240   1.679  0.6654 -0.0937  1.3226
17655TIP3   OH274379   1.316   4.231  14.389 -0.0825 -0.2965  0.6912
17655TIP3    H174380   1.382   4.250  14.323 -1.5239 -1.5737 -1.2519
17655TIP3    H274381   1.355   4.163  14.444  0.3768 -0.7667 -0.1955
17656TIP3   OH274382   5.355   4.606  13.175  0.8696  0.4008  0.1844
17656TIP3    H174383   5.366   4.538  13.241 -0.1345  0.5711  0.5600
17656TIP3    H274384   5.273   4.583  13.131  1.8032 -0.0058 -1.3860
17657TIP3   OH274385   1.493   6.041   4.152  0.3917 -0.1230 -0.1218
17657TIP3    H174386   1.537   6.123   4.132 -0.3791  0.5803  0.9374
17657TIP3    H274387   1.544   6.003   4.224 -1.4515  1.4242  2.1505
17658TIP3   OH274388   1.531   1.769  13.416 -0.2124 -0.2683 -0.1258
17658TIP3    H174389   1.616   1.749  13.377  0.4888  1.1222  0.6083
17658TIP3    H274390   1.485   1.819  13.349 -0.5818 -1.2551 -0.6271
17659TIP3   OH274391   3.755   5.482  11.172 -0.1837  0.0307  0.1280
17659TIP3    H174392   3.675   5.457  11.218 -0.3369 -0.5350 -0.4217
17659TIP3    H274393   3.823   5.482  11.240 -0.7634  1.1648  0.7238
17660TIP3   OH274394   1.649   2.375   0.082  0.0343  0.0168  0.3563
17660TIP3    H174395   1.667   2.467   0.064  1.1848  0.2793  2.4587
17660TIP3    H274396   1.690   2.359   0.167  1.8695 -3.0228 -0.9332
17661TIP3   OH274397   0.161   1.661  14.292  0.2140 -0.4544 -0.3828
17661TIP3    H174398   0.088   1.677  14.351 -0.5023 -0.4137 -1.2473
17661TIP3    H274399   0.233   1.633  14.348 -0.2030  0.3561  0.5755
17662TIP3   OH274400   0.819   2.100   5.263  0.0454  0.4331 -0.3480
17662TIP3    H174401   0.775   2.030   5.313 -1.5582  2.9108  1.9981
17662TIP3    H274402   0.753   2.131   5.202  0.5021  0.3856 -0.8669
17663TIP3   OH274403   6.112   4.795  11.395 -0.3805  0.3904  0.1630
17663TIP3    H174404   6.143   4.802  11.304 -1.5706 -1.4551 -0.4469
17663TIP3    H274405   6.163   4.723  11.432 -0.5310  0.5452  0.6745
17664TIP3   OH274406   2.991   3.276  15.803 -0.4016  0.3990 -0.1639
17664TIP3    H174407   3.085   3.271  15.789 -0.2437  0.1322  0.9100
17664TIP3    H274408   2.972   3.370  15.803 -0.0251  0.4816  0.2442
17665TIP3   OH274409   2.450   6.680  12.918 -0.3742  0.3543  0.2785
17665TIP3    H174410   2.419   6.748  12.858  0.2178  0.1423 -0.2839
17665TIP3    H274411   2.378   6.617  12.921 -1.0954  1.1996  1.1304
17666TIP3   OH274412   2.883   6.346  15.440  0.4829  0.0863 -0.0894
17666TIP3    H174413   2.841   6.337  15.354  1.0450  0.0443 -0.3631
17666TIP3    H274414   2.918   6.259  15.460  1.9132  0.5088 -0.6447
17667TIP3   OH274415   1.872   5.045  13.027  0.6313  0.2794 -0.1668
17667TIP3    H174416   1.784   5.072  13.000  0.6721  1.2771  0.6463
17667TIP3    H274417   1.902   4.987  12.957 -0.9520 -0.6615 -0.0975
17668TIP3   OH274418   6.377   3.091  16.222  0.0240  0.4131 -0.5002
17668TIP3    H174419   6.415   3.134  16.298  0.7096 -0.6231 -0.2252
17668TIP3    H274420   6.400   3.147  16.148 -0.1916  1.1545 -0.0129
17669TIP3   OH274421   3.827   3.223  15.394 -0.0882  0.3954  0.2045
17669TIP3    H174422   3.741   3.200  15.430  0.0196 -0.0749  0.1641
17669TIP3    H274423   3.809   3.248  15.303 -0.1579  0.1421  0.1507
17670TIP3   OH274424   2.346   6.650   2.801  0.0345 -0.2461 -0.4789
17670TIP3    H174425   2.347   6.560   2.834  0.7976  0.6300  2.1698
17670TIP3    H274426   2.392   6.700   2.869 -1.8292  2.4007 -1.0306
17671TIP3   OH274427   5.136   0.732   5.959  0.3625  0.0161 -0.4526
17671TIP3    H174428   5.046   0.765   5.964 -0.0953 -1.2013 -0.4192
17671TIP3    H274429   5.144   0.673   6.034  1.0124 -0.3069 -0.7734
17672TIP3   OH274430   5.684   2.355  11.198 -0.2276  0.4603  0.4326
17672TIP3    H174431   5.765   2.396  11.169  0.3165 -0.8978  0.0000
17672TIP3    H274432   5.630   2.349  11.120  0.4562 -1.3665  0.0530
17673TIP3   OH274433   4.097   2.189  13.792  0.1928 -0.0437  0.0661
17673TIP3    H174434   4.192   2.179  13.797  0.0624 -1.3565  0.2036
17673TIP3    H274435   4.063   2.109  13.830 -1.0207  1.8203  3.2480
17674TIP3   OH274436   0.069   4.456  13.269 -0.5176  0.2523  0.0016
17674TIP3    H174437  -0.004   4.412  13.226 -1.1930  0.6680  0.6896
17674TIP3    H274438   0.115   4.387  13.317 -1.4241  0.2380  0.8796
17675TIP3   OH274439   2.175   0.182  12.003  0.2050 -0.2153 -0.1324
17675TIP3    H174440   2.135   0.096  11.993  0.1402 -0.6051  2.7725
17675TIP3    H274441   2.268   0.168  11.981  0.0090 -0.7768 -0.6179
17676TIP3   OH274442   3.544   5.694   2.475 -0.0432  0.0556  0.7563
17676TIP3    H174443   3.485   5.682   2.550  2.2159 -0.8041  2.5343
17676TIP3    H274444   3.559   5.605   2.442 -0.0992  0.3086  0.0377
17677TIP3   OH274445   0.238   2.859  11.489  0.0455  0.3862 -0.1932
17677TIP3    H174446   0.271   2.797  11.424 -0.2695  0.1513 -0.1303
17677TIP3    H274447   0.283   2.941  11.468  2.0110 -0.3096  0.9496
17678TIP3   OH274448   2.851   4.069   4.847  0.3623  0.0618 -0.1318
17678TIP3    H174449   2.894   4.114   4.774 -0.5207  1.7012  0.2897
17678TIP3    H274450   2.923   4.033   4.899  1.0300 -0.4268 -1.3664
17679TIP3   OH274451   0.995   3.589  13.319  0.0224  0.3661  0.1795
17679TIP3    H174452   0.926   3.642  13.279 -1.8957 -1.6088  0.6424
17679TIP3    H274453   1.011   3.519  13.255 -0.2902 -0.6280  1.1556
17680TIP3   OH274454   1.216   1.595   3.715 -0.0149 -0.3914 -0.3919
17680TIP3    H174455   1.307   1.570   3.726  0.5323  1.8206  0.7309
17680TIP3    H274456   1.217   1.657   3.642 -0.9722 -1.7896 -1.6620
17681TIP3   OH274457   2.837   2.531  14.030  0.1213  0.2924 -0.0570
17681TIP3    H174458   2.807   2.608  13.981  1.3617  1.2793  0.6798
17681TIP3    H274459   2.930   2.523  14.009  0.4755  0.1960  1.4031
17682TIP3   OH274460   5.841   2.872   1.834 -0.0480  0.0785 -0.3246
17682TIP3    H174461   5.906   2.893   1.766  0.6836  1.1369  0.6503
17682TIP3    H274462   5.780   2.813   1.791  1.2155 -0.4688 -1.4710
17683TIP3   OH274463   0.426   1.600   4.383  0.3592  0.1096  0.3769
17683TIP3    H174464   0.482   1.626   4.457  1.1070 -0.6068  0.0758
17683TIP3    H274465   0.451   1.509   4.365 -0.5092 -0.0311 -0.1330
17684TIP3   OH274466   5.981   4.088  10.929 -0.1687  0.3563  0.2579
17684TIP3    H174467   6.016   4.046  10.851 -0.4201 -1.0305  0.8656
17684TIP3    H274468   6.048   4.152  10.954  1.4087 -1.3634  0.6777
17685TIP3   OH274469   1.567   2.544  17.173 -0.3845  0.1140 -0.0343
17685TIP3    H174470   1.596   2.501  17.093  0.5787 -0.4015  0.5802
17685TIP3    H274471   1.500   2.486  17.209  0.1263 -0.3199  0.2195
17686TIP3   OH274472   5.630   0.678   1.530  0.6467 -0.0379  1.0581
17686TIP3    H174473   5.648   0.602   1.584 -0.3911 -1.2171 -0.1922
17686TIP3    H274474   5.694   0.672   1.459 -0.7934 -0.9769 -0.2050
17687TIP3   OH274475   3.956   5.586  13.702  0.2538 -0.4671  0.0450
17687TIP3    H174476   3.957   5.518  13.769  2.5813 -0.4512  0.1074
17687TIP3    H274477   4.028   5.645  13.727 -0.6790  1.1349 -0.8907
17688TIP3   OH274478   4.987   3.346  15.521  0.9948 -0.3353 -0.2348
17688TIP3    H174479   4.970   3.405  15.595  1.7881  0.6573 -0.8172
17688TIP3    H274480   4.917   3.365  15.459 -0.3673 -2.0091  0.7084
17689TIP3   OH274481   3.950   3.564  17.279 -0.0189  0.1633  0.1146
17689TIP3    H174482   3.905   3.646  17.259 -1.2752 -0.0182  1.9784
17689TIP3    H274483   3.926   3.505  17.207 -1.1490  0.6806  0.0423
17690TIP3   OH274484   0.407   6.484   1.203 -0.1980 -0.2224 -0.3592
17690TIP3    H174485   0.408   6.580   1.203 -2.5669 -0.1403 -0.6149
17690TIP3    H274486   0.463   6.459   1.276  0.5818  1.3439 -0.3852
17691TIP3   OH274487   4.905   3.345  13.818 -0.0250 -0.5220 -0.3727
17691TIP3    H174488   4.838   3.359  13.886  2.5393 -2.3418  2.8127
17691TIP3    H274489   4.922   3.251  13.820  2.1539 -0.2067 -1.5027
17692TIP3   OH274490   3.695   0.547  11.651  0.4194  0.5429  0.0608
17692TIP3    H174491   3.784   0.572  11.628 -0.4286  2.5768 -1.2126
17692TIP3    H274492   3.702   0.455  11.676  3.1948  1.1799  2.0110
17693TIP3   OH274493   1.724   1.668  16.995 -0.2270  0.0702  0.0207
17693TIP3    H174494   1.789   1.686  17.063  0.0402 -1.0588  0.0946
17693TIP3    H274495   1.760   1.706  16.915 -0.1748  0.7270  0.3566
17694TIP3   OH274496   0.524   6.472  14.293 -0.2947 -0.1321  0.0706
17694TIP3    H174497   0.540   6.504  14.204 -0.8730  0.7256  0.2548
17694TIP3    H274498   0.572   6.389  14.298  0.0180 -0.0296 -0.9272
17695TIP3   OH274499   3.308   5.196   1.668 -0.4033  0.1395 -0.0171
17695TIP3    H174500   3.311   5.278   1.618  1.2066  0.9825  1.3438
17695TIP3    H274501   3.296   5.224   1.759  0.2421 -1.1160  0.4834
17696TIP3   OH274502   3.666   3.087  13.671 -0.0214 -0.0495 -0.3562
17696TIP3    H174503   3.585   3.045  13.642 -1.2293  0.8612  1.4701
17696TIP3    H274504   3.653   3.101  13.765  0.6958  3.4174 -0.6341
17697TIP3   OH274505   4.343   2.146  16.982  0.8046 -0.3662  0.2090
17697TIP3    H174506   4.404   2.160  16.910  2.0866 -2.6658  0.7389
17697TIP3    H274507   4.373   2.203  17.052  0.3437  0.9159 -0.6173
17698TIP3   OH274508   5.630   2.791  11.804 -0.2980  0.2987 -0.3059
17698TIP3    H174509   5.714   2.790  11.759  0.0114  1.2499  0.2349
17698TIP3    H274510   5.594   2.703  11.789  1.3299 -0.5402  0.4790
17699TIP3   OH274511   3.821   1.470  16.852  0.0465 -0.0556 -0.9053
17699TIP3    H174512   3.787   1.507  16.770 -0.9632  3.3442  0.8517
17699TIP3    H274513   3.904   1.517  16.867  0.3372 -0.8015 -0.0791
17700TIP3   OH274514   5.680   5.144   2.556 -0.4155 -0.3832  0.1488
17700TIP3    H174515   5.755   5.086   2.563 -2.0764 -2.7148  0.0473
17700TIP3    H274516   5.688   5.186   2.470  0.1589 -1.5176 -0.3591
17701TIP3   OH274517   5.517   0.476   3.721 -0.5205  0.4775  0.1263
17701TIP3    H174518   5.524   0.381   3.727  1.3867  0.5983  0.6590
17701TIP3    H274519   5.464   0.492   3.643 -0.9154 -1.0176  0.0593
17702TIP3   OH274520   6.249   3.131   2.000 -0.0501 -0.2022 -0.4481
17702TIP3    H174521   6.191   3.060   1.973  1.5022 -1.1302 -1.5384
17702TIP3    H274522   6.327   3.087   2.035  0.3884  0.9825  0.1450
17703TIP3   OH274523   4.187   6.329  15.962 -0.5765  0.5746  0.4878
17703TIP3    H174524   4.212   6.411  15.919  2.0002 -0.8754 -1.0593
17703TIP3    H274525   4.179   6.352  16.055  1.3097  2.3796  0.2792
17704TIP3   OH274526   5.691   5.512   0.676 -0.1772  0.7128  0.0888
17704TIP3    H174527   5.773   5.558   0.693  0.3378 -0.8117  2.2699
17704TIP3    H274528   5.688   5.443   0.743 -1.1138 -2.1125 -2.6013
17705TIP3   OH274529   0.342   5.325   5.561 -0.3635  0.0428 -0.5285
17705TIP3    H174530   0.271   5.356   5.618  0.0677 -0.4822  0.3088
17705TIP3    H274531   0.411   5.298   5.621 -0.0311 -0.8559 -1.2961
17706TIP3   OH274532   5.796   4.108  13.673 -0.5136 -0.6156 -0.1713
17706TIP3    H174533   5.721   4.107  13.733 -0.1717 -0.1147  0.2738
17706TIP3    H274534   5.758   4.090  13.587 -1.1888 -0.0572 -0.0013
17707TIP3   OH274535   0.244   3.441   2.832  0.2660 -0.0558  0.0828
17707TIP3    H174536   0.207   3.396   2.907  0.3025 -0.7509 -0.3065
17707TIP3    H274537   0.334   3.407   2.825  0.0702 -0.4624 -0.6254
17708TIP3   OH274538   4.827   1.499  10.832  0.5241  0.3562 -0.6202
17708TIP3    H174539   4.786   1.552  10.899 -0.4497 -2.8209  1.5278
17708TIP3    H274540   4.804   1.542  10.749  1.0169  3.9100  0.9365
17709TIP3   OH274541   1.235   2.791   0.550  0.1963 -0.5703  0.0222
17709TIP3    H174542   1.284   2.720   0.509  2.9531 -0.2674  2.4284
17709TIP3    H274543   1.156   2.750   0.584 -0.4201 -1.5106 -2.3696
17710TIP3   OH274544   1.075   4.235  11.088  0.6293 -0.1718  0.1227
17710TIP3    H174545   1.076   4.330  11.092  0.8942 -0.1459 -0.4672
17710TIP3    H274546   1.096   4.214  10.997  0.7897 -0.7939  0.2945
17711TIP3   OH274547   6.608   1.225  13.162  0.8197 -0.2758 -0.3362
17711TIP3    H174548   6.675   1.193  13.224  1.2061 -0.3724 -0.7989
17711TIP3    H274549   6.650   1.300  13.119  0.1049  0.5608  0.3771
17712TIP3   OH274550   6.296   2.366   1.888 -0.1018  0.3440  0.6084
17712TIP3    H174551   6.213   2.349   1.843  0.3591  0.7036 -0.3969
17712TIP3    H274552   6.316   2.283   1.933 -1.0352  0.2820  0.9353
17713TIP3   OH274553   2.497   4.092  12.074  0.0692 -0.1327  0.3163
17713TIP3    H174554   2.542   4.168  12.038  1.1114 -1.3327 -1.0732
17713TIP3    H274555   2.551   4.064  12.148 -0.7235  0.8791  1.3087
17714TIP3   OH274556   0.192   0.869   2.795 -0.4351 -0.0823 -0.6165
17714TIP3    H174557   0.177   0.782   2.756  1.5427 -0.7139 -0.0617
17714TIP3    H274558   0.219   0.923   2.721 -1.5334  0.0585 -0.9390
17715TIP3   OH274559   5.270   5.977  13.611 -1.1162  0.1362  0.5754
17715TIP3    H174560   5.334   6.041  13.642  0.8143 -1.5034  0.1748
17715TIP3    H274561   5.195   6.029  13.584  0.8878  2.3656 -1.0677
17716TIP3   OH274562   0.602   1.433  14.468 -0.4723  0.5770 -0.5955
17716TIP3    H174563   0.598   1.339  14.452 -1.9842  0.4155  0.4475
17716TIP3    H274564   0.593   1.442  14.563  2.3619  1.6941 -0.3494
17717TIP3   OH274565   3.574   2.598   2.429 -0.4128 -0.1917 -0.2901
17717TIP3    H174566   3.513   2.556   2.490 -0.6607  1.1119  0.3903
17717TIP3    H274567   3.557   2.692   2.438  0.0415  0.0692 -1.8604
17718TIP3   OH274568   6.276   4.830   3.105 -0.6935 -0.3855  0.1396
17718TIP3    H174569   6.266   4.865   3.016  0.8384  0.5724  0.3197
17718TIP3    H274570   6.220   4.752   3.106 -0.4883 -0.6065 -1.7663
17719TIP3   OH274571   6.717   4.546   3.325  0.5002 -0.2902 -0.0111
17719TIP3    H174572   6.744   4.547   3.234  0.7049 -0.3333  0.0497
17719TIP3    H274573   6.787   4.499   3.371 -0.5559 -2.1322 -0.1521
17720TIP3   OH274574   4.070   5.705  10.734 -0.0999  0.0395 -0.3629
17720TIP3    H174575   3.979   5.720  10.708 -0.4298 -0.6994  0.3276
17720TIP3    H274576   4.121   5.734  10.659 -0.8745  0.9416 -0.5633
17721TIP3   OH274577   4.399   0.081  15.378  0.2359 -0.3534 -0.2489
17721TIP3    H174578   4.428   0.160  15.332 -0.1719  0.5280  0.9807
17721TIP3    H274579   4.480   0.043  15.413  0.1086  1.7185  2.5691
17722TIP3   OH274580   2.787   2.308   2.737  0.5509 -0.0344  0.0642
17722TIP3    H174581   2.882   2.312   2.723  0.9485  2.4069  2.5047
17722TIP3    H274582   2.778   2.270   2.825 -0.7157  0.0775 -0.0060
17723TIP3   OH274583   1.959   6.500  14.828  0.0985  0.1524  0.1992
17723TIP3    H174584   2.047   6.462  14.830 -0.1335 -0.3730  0.4509
17723TIP3    H274585   1.945   6.534  14.917 -0.5433 -1.1380  0.6199
17724TIP3   OH274586   6.387   4.673  12.022  0.4504  0.1617  0.8091
17724TIP3    H174587   6.350   4.611  12.085 -0.1236  0.4712  0.7812
17724TIP3    H274588   6.481   4.674  12.042  0.6645 -1.5496  0.0805
17725TIP3   OH274589   3.131   1.425   9.908 -0.2899 -0.1007 -0.0339
17725TIP3    H174590   3.157   1.369   9.835  3.2424  2.8003 -1.3063
17725TIP3    H274591   3.158   1.376   9.986 -0.9325 -1.7473 -0.7781
17726TIP3   OH274592   5.990   0.788   5.693 -0.0270  0.1499  0.0419
17726TIP3    H174593   5.959   0.742   5.615 -0.5978 -0.4179  0.5954
17726TIP3    H274594   5.964   0.732   5.766  0.5003  0.6754  0.6442
17727TIP3   OH274595   5.354   6.315   0.818  0.4522 -0.1241  0.0985
17727TIP3    H174596   5.355   6.238   0.761 -0.5617 -0.4247  0.4594
17727TIP3    H274597   5.396   6.286   0.899  3.4544  0.7782 -1.0055
17728TIP3   OH274598   5.033   3.661  14.559 -0.0407 -0.2976 -0.0083
17728TIP3    H174599   5.016   3.750  14.590  0.7747  0.2492 -1.0888
17728TIP3    H274600   5.044   3.609  14.639 -1.6076  0.3288  0.6528
17729TIP3   OH274601   2.972   2.863   2.501 -0.7797 -0.2571 -0.0218
17729TIP3    H174602   2.940   2.871   2.591  0.6240 -0.7461  0.5483
17729TIP3    H274603   2.894   2.841   2.450 -1.8601  1.4637  0.8172
17730TIP3   OH274604   4.110   1.629   3.187  0.0066  0.5443  0.3414
17730TIP3    H174605   4.091   1.540   3.160  2.4445 -0.1355  0.6631
17730TIP3    H274606   4.118   1.625   3.282 -0.7482  1.3090  0.4517
17731TIP3   OH274607   4.286   5.973  13.596 -0.1056  0.8543  0.7501
17731TIP3    H174608   4.308   6.046  13.655  0.3666  0.5956  0.9018
17731TIP3    H274609   4.328   5.897  13.636 -0.1059  0.6063  0.2838
17732TIP3   OH274610   5.941   1.916   5.737 -0.3872 -0.2121  0.4768
17732TIP3    H174611   6.034   1.898   5.731 -0.4717 -0.3586 -0.5875
17732TIP3    H274612   5.900   1.855   5.676 -1.2414 -0.5458  1.3596
17733TIP3   OH274613   0.359   5.977  15.655 -0.1379 -0.1170  0.6384
17733TIP3    H174614   0.425   5.927  15.606  1.5054  1.9071  0.6735
17733TIP3    H274615   0.355   5.934  15.741  0.6189 -0.6775  0.4018
17734TIP3   OH274616   1.842   0.291  13.269  0.3191  0.4606 -0.8480
17734TIP3    H174617   1.905   0.302  13.341  0.0255  0.0873 -0.5314
17734TIP3    H274618   1.777   0.359  13.284 -0.5097 -0.5035  0.0636
17735TIP3   OH274619   1.253   6.380  13.250 -0.2822 -0.0460 -0.0729
17735TIP3    H174620   1.223   6.457  13.200 -2.1325 -0.6660  0.0018
17735TIP3    H274621   1.289   6.321  13.184 -2.6687 -0.8397 -0.7412
17736TIP3   OH274622   4.446   1.750  14.060 -0.1360 -0.8841  0.1330
17736TIP3    H174623   4.393   1.813  14.110  0.1651  3.1242 -3.9239
17736TIP3    H274624   4.535   1.762  14.094  0.0351  1.6295 -0.9383
17737TIP3   OH274625   1.853   6.405   4.255 -0.1241  0.5996 -0.0427
17737TIP3    H174626   1.917   6.349   4.212  0.3657 -0.0199  1.4380
17737TIP3    H274627   1.773   6.397   4.202  0.4873 -0.0240 -0.8832
17738TIP3   OH274628   2.441   5.528   2.735 -0.0684  0.8735 -0.2683
17738TIP3    H174629   2.380   5.484   2.675 -0.0523  1.6580 -0.8821
17738TIP3    H274630   2.385   5.566   2.803 -0.5977  3.5679 -2.0484
17739TIP3   OH274631   0.939   0.337  17.301 -0.3739  0.8138  0.4040
17739TIP3    H174632   1.021   0.357  17.345 -0.7925 -1.0520  2.1759
17739TIP3    H274633   0.941   0.390  17.221  2.1449  1.4491  0.8075
17740TIP3   OH274634   4.837   0.104   4.177 -0.1351 -0.5957 -0.1771
17740TIP3    H174635   4.810   0.196   4.181 -1.0428 -0.7642 -1.7027
17740TIP3    H274636   4.783   0.061   4.244 -0.9776 -0.2893 -0.6434
17741TIP3   OH274637   0.444   3.680  10.127 -0.0451  0.2093 -0.5797
17741TIP3    H174638   0.504   3.731  10.071  1.5030 -0.6571  0.2351
17741TIP3    H274639   0.490   3.673  10.210 -0.8113 -1.4134 -0.2679
17742TIP3   OH274640   3.000   5.794  15.206 -0.8302 -0.1970  0.6178
17742TIP3    H174641   3.078   5.740  15.217 -0.9649 -0.2551  1.3100
17742TIP3    H274642   3.003   5.821  15.114 -0.2657 -0.6107  0.5079
17743TIP3   OH274643   4.510   1.618   4.533  0.0706 -0.1095  0.1437
17743TIP3    H174644   4.446   1.547   4.536  0.6623 -0.7089 -0.8701
17743TIP3    H274645   4.544   1.624   4.623 -1.6893  0.5171  0.8143
17744TIP3   OH274646   0.900   5.272  10.748  0.2223 -0.3602  0.3840
17744TIP3    H174647   0.947   5.238  10.672  2.5889  0.8148  1.2252
17744TIP3    H274648   0.818   5.222  10.749  0.6313 -1.2781 -2.1873
17745TIP3   OH274649   1.954   3.445   1.316  0.0567  0.3163  0.2888
17745TIP3    H174650   1.874   3.465   1.365  0.0092  1.3527 -0.1859
17745TIP3    H274651   1.974   3.526   1.269  0.7701 -0.2800 -0.4617
17746TIP3   OH274652   3.720   0.949   2.504  0.3440 -0.9147  0.2707
17746TIP3    H174653   3.782   0.927   2.434  1.9146  0.9226  0.9879
17746TIP3    H274654   3.694   0.865   2.541  0.4848 -1.8564 -1.6617
17747TIP3   OH274655   6.303   2.718   5.946 -0.5370 -0.6801  0.2951
17747TIP3    H174656   6.215   2.681   5.946 -0.9045  0.1656 -0.3174
17747TIP3    H274657   6.298   2.792   6.006 -0.0783 -0.9716  0.7079
17748TIP3   OH274658   2.958   6.346   1.864 -0.1121  0.4246  0.3071
17748TIP3    H174659   3.030   6.369   1.923  1.0326 -0.0134 -0.8669
17748TIP3    H274660   2.972   6.400   1.786 -0.3998 -0.4710 -0.3828
17749TIP3   OH274661   0.568   3.409  11.322  0.2171  0.0374  0.1544
17749TIP3    H174662   0.657   3.381  11.343 -0.3291 -0.1734  2.5086
17749TIP3    H274663   0.549   3.478  11.386 -1.2446  0.1943 -0.4141
17750TIP3   OH274664   4.146   4.364  14.585  0.3949  0.3478  0.0086
17750TIP3    H174665   4.239   4.390  14.588  0.4444  0.1432  2.1048
17750TIP3    H274666   4.146   4.277  14.545  0.7099  1.5846 -2.9360
17751TIP3   OH274667   5.749   5.164  16.880  0.8090 -0.0099  0.5661
17751TIP3    H174668   5.805   5.112  16.938  0.2694 -1.1632  0.0855
17751TIP3    H274669   5.671   5.110  16.867 -0.4622  1.5568  1.2400
17752TIP3   OH274670   1.187   3.425  15.923 -0.5163  0.1547 -0.5234
17752TIP3    H174671   1.262   3.446  15.979  0.0211  2.0745 -1.8292
17752TIP3    H274672   1.126   3.498  15.937 -1.8762 -1.0567  0.0380
17753TIP3   OH274673   3.529   2.747   1.675  0.0533 -0.0142 -0.3220
17753TIP3    H174674   3.617   2.724   1.646  0.5482  1.4067  0.0177
17753TIP3    H274675   3.490   2.663   1.701  0.6420 -0.9177 -2.1890
17754TIP3   OH274676   4.169   5.352  15.970  0.7363 -0.0780 -0.1224
17754TIP3    H174677   4.162   5.309  15.885  3.2827 -0.3459 -0.2677
17754TIP3    H274678   4.159   5.445  15.951  0.9637 -0.1603 -0.6776
17755TIP3   OH274679   2.147   3.841   3.633 -0.4582 -0.2480  0.1612
17755TIP3    H174680   2.218   3.791   3.592  0.4954  0.6033  0.7316
17755TIP3    H274681   2.126   3.909   3.569 -1.7312 -1.3212 -0.5999
17756TIP3   OH274682   1.475   3.504   3.606 -0.2139  0.2206 -0.1165
17756TIP3    H174683   1.424   3.583   3.623  1.2616  0.7925  2.1001
17756TIP3    H274684   1.564   3.536   3.594  0.1349 -0.9944 -0.8823
17757TIP3   OH274685   2.673   4.555  12.868 -0.0235 -0.1664  0.4594
17757TIP3    H174686   2.711   4.635  12.904  0.1396 -0.1860  0.3295
17757TIP3    H274687   2.720   4.540  12.786  0.9224 -1.1525  1.1438
17758TIP3   OH274688   5.136   2.690  13.290  0.3314 -0.1593  0.3411
17758TIP3    H174689   5.111   2.618  13.231  0.6189  0.9673 -1.2127
17758TIP3    H274690   5.225   2.713  13.264  0.7721 -0.1479  1.7763
17759TIP3   OH274691   3.817   4.885   3.513 -0.0566 -0.5256  0.5933
17759TIP3    H174692   3.883   4.950   3.540 -0.1192 -0.3479  0.3239
17759TIP3    H274693   3.867   4.813   3.476  0.0042 -0.5442  0.7120
17760TIP3   OH274694   1.730   0.082   4.192  0.4845  0.3193  0.8666
17760TIP3    H174695   1.656   0.118   4.242 -1.6534 -1.3875 -0.8943
17760TIP3    H274696   1.749  -0.002   4.234  0.4656  0.0901  0.4107
17761TIP3   OH274697   1.194   2.109  16.028  0.2397  0.6074 -0.3470
17761TIP3    H174698   1.223   2.194  15.994 -0.0963  0.1200 -1.9494
17761TIP3    H274699   1.181   2.055  15.950  1.2436 -1.2033  0.6578
17762TIP3   OH274700   4.501   1.680   5.859 -0.0124  0.3144 -0.2526
17762TIP3    H174701   4.556   1.602   5.869  0.7449  0.9452  0.7330
17762TIP3    H274702   4.417   1.654   5.896  0.5027  0.2243  0.9076
17763TIP3   OH274703   1.701   1.132  16.064  0.2271 -0.2051 -0.0801
17763TIP3    H174704   1.750   1.119  15.983  1.1662 -1.7734  0.6903
17763TIP3    H274705   1.628   1.070  16.059  1.6295 -2.0764  1.2438
17764TIP3   OH274706   1.527   1.768  16.679 -0.2137  0.5784 -0.3986
17764TIP3    H174707   1.606   1.716  16.660 -0.0800  1.1662 -1.5269
17764TIP3    H274708   1.556   1.859  16.674 -0.5687  0.7975  1.0536
17765TIP3   OH274709   0.532   2.675   3.071  0.1474  0.0483 -0.2363
17765TIP3    H174710   0.497   2.743   3.128  1.2722 -0.6102  1.3003
17765TIP3    H274711   0.461   2.611   3.064  0.2922 -0.3051  1.2010
17766TIP3   OH274712   0.673   5.096  15.421  0.5101 -0.2853  0.1786
17766TIP3    H174713   0.740   5.070  15.484 -0.3478 -1.7923  0.5276
17766TIP3    H274714   0.692   5.043  15.343  0.4609  0.2018 -0.1700
17767TIP3   OH274715   5.934   3.571  16.115 -0.6634  0.7302  0.1572
17767TIP3    H174716   5.839   3.567  16.125 -0.5164 -2.8982  1.1842
17767TIP3    H274717   5.968   3.575  16.204  0.1290 -2.8175  0.1476
17768TIP3   OH274718   4.676   5.401  11.474 -0.0643  0.3170 -0.1559
17768TIP3    H174719   4.658   5.352  11.394  0.9458 -1.1349  0.4539
17768TIP3    H274720   4.710   5.485  11.444  1.3074 -0.5913 -1.3022
17769TIP3   OH274721   2.208   1.595   0.766 -0.5286 -0.6466  0.2605
17769TIP3    H174722   2.148   1.561   0.832  0.9465 -0.6046  1.6739
17769TIP3    H274723   2.174   1.562   0.683 -2.9246 -0.0015  0.9162
17770TIP3   OH274724   2.328   6.501  13.949 -0.1619  0.4279 -0.2878
17770TIP3    H174725   2.324   6.569  13.882  2.6181  0.7839 -0.1987
17770TIP3    H274726   2.359   6.423  13.903 -2.6843 -0.6993 -0.2529
17771TIP3   OH274727   6.330   0.929  11.063 -0.9770  0.5707 -0.2726
17771TIP3    H174728   6.258   0.991  11.054 -0.8421  0.7201 -0.3364
17771TIP3    H274729   6.389   0.970  11.127 -0.6795  0.7105 -0.6273
17772TIP3   OH274730   1.296   6.278  15.554  0.1735 -0.0015  0.4002
17772TIP3    H174731   1.299   6.186  15.529 -0.8666 -0.1847  0.9146
17772TIP3    H274732   1.215   6.312  15.517  1.7488  1.4230 -2.0212
17773TIP3   OH274733   4.046   3.654  13.210  0.1684  0.3576  0.5575
17773TIP3    H174734   3.989   3.730  13.201 -0.7426 -0.4224 -0.5352
17773TIP3    H274735   4.047   3.613  13.124  0.4807 -0.9764  1.1512
17774TIP3   OH274736   1.972   2.974  12.291  0.0605  0.4193 -0.5916
17774TIP3    H174737   1.933   2.889  12.271 -0.6782  0.5576  0.1818
17774TIP3    H274738   2.059   2.971  12.253 -0.2862 -0.3500 -1.3440
17775TIP3   OH274739   5.279   5.221   0.059 -0.3052 -0.2493 -0.7010
17775TIP3    H174740   5.368   5.201   0.030  0.1084  0.3366  0.1217
17775TIP3    H274741   5.254   5.144   0.111  0.3628  0.2647  0.4331
17776TIP3   OH274742   0.488   1.923  12.280 -0.9920  0.0351 -0.2655
17776TIP3    H174743   0.525   1.977  12.210 -0.5498  1.8188  1.2372
17776TIP3    H274744   0.542   1.944  12.357 -2.0324 -1.1150  0.8235
17777TIP3   OH274745   2.930   6.298  10.950  0.4536 -0.2068  0.5598
17777TIP3    H174746   2.878   6.336  11.020  0.9686  1.1265  0.2616
17777TIP3    H274747   2.903   6.206  10.946 -2.1453  0.4974  0.1694
17778TIP3   OH274748   5.789   2.223   2.472 -0.0576  0.1923  0.4804
17778TIP3    H174749   5.695   2.207   2.480  0.0921 -0.7403  0.4579
17778TIP3    H274750   5.827   2.138   2.449  0.9820  0.1696  2.0571
17779TIP3   OH274751   0.450   2.401  14.689  0.2411 -0.0208 -0.3266
17779TIP3    H174752   0.519   2.467  14.692  0.9986 -0.7987 -0.4358
17779TIP3    H274753   0.469   2.349  14.611 -1.0365  0.3501 -0.9245
17780TIP3   OH274754   4.324   4.594   2.535  0.1985 -0.1407  0.1352
17780TIP3    H174755   4.407   4.574   2.580 -0.2685 -0.4546  0.8729
17780TIP3    H274756   4.348   4.600   2.443  1.4468  1.9742  0.5473
17781TIP3   OH274757   2.720   3.883   0.071 -0.2296  0.3195 -0.4670
17781TIP3    H174758   2.669   3.833   0.007  0.8992 -2.1027  0.4410
17781TIP3    H274759   2.811   3.870   0.045  0.1383  1.4588  0.1618
17782TIP3   OH274760   3.754   3.987  11.278  0.1560 -0.6323  0.0625
17782TIP3    H174761   3.682   4.006  11.218  0.3037 -1.4114 -0.3751
17782TIP3    H274762   3.757   4.062  11.337 -0.0725  0.0992 -0.8344
17783TIP3   OH274763   4.825   3.934   0.656  0.0555 -0.0745 -0.3452
17783TIP3    H174764   4.736   3.944   0.621 -0.0532 -0.4528 -0.1853
17783TIP3    H274765   4.833   3.840   0.673  0.3673  0.0071 -0.0395
17784TIP3   OH274766   1.249   3.142  14.794 -0.5951  0.3306 -0.4009
17784TIP3    H174767   1.324   3.201  14.804 -0.4201  0.2773 -1.2467
17784TIP3    H274768   1.285   3.066  14.747 -0.6872 -0.7343  1.1822
17785TIP3   OH274769   5.373   2.357  14.995 -0.5009  0.2350 -0.7491
17785TIP3    H174770   5.393   2.275  14.950  2.5232 -0.0041  0.7512
17785TIP3    H274771   5.456   2.404  14.998 -2.1231  3.4999 -1.6285
17786TIP3   OH274772   2.055   1.467   5.156  0.1339  0.2877 -0.2148
17786TIP3    H174773   2.088   1.546   5.197 -0.3268 -0.0295  0.7993
17786TIP3    H274774   2.033   1.493   5.067  0.1573  1.2529  0.0564
17787TIP3   OH274775   4.099   0.160   0.989 -0.1725 -1.0207 -0.1427
17787TIP3    H174776   4.032   0.100   1.022  1.2132 -3.1379 -0.9474
17787TIP3    H274777   4.137   0.114   0.913  0.0644  1.4931 -1.6630
17788TIP3   OH274778   1.808   3.057   1.828  0.0997 -0.2393  0.0635
17788TIP3    H174779   1.901   3.054   1.850 -0.0637 -2.0204  0.6190
17788TIP3    H274780   1.769   3.111   1.897  0.3294 -1.8144  1.4900
17789TIP3   OH274781   6.162   3.987  16.203  0.0182  0.3374  0.2879
17789TIP3    H174782   6.190   4.076  16.224  0.3002 -0.0821  1.8509
17789TIP3    H274783   6.234   3.932  16.236  0.5124 -0.4347 -1.8774
17790TIP3   OH274784   1.549   2.699   4.184 -0.3440 -0.5067 -0.3341
17790TIP3    H174785   1.504   2.699   4.268  1.4301 -1.3506  0.6815
17790TIP3    H274786   1.582   2.609   4.175  1.5424  0.1729 -0.7330
17791TIP3   OH274787   6.139   4.768   0.409  0.0460 -0.2522  0.0071
17791TIP3    H174788   6.140   4.817   0.326 -0.3903 -0.8966 -0.3912
17791TIP3    H274789   6.228   4.778   0.443  0.4187 -0.4945 -0.8533
17792TIP3   OH274790   3.808   4.952   1.355  0.5611 -0.3636 -0.9205
17792TIP3    H174791   3.793   5.040   1.391  0.2781 -0.5219 -0.6477
17792TIP3    H274792   3.740   4.898   1.394  0.4030 -0.5949 -1.5139
17793TIP3   OH274793   3.689   1.176  13.690  0.5415 -0.2891 -0.2656
17793TIP3    H174794   3.688   1.271  13.679 -0.9936 -0.2218  0.2602
17793TIP3    H274795   3.756   1.146  13.628 -0.0227  1.0068 -1.5598
17794TIP3   OH274796   3.804   6.698   0.555  0.0750  0.4335  0.0123
17794TIP3    H174797   3.881   6.676   0.608 -1.1724  0.1737  1.8194
17794TIP3    H274798   3.733   6.705   0.618 -1.0103  2.7845 -1.3443
17795TIP3   OH274799   6.337   3.374  14.467 -0.7261 -0.0548  0.7341
17795TIP3    H174800   6.349   3.341  14.556 -0.0679  0.3539  0.8062
17795TIP3    H274801   6.424   3.403  14.441 -0.5665 -1.6070 -0.6381
17796TIP3   OH274802   2.095   0.828  15.162 -0.1024 -0.0553 -0.0059
17796TIP3    H174803   2.092   0.919  15.192  1.0416 -0.0758  0.2360
17796TIP3    H274804   2.167   0.789  15.211 -1.3943 -1.4722  0.8733
17797TIP3   OH274805   5.421   2.132   4.622 -0.3299  0.0645 -0.0165
17797TIP3    H174806   5.416   2.084   4.705 -0.0867 -0.8504 -0.5238
17797TIP3    H274807   5.331   2.136   4.591 -0.2636 -0.7370 -0.3384
17798TIP3   OH274808   6.624   1.053   4.958 -0.1610 -0.1486  0.0537
17798TIP3    H174809   6.575   1.130   4.989 -1.7347 -1.2103  0.3035
17798TIP3    H274810   6.679   1.029   5.033  0.5247  0.8513 -0.1078
17799TIP3   OH274811   0.920   2.945   4.435  0.8209 -0.1378  0.1076
17799TIP3    H174812   0.854   2.897   4.484  0.6920 -0.5694 -0.4772
17799TIP3    H274813   0.965   2.999   4.500  0.5788 -0.6176  0.6703
17800TIP3   OH274814   4.930   0.388  12.045  0.0537  0.6899  0.6158
17800TIP3    H174815   4.928   0.361  11.953  1.1634  0.7844  0.5410
17800TIP3    H274816   4.870   0.329  12.090  0.3634 -0.1008  0.0063
17801TIP3   OH274817   0.324   5.579  14.647 -0.0925 -0.0013 -0.1684
17801TIP3    H174818   0.256   5.646  14.649 -0.2690 -0.1445 -1.0267
17801TIP3    H274819   0.291   5.513  14.585  0.9122  0.0328 -0.7624
17802TIP3   OH274820   5.811   1.020   5.524 -0.1432 -0.8218  0.3901
17802TIP3    H174821   5.768   1.082   5.584 -1.6000 -0.0998 -1.3080
17802TIP3    H274822   5.892   1.064   5.499 -1.1141  0.4222 -0.7216
17803TIP3   OH274823   2.029   4.613   4.348 -0.0873  0.3121 -0.0690
17803TIP3    H174824   2.026   4.707   4.365 -1.0531  0.5792 -1.5030
17803TIP3    H274825   2.114   4.585   4.382  0.5674  1.8623 -0.3524
17804TIP3   OH274826   5.801   1.704   0.880 -0.2606  0.2851 -0.2472
17804TIP3    H174827   5.764   1.617   0.862  2.2976 -1.2201  1.1362
17804TIP3    H274828   5.736   1.748   0.934 -1.8130 -0.5669 -1.3447
17805TIP3   OH274829   1.757   0.249   3.333 -0.4397 -0.2609 -0.0583
17805TIP3    H174830   1.780   0.305   3.407  0.7579 -0.3134 -0.3764
17805TIP3    H274831   1.665   0.270   3.315 -0.5818  0.1559  1.0754
17806TIP3   OH274832   6.611   3.947   2.832 -0.0767 -0.2214  0.7229
17806TIP3    H174833   6.647   3.875   2.781 -2.2666 -0.8423 -0.0824
17806TIP3    H274834   6.596   3.909   2.919 -0.9791 -0.7129  0.3751
17807TIP3   OH274835   0.466   4.298  14.011 -0.0953  0.1183 -0.5180
17807TIP3    H174836   0.452   4.389  14.036  1.4184 -0.0889  1.3094
17807TIP3    H274837   0.440   4.294  13.919 -2.8968  1.7213  0.0669
17808TIP3   OH274838   0.902   5.465  15.854 -0.3654 -0.4822  0.2142
17808TIP3    H174839   0.828   5.497  15.801 -0.4493 -1.2534 -0.1475
17808TIP3    H274840   0.861   5.433  15.934 -0.4633 -1.2079 -0.1218
17809TIP3   OH274841   3.514   4.713  11.558  0.0055  0.0183  0.1993
17809TIP3    H174842   3.451   4.701  11.629  0.1415 -0.6937  0.2016
17809TIP3    H274843   3.589   4.757  11.599 -0.7151  1.4156  0.0712
17810TIP3   OH274844   3.337   0.963   1.121 -0.3073 -0.0468  0.3894
17810TIP3    H174845   3.313   1.034   1.061 -0.1052  0.7920  1.2762
17810TIP3    H274846   3.253   0.930   1.154 -0.3674  1.2306  1.6022
17811TIP3   OH274847   1.790   0.265   1.808 -0.1501  0.2498  0.1748
17811TIP3    H174848   1.860   0.318   1.770 -0.5270  0.5047 -0.1760
17811TIP3    H274849   1.820   0.175   1.798  1.7323  0.3964  3.1380
17812TIP3   OH274850   1.262   2.414   4.060 -0.0303 -0.9427 -0.2263
17812TIP3    H174851   1.298   2.331   4.028  2.8540  0.7218 -1.7620
17812TIP3    H274852   1.225   2.455   3.982 -0.5758 -0.3840  0.3176
17813TIP3   OH274853   4.568   2.965   5.418 -0.4556  0.4101  0.0021
17813TIP3    H174854   4.560   2.999   5.328 -2.0237  0.1894  0.0390
17813TIP3    H274855   4.580   2.871   5.407  2.6072  0.7027 -0.0478
17814TIP3   OH274856   0.897   1.832   1.152  0.0937 -0.3266  0.1668
17814TIP3    H174857   0.833   1.763   1.171 -0.1192 -0.2444 -0.2359
17814TIP3    H274858   0.893   1.891   1.227  0.4075 -0.8475  0.5968
17815TIP3   OH274859   2.790   4.108   0.950  0.2479 -0.1221  0.4112
17815TIP3    H174860   2.788   4.188   1.003  0.4726  0.3161 -0.2342
17815TIP3    H274861   2.724   4.122   0.883 -0.0622 -0.6957  0.5883
17816TIP3   OH274862   2.267   2.871   0.860  0.8112  0.8178 -0.2571
17816TIP3    H174863   2.201   2.916   0.912  1.4713  0.2803  1.0914
17816TIP3    H274864   2.296   2.798   0.915 -0.1192 -1.2241 -2.2775
17817TIP3   OH274865   4.040   0.951   4.358 -0.0870  0.1127  0.1586
17817TIP3    H174866   4.007   0.918   4.275  1.0561  0.0698 -0.3034
17817TIP3    H274867   4.035   1.046   4.351  1.4690  0.1752 -0.6287
17818TIP3   OH274868   3.252   6.753  13.457  0.6773 -0.1320  0.1617
17818TIP3    H174869   3.346   6.765  13.444  0.5615 -0.6026 -1.3634
17818TIP3    H274870   3.243   6.664  13.492  0.7065 -1.0104 -1.9047
17819TIP3   OH274871   2.911   5.321   5.203  0.4315 -0.1755 -0.5162
17819TIP3    H174872   2.868   5.295   5.122  0.4661 -0.8949 -0.3132
17819TIP3    H274873   2.952   5.405   5.183 -0.4873  0.1837 -0.9063
17820TIP3   OH274874   5.712   3.538  13.162  0.2491 -0.4453  0.2053
17820TIP3    H174875   5.738   3.575  13.078  0.2343 -1.3626 -0.2088
17820TIP3    H274876   5.670   3.611  13.208 -0.9940 -0.2882 -1.1203
17821TIP3   OH274877   5.982   1.231  12.526 -0.0586  0.1703 -0.2093
17821TIP3    H174878   5.904   1.240  12.580 -0.9514 -0.5726 -1.3179
17821TIP3    H274879   6.016   1.144  12.546 -0.4985 -0.1814 -0.9532
17822TIP3   OH274880   0.301   3.079   0.819 -0.3416 -0.4807  0.6046
17822TIP3    H174881   0.338   3.039   0.898 -1.5632 -2.5753  0.1886
17822TIP3    H274882   0.207   3.084   0.837 -0.8129 -2.1619 -1.1629
17823TIP3   OH274883   5.397   6.415  16.475  0.0626  0.3530 -0.5154
17823TIP3    H174884   5.384   6.322  16.495 -1.2074  0.6501  0.1220
17823TIP3    H274885   5.337   6.433  16.403  0.0804  0.7640 -0.4286
17824TIP3   OH274886   0.165   5.480   5.102 -0.4821  0.1963  0.4488
17824TIP3    H174887   0.085   5.427   5.093  0.8513 -1.9451  0.5477
17824TIP3    H274888   0.144   5.562   5.057 -1.6763 -1.5031 -2.3818
17825TIP3   OH274889   4.296   5.894   3.336  0.5578 -0.3333  0.0916
17825TIP3    H174890   4.369   5.955   3.348  1.7524 -1.5711 -0.5812
17825TIP3    H274891   4.225   5.948   3.302  1.3792  0.7933  0.1079
17826TIP3   OH274892   1.594   3.076  15.745  0.3813  0.1857  0.1627
17826TIP3    H174893   1.532   3.036  15.685 -0.5902 -0.6532  1.6524
17826TIP3    H274894   1.543   3.095  15.824  1.8008  0.3450  1.0918
17827TIP3   OH274895   5.213   0.753  16.454  0.4864  0.1001  0.4284
17827TIP3    H174896   5.280   0.713  16.398  1.7008  1.3008  0.9597
17827TIP3    H274897   5.156   0.800  16.393  0.5174 -0.3763  0.0246
17828TIP3   OH274898   4.464   5.889   1.056 -0.6626 -0.1629 -0.2365
17828TIP3    H174899   4.394   5.950   1.078 -1.2050 -1.0897  0.6897
17828TIP3    H274900   4.512   5.877   1.138 -0.1632 -0.4924 -0.5708
17829TIP3   OH274901   4.033   3.020  16.981 -0.6809  0.8090 -0.1329
17829TIP3    H174902   4.074   3.088  16.928 -2.8789  1.1771 -1.4889
17829TIP3    H274903   3.971   2.978  16.922 -0.3139 -1.5585  1.0375
17830TIP3   OH274904   6.520   3.826   4.570  0.1306  0.1217  0.4443
17830TIP3    H174905   6.452   3.778   4.522  0.7670  0.2006 -0.5695
17830TIP3    H274906   6.547   3.895   4.510  2.6312 -1.2195 -0.0794
17831TIP3   OH274907   4.436   3.715  12.325 -0.0462 -0.5869  0.1053
17831TIP3    H174908   4.397   3.781  12.383  1.5322  2.0736 -1.6668
17831TIP3    H274909   4.512   3.683  12.374  0.0326  0.0296  0.4009
17832TIP3   OH274910   5.593   6.684  11.649  0.2529 -0.3737  0.3165
17832TIP3    H174911   5.500   6.665  11.662  0.4016 -0.9153  0.6210
17832TIP3    H274912   5.598   6.723  11.562 -0.4236  0.8759  0.8086
17833TIP3   OH274913   5.975   1.332   4.078 -0.0978 -0.4931 -0.0213
17833TIP3    H174914   6.033   1.375   4.141 -1.8008  0.8635  0.7188
17833TIP3    H274915   5.887   1.342   4.116 -1.1457 -0.0410 -2.3770
17834TIP3   OH274916   2.185   6.182  13.580 -0.0468 -0.1439 -0.7902
17834TIP3    H174917   2.271   6.184  13.622  0.2894  1.4169 -1.4992
17834TIP3    H274918   2.178   6.093  13.547  0.4094 -0.9150  1.0146
17835TIP3   OH274919   4.547   6.035   3.840 -0.2010  0.1784 -0.2318
17835TIP3    H174920   4.493   6.000   3.770  0.9134 -0.3120 -0.8777
17835TIP3    H274921   4.636   6.033   3.805  0.5907 -1.4185  1.6881
17836TIP3   OH274922   2.813   3.064  14.678 -0.5390  0.7689  0.1189
17836TIP3    H174923   2.884   3.127  14.694  0.3806 -0.1538 -0.2683
17836TIP3    H274924   2.748   3.085  14.745  1.3935 -0.2660  2.4899
17837TIP3   OH274925   2.840   4.664   5.345  0.4924 -0.5488 -0.5795
17837TIP3    H174926   2.814   4.659   5.437  0.4074 -1.7379 -0.6554
17837TIP3    H274927   2.911   4.600   5.337  0.5357 -0.4135 -1.3318
17838TIP3   OH274928   4.201   5.733  12.991 -0.0677 -0.6420 -0.0023
17838TIP3    H174929   4.180   5.650  12.947  0.0802 -1.1174  0.7868
17838TIP3    H274930   4.192   5.800  12.923 -0.6634 -1.2482 -0.5342
17839TIP3   OH274931   5.560   1.008   5.953 -0.2727  0.2788 -0.4419
17839TIP3    H174932   5.537   0.976   6.040  0.5383 -2.0828 -1.0372
17839TIP3    H274933   5.655   1.000   5.949 -0.3324  0.0571 -1.6636
17840TIP3   OH274934   6.150   3.587  14.635 -0.0443 -0.5217  0.3546
17840TIP3    H174935   6.121   3.496  14.638 -1.7843  0.0199  1.1568
17840TIP3    H274936   6.102   3.625  14.561  0.8162 -0.2847 -0.0945
17841TIP3   OH274937   6.660   1.167  16.981 -0.4763 -0.3397  0.4063
17841TIP3    H174938   6.647   1.073  16.974  0.1235 -0.3559 -0.7149
17841TIP3    H274939   6.633   1.202  16.896  2.2417  0.1237 -0.3580
17842TIP3   OH274940   6.267   5.804  15.790 -0.7969  0.3110  0.3672
17842TIP3    H174941   6.289   5.879  15.735 -2.8683  1.1859  0.6324
17842TIP3    H274942   6.236   5.843  15.872 -0.5341 -0.8942  1.0609
17843TIP3   OH274943   2.572   2.205  15.777  0.6065 -0.0290  0.8627
17843TIP3    H174944   2.516   2.269  15.820  0.7892  1.7108 -1.2745
17843TIP3    H274945   2.512   2.138  15.745 -0.2937  1.5368 -0.9381
17844TIP3   OH274946   0.643   1.738  14.609 -0.5289 -0.5389 -0.2205
17844TIP3    H174947   0.715   1.724  14.548  0.2090  1.0873  0.2013
17844TIP3    H274948   0.657   1.674  14.678 -0.2148 -1.0631 -0.7579
17845TIP3   OH274949   0.183   4.648   1.245  0.1638 -0.0803  0.1592
17845TIP3    H174950   0.093   4.622   1.263 -0.0727  1.9286  2.3002
17845TIP3    H274951   0.232   4.565   1.248 -1.2175 -0.9141  1.8322
17846TIP3   OH274952   5.043   3.525  14.338 -0.2380 -0.6890  0.2825
17846TIP3    H174953   5.125   3.547  14.296 -0.6449  0.4494  0.0509
17846TIP3    H274954   5.038   3.584  14.414 -1.3537  0.0745 -0.3500
17847TIP3   OH274955   5.820   3.381   2.647 -0.0482  0.2814  0.3859
17847TIP3    H174956   5.873   3.346   2.576 -0.6323  1.4399 -0.6492
17847TIP3    H274957   5.868   3.459   2.675 -0.6544  0.7384  0.1606
17848TIP3   OH274958   6.365   6.748  12.847  0.9492 -0.7454  0.2751
17848TIP3    H174959   6.308   6.804  12.793  1.9671 -0.2753 -0.3347
17848TIP3    H274960   6.318   6.739  12.930  0.8875  1.2821  0.5150
17849TIP3   OH274961   4.159   4.898   0.688 -0.6087  0.3673 -0.2266
17849TIP3    H174962   4.132   4.981   0.649  1.3485  0.1227 -2.2631
17849TIP3    H274963   4.125   4.832   0.628  1.5487 -0.0625 -1.0650
17850TIP3   OH274964   1.964   0.533  11.163 -0.5426  0.0481 -0.6922
17850TIP3    H174965   2.014   0.536  11.245  4.1952 -1.3120 -3.1950
17850TIP3    H274966   1.904   0.459  11.174  2.2167 -2.1600  0.5147
17851TIP3   OH274967   6.450   5.560   0.589  0.0928 -0.0967  0.5515
17851TIP3    H174968   6.430   5.500   0.661  1.1962  0.9169  1.7633
17851TIP3    H274969   6.390   5.634   0.602 -0.7650 -0.5746 -0.5085
17852TIP3   OH274970   2.565   2.861  15.082  0.1290 -0.5712  0.5044
17852TIP3    H174971   2.567   2.884  15.175 -0.6351  0.6395  0.2530
17852TIP3    H274972   2.474   2.874  15.057  0.2278 -1.4020 -0.3007
17853TIP3   OH274973   0.823   5.715   5.094  0.4177  0.2807  0.1687
17853TIP3    H174974   0.910   5.748   5.117  0.5869  0.6889 -0.9988
17853TIP3    H274975   0.771   5.727   5.174  1.0366  1.4583  0.4198
17854TIP3   OH274976   1.008   0.928   6.091  0.3718 -0.0323  0.1622
17854TIP3    H174977   0.954   0.864   6.138  0.0689 -0.7521 -1.1262
17854TIP3    H274978   1.093   0.886   6.081  0.2712 -0.1195 -0.3936
17855TIP3   OH274979   5.662   1.474  13.493  0.2483 -0.3813  0.7004
17855TIP3    H174980   5.681   1.567  13.504  0.6232 -0.3582 -0.0805
17855TIP3    H274981   5.574   1.463  13.529  0.4229  0.1605  1.3146
17856TIP3   OH274982   5.734   0.578   2.215 -0.8062 -0.1093 -0.4961
17856TIP3    H174983   5.806   0.582   2.153 -0.4473 -2.9523 -0.3973
17856TIP3    H274984   5.666   0.528   2.169 -1.2204 -0.7181  0.7173
17857TIP3   OH274985   6.154   0.971  12.325  0.1096  0.3192  0.6540
17857TIP3    H174986   6.209   0.895  12.305  2.2773  1.7629  0.8166
17857TIP3    H274987   6.162   0.983  12.419  1.0316  1.5800  0.4510
17858TIP3   OH274988   2.907   2.563   5.578 -0.3658 -0.2649 -0.3239
17858TIP3    H174989   2.943   2.614   5.651 -1.1173  0.3076 -0.3345
17858TIP3    H274990   2.910   2.472   5.608 -1.5206  0.0436  0.8029
17859TIP3   OH274991   0.743   6.712  14.849  0.0311  0.4107  0.3199
17859TIP3    H174992   0.694   6.692  14.769 -0.5760  1.5215  0.3902
17859TIP3    H274993   0.830   6.674  14.834 -0.3991 -0.3149 -0.4168
17860TIP3   OH274994   0.405   3.989  13.500  0.2821 -0.0125  0.6391
17860TIP3    H174995   0.375   4.051  13.434 -0.5496 -1.4405 -0.3902
17860TIP3    H274996   0.373   3.904  13.469  0.5839 -0.8386  2.4665
17861TIP3   OH274997   4.049   6.526  11.882 -0.2311 -0.2695 -0.1657
17861TIP3    H174998   4.074   6.502  11.971 -2.8773  0.7621  0.9560
17861TIP3    H274999   3.954   6.524  11.882 -0.3407 -1.4518 -3.3858
17862TIP3   OH275000   2.151   4.437  12.314 -0.3584  0.3177 -0.5764
17862TIP3    H175001   2.213   4.433  12.387 -0.6265  0.8136 -0.3254
17862TIP3    H275002   2.189   4.501  12.254  0.8735 -1.4604 -1.8184
17863TIP3   OH275003   3.348   5.602  14.441 -0.1167 -0.6850 -0.3720
17863TIP3    H175004   3.350   5.556  14.357  2.1187 -2.0739  0.3415
17863TIP3    H275005   3.376   5.536  14.504 -0.6026  0.6488  1.2865
17864TIP3   OH275006   6.349   2.047   5.832 -0.6849  0.0334  0.2120
17864TIP3    H175007   6.315   2.023   5.918 -1.0216 -1.4191 -0.2918
17864TIP3    H275008   6.404   2.123   5.848  0.9185 -1.4028  2.0420
17865TIP3   OH275009   0.216   3.284  16.711 -0.1720 -0.2334 -0.2959
17865TIP3    H175010   0.226   3.325  16.797 -1.6982  1.1412 -0.7280
17865TIP3    H275011   0.262   3.201  16.719  0.8492  0.4508  1.4263
17866TIP3   OH275012   2.965   2.037  14.473  0.0624  0.0719  0.0015
17866TIP3    H175013   2.918   2.035  14.390 -0.0020 -0.4687  0.0508
17866TIP3    H275014   3.003   2.125  14.477 -2.5187  1.2219  0.8520
17867TIP3   OH275015   4.695   5.801   2.589 -0.0358  0.1193  0.3298
17867TIP3    H175016   4.745   5.824   2.667 -0.6866 -1.7901  1.3700
17867TIP3    H275017   4.685   5.706   2.594 -0.6105  0.0254 -1.7805
17868TIP3   OH275018   6.640   3.206  14.499  0.1419 -0.5908  0.0863
17868TIP3    H175019   6.732   3.216  14.525 -0.1892  0.5787  0.8662
17868TIP3    H275020   6.633   3.256  14.418  0.5254 -1.9607 -0.8366
17869TIP3   OH275021   4.403   0.558   3.175  0.0394 -0.3872 -0.3405
17869TIP3    H175022   4.477   0.617   3.185  0.2520 -0.6898 -0.0957
17869TIP3    H275023   4.397   0.542   3.081 -0.5598  0.7007 -0.4962
17870TIP3   OH275024   5.527   5.577   5.486 -0.6535 -0.1528  0.1536
17870TIP3    H175025   5.478   5.605   5.409  0.1490 -0.3677 -0.4501
17870TIP3    H275026   5.473   5.509   5.526  0.0132 -1.8034 -1.6132
17871TIP3   OH275027   4.938   4.444   3.327  0.5401  0.2511  0.2774
17871TIP3    H175028   4.887   4.408   3.400 -0.3464  0.2180 -0.3459
17871TIP3    H275029   4.874   4.489   3.273  1.3231  1.0241 -0.0367
17872TIP3   OH275030   0.697   2.062  11.157  0.3850  0.0238  0.2627
17872TIP3    H175031   0.706   2.093  11.247 -0.1319 -2.0581  1.1017
17872TIP3    H275032   0.782   2.080  11.116  1.5431 -1.2388  1.9597
17873TIP3   OH275033   3.797   4.704   0.577  0.0862 -0.6049  0.2518
17873TIP3    H175034   3.876   4.731   0.530 -0.1653 -0.3671 -0.0478
17873TIP3    H275035   3.727   4.712   0.511 -0.5207  1.1280  1.0417
17874TIP3   OH275036   1.751   6.195  12.659  0.3387  0.2837 -0.1571
17874TIP3    H175037   1.758   6.186  12.754 -0.0827 -2.0389 -0.2870
17874TIP3    H275038   1.842   6.200  12.628  0.5192 -0.1129  0.2957
17875TIP3   OH275039   3.660   4.018  10.809 -0.0915 -0.0395 -0.0883
17875TIP3    H175040   3.607   4.063  10.744  0.1498 -0.9616 -0.9387
17875TIP3    H275041   3.696   3.943  10.763  1.5912  0.3104  0.5847
17876TIP3   OH275042   3.371   3.492   6.719 -0.3308  0.3635 -0.5868
17876TIP3    H175043   3.416   3.431   6.778 -1.0717 -0.9797 -1.3416
17876TIP3    H275044   3.370   3.575   6.766 -0.1624 -0.4509  0.9332
17877TIP3   OH275045   6.150   6.237   5.674 -0.1117 -0.3016  1.0512
17877TIP3    H175046   6.230   6.185   5.672 -1.2488 -2.2564  2.4893
17877TIP3    H275047   6.179   6.324   5.700  1.9068  0.0229 -1.8193
17878TIP3   OH275048   5.212   2.602  12.428 -0.0489  0.2341 -0.2442
17878TIP3    H175049   5.136   2.662  12.427 -0.6473 -0.5014  0.2379
17878TIP3    H275050   5.264   2.630  12.353 -0.6921  0.8901 -0.4681
17879TIP3   OH275051   6.528   3.402   3.177 -0.3186  0.2982  0.5289
17879TIP3    H175052   6.577   3.468   3.226 -0.9169  1.7374 -0.7441
17879TIP3    H275053   6.459   3.451   3.133 -1.4983 -1.3538  0.4335
17880TIP3   OH275054   2.205   5.336   4.783 -0.4135 -0.0719  0.1791
17880TIP3    H175055   2.195   5.419   4.737 -1.7716 -0.6202 -0.5847
17880TIP3    H275056   2.210   5.360   4.875  1.4100  0.9776 -0.1459
17881TIP3   OH275057   4.529   2.114  13.290 -0.1719 -0.0608 -0.5076
17881TIP3    H175058   4.458   2.106  13.227 -1.3235  1.9173  0.4655
17881TIP3    H275059   4.568   2.026  13.293 -2.7009 -1.2891 -0.8959
17882TIP3   OH275060   0.938   4.604  13.251  0.0922 -0.1390  0.3673
17882TIP3    H175061   0.998   4.631  13.182 -1.8293  1.5000 -0.7614
17882TIP3    H275062   0.983   4.625  13.332  1.2188  0.6565 -0.4368
17883TIP3   OH275063   6.552   1.849   3.054  0.0875 -0.6556 -0.1537
17883TIP3    H175064   6.621   1.789   3.083  1.1247  0.2393 -0.6750
17883TIP3    H275065   6.586   1.937   3.073 -1.2067 -0.1989  0.1910
17884TIP3   OH275066   4.692   2.829   3.480  0.0911 -0.2250  0.4512
17884TIP3    H175067   4.599   2.805   3.480 -0.0747  0.2584 -1.2488
17884TIP3    H275068   4.738   2.746   3.470 -0.0384 -0.6249  2.5832
17885TIP3   OH275069   2.939   0.077   6.230  0.3915 -0.1682 -0.1029
17885TIP3    H175070   2.931   0.151   6.170  0.7894 -0.0190  0.0221
17885TIP3    H275071   2.970   0.005   6.175  0.1101 -0.2113 -0.2041
17886TIP3   OH275072   5.894   4.837   2.584 -0.0017 -0.4537  0.7125
17886TIP3    H175073   5.958   4.897   2.545 -0.0844 -1.6436 -1.3779
17886TIP3    H275074   5.920   4.750   2.554 -2.5063 -0.9999 -0.1471
17887TIP3   OH275075   1.375   1.917  13.218 -0.0812  0.1095 -0.4193
17887TIP3    H175076   1.319   1.892  13.144  0.0709 -0.7429 -0.2588
17887TIP3    H275077   1.352   2.008  13.236 -0.0224  0.3724 -1.6004
17888TIP3   OH275078   1.765   0.940  11.945 -0.2992 -0.3912  0.1679
17888TIP3    H175079   1.752   1.003  11.874 -0.5171 -0.9309 -0.2781
17888TIP3    H275080   1.696   0.875  11.932  0.5147 -1.2495  0.0358
17889TIP3   OH275081   6.765   5.169  16.817  0.0131 -0.4737 -0.7277
17889TIP3    H175082   6.788   5.173  16.910  0.0750  1.3245 -0.8024
17889TIP3    H275083   6.801   5.249  16.779 -0.7339 -0.7797 -2.1484
17890TIP3   OH275084   6.078   2.760  13.535  0.1604 -0.3865  0.0209
17890TIP3    H175085   5.999   2.814  13.538 -0.7316 -1.4419 -1.8459
17890TIP3    H275086   6.049   2.673  13.563  1.3827 -0.1691  2.1885
17891TIP3   OH275087   3.493   0.869   0.754  0.4616  0.6769 -0.3427
17891TIP3    H175088   3.553   0.939   0.728 -1.4607  2.8074  0.5399
17891TIP3    H275089   3.512   0.854   0.847  0.5503  0.3768 -0.4088
17892TIP3   OH275090   0.755   4.702   2.306 -0.3235  0.5377  0.1918
17892TIP3    H175091   0.761   4.762   2.232 -0.4863 -1.0223 -1.1585
17892TIP3    H275092   0.723   4.755   2.378  0.6963  2.3134 -0.6115
17893TIP3   OH275093   3.053   0.701  14.676  0.3134  0.2590  0.4604
17893TIP3    H175094   3.097   0.756  14.741  1.1522 -0.6089  0.6562
17893TIP3    H275095   3.007   0.634  14.727  2.1237 -1.2882  0.1963
17894TIP3   OH275096   2.656   2.317   5.191 -0.2238 -0.0052  0.2966
17894TIP3    H175097   2.690   2.318   5.102 -1.3664 -2.1544 -0.2273
17894TIP3    H275098   2.725   2.278   5.244 -0.2728 -0.5282 -0.0182
17895TIP3   OH275099   5.312   2.762  11.004  0.3732  0.1932 -0.3991
17895TIP3    H175100   5.280   2.680  11.041 -0.5473  0.5740 -0.3354
17895TIP3    H275101   5.244   2.826  11.024  0.7255  0.8088 -1.1120
17896TIP3   OH275102   5.907   6.299  10.773  0.2198  0.3057 -0.0113
17896TIP3    H175103   5.939   6.336  10.691 -0.6048  1.8815  0.3404
17896TIP3    H275104   5.812   6.299  10.765  0.0807  1.4326  1.3075
17897TIP3   OH275105   5.160   2.579   0.964  0.2899 -0.3403  0.4950
17897TIP3    H175106   5.147   2.576   0.869 -1.4171  0.6380  0.6469
17897TIP3    H275107   5.249   2.546   0.978  0.3547 -1.0712 -1.3811
17898TIP3   OH275108   6.246   2.301   3.092  0.1450  0.0167 -0.0079
17898TIP3    H175109   6.256   2.384   3.139 -0.0383 -0.8357  1.5908
17898TIP3    H275110   6.321   2.298   3.033 -0.1126  1.5385 -0.4651
17899TIP3   OH275111   2.765   3.856   5.082 -0.6395  0.0236  0.0601
17899TIP3    H175112   2.856   3.842   5.058 -0.6618  0.3546 -0.2339
17899TIP3    H275113   2.714   3.811   5.014 -0.6969  0.1915 -0.0091
17900TIP3   OH275114   0.491   0.284   4.732 -0.0726  0.1865  0.0086
17900TIP3    H175115   0.492   0.353   4.666  0.5210 -0.3557 -0.5556
17900TIP3    H275116   0.511   0.203   4.684  1.3765 -0.0846  0.9917
17901TIP3   OH275117   4.807   3.111  11.746 -0.1236  0.2398  0.0552
17901TIP3    H175118   4.739   3.074  11.801 -2.0375  2.4746 -0.6362
17901TIP3    H275119   4.796   3.068  11.661 -0.1753  0.0436  0.1634
17902TIP3   OH275120   5.138   1.221   0.017 -0.2936 -0.0686  0.0307
17902TIP3    H175121   5.120   1.289   0.082 -1.2171 -0.0039 -0.2829
17902TIP3    H275122   5.088   1.145   0.047 -1.7017  0.3260 -1.2232
17903TIP3   OH275123   1.186   3.627   0.137  0.2548  0.4511  0.4767
17903TIP3    H175124   1.276   3.643   0.109  0.5987 -0.4437  1.0254
17903TIP3    H275125   1.148   3.715   0.146  1.1045  0.8413  0.3573
17904TIP3   OH275126   4.952   5.652  14.866  0.6948 -0.1535  0.4507
17904TIP3    H175127   5.001   5.653  14.784  0.5350 -0.9482  0.3332
17904TIP3    H275128   4.890   5.579  14.856  0.1118  0.2603  0.9528
17905TIP3   OH275129   0.931   5.859   3.660 -0.0888  0.4537  0.0032
17905TIP3    H175130   0.842   5.894   3.658 -0.3762 -0.0919  1.7537
17905TIP3    H275131   0.922   5.775   3.706  1.1986 -0.0314 -0.6020
17906TIP3   OH275132   0.721   4.070   4.621 -0.5331 -0.2346 -0.1301
17906TIP3    H175133   0.797   4.128   4.632  0.7697 -1.9263  0.1709
17906TIP3    H275134   0.758   3.989   4.586 -2.1012 -1.3719  0.7339
17907TIP3   OH275135   3.392   1.917  15.213 -0.1843  0.4483  0.5593
17907TIP3    H175136   3.444   1.923  15.293  0.5208  1.1545  0.0686
17907TIP3    H275137   3.302   1.928  15.243 -0.1288 -1.2749  1.4843
17908TIP3   OH275138   0.088   2.859   3.026 -0.1645  0.6717  0.5935
17908TIP3    H175139   0.096   2.901   2.940  0.0847  0.2893  0.4274
17908TIP3    H275140   0.111   2.768   3.010 -0.5591  0.5015  0.9816
17909TIP3   OH275141   4.541   5.797  13.032  0.4515 -0.1718 -0.1209
17909TIP3    H175142   4.481   5.869  13.011  1.3966  0.2403 -1.5489
17909TIP3    H275143   4.550   5.801  13.127 -2.2866 -0.6980  0.2458
17910TIP3   OH275144   1.380   4.461   4.252 -0.2847 -0.2957 -0.2384
17910TIP3    H175145   1.341   4.484   4.337  0.5846 -0.2293  0.1548
17910TIP3    H275146   1.449   4.398   4.274 -0.1665 -0.4094 -0.9174
17911TIP3   OH275147   4.775   2.330   1.173  0.3473  0.5279 -0.1457
17911TIP3    H175148   4.858   2.377   1.167 -0.3275  1.8864  0.7596
17911TIP3    H275149   4.742   2.351   1.261 -0.0801 -1.5024  0.2266
17912TIP3   OH275150   5.459   3.888   5.202  0.0657 -1.1406 -0.1389
17912TIP3    H175151   5.469   3.896   5.107 -1.4736 -1.5447 -0.3536
17912TIP3    H275152   5.441   3.795   5.216  1.6221 -1.3491  0.7125
17913TIP3   OH275153   5.101   2.923  12.902 -0.4160 -0.2207  0.2336
17913TIP3    H175154   5.037   2.967  12.847 -1.3412 -0.3776  1.1619
17913TIP3    H275155   5.074   2.942  12.991 -0.1869 -1.7330  0.6575
17914TIP3   OH275156   3.042   2.661  10.671  0.3408 -0.0341 -0.1648
17914TIP3    H175157   3.119   2.709  10.641  1.4729  0.1363  2.7699
17914TIP3    H275158   3.032   2.590  10.608  2.2715  0.5257 -1.1704
17915TIP3   OH275159   2.344   0.098   0.145  0.1930  0.5997  0.1539
17915TIP3    H175160   2.376   0.014   0.113  3.1418  0.7744  2.2579
17915TIP3    H275161   2.264   0.077   0.194  1.7757 -1.3479  2.0957
17916TIP3   OH275162   1.741   0.312   1.488 -0.6365 -0.1732 -0.0221
17916TIP3    H175163   1.687   0.234   1.476 -0.5479 -0.3108  0.4337
17916TIP3    H275164   1.733   0.360   1.406 -4.1579  1.5057  1.0995
17917TIP3   OH275165   3.319   2.346  14.833 -0.0951  0.6036 -0.1892
17917TIP3    H175166   3.364   2.326  14.915 -0.2065 -0.6445 -0.4105
17917TIP3    H275167   3.389   2.377  14.775  0.2860 -0.1259 -0.1369
17918TIP3   OH275168   4.612   1.469   3.959 -0.0227  0.1447  0.4366
17918TIP3    H175169   4.539   1.412   3.935 -0.7370  0.8669  0.8515
17918TIP3    H275170   4.575   1.532   4.021  0.1635  2.4596 -1.6312
17919TIP3   OH275171   1.718   4.043  13.181  0.1166  0.1078 -0.1781
17919TIP3    H175172   1.779   4.110  13.213 -1.0828  1.1881 -0.1036
17919TIP3    H275173   1.720   4.052  13.086  0.3205 -0.1005 -0.1968
17920TIP3   OH275174   0.606   3.707   5.017  0.4192 -0.0818  0.5398
17920TIP3    H175175   0.521   3.749   5.019  0.5122  0.1678 -0.3442
17920TIP3    H275176   0.602   3.641   5.086  0.0651  0.9575  1.5493
17921TIP3   OH275177   5.678   2.796   3.616  0.4133  0.1209 -0.1060
17921TIP3    H175178   5.749   2.846   3.576  0.2550 -0.1417 -0.7368
17921TIP3    H275179   5.655   2.731   3.550  0.3404 -0.5200  0.5400
17922TIP3   OH275180   2.972   4.068  11.061 -0.1389  0.3637 -0.0045
17922TIP3    H175181   2.972   4.158  11.027 -1.2370  1.8395  3.4789
17922TIP3    H275182   2.882   4.038  11.048 -0.1191  0.2772  0.0633
17923TIP3   OH275183   0.765   1.972   1.374  0.0580 -0.1926 -0.3403
17923TIP3    H175184   0.763   1.984   1.469  0.4665  0.6753 -0.4312
17923TIP3    H275185   0.677   1.941   1.353 -0.8604  1.9373  0.0504
17924TIP3   OH275186   4.530   5.105   1.192 -0.7681  0.5795 -0.0052
17924TIP3    H175187   4.489   5.112   1.105  0.6709  0.3444 -0.7399
17924TIP3    H275188   4.457   5.107   1.253 -1.8048  1.1310 -1.2048
17925TIP3   OH275189   1.664   3.657  12.119  0.3618  0.4680  0.4223
17925TIP3    H175190   1.646   3.565  12.099  0.1419  0.7184 -0.6081
17925TIP3    H275191   1.733   3.682  12.058 -0.5522  1.3561 -0.2882
17926TIP3   OH275192   5.468   2.920   5.441 -0.0618 -0.4679 -0.3276
17926TIP3    H175193   5.515   2.837   5.447 -0.8607 -0.8497  1.1004
17926TIP3    H275194   5.398   2.912   5.506  1.7047  2.5193  2.2023
17927TIP3   OH275195   5.637   0.269   2.403 -0.3203 -0.5558  0.4352
17927TIP3    H175196   5.547   0.294   2.382  0.7907  2.5488 -1.3997
17927TIP3    H275197   5.650   0.297   2.493 -0.8160  0.3028  0.2471
17928TIP3   OH275198   6.003   4.355  15.879  0.5586  0.2789  0.5599
17928TIP3    H175199   6.054   4.328  15.955  1.4541 -0.9697 -0.4440
17928TIP3    H275200   5.928   4.401  15.915  0.7899 -0.5821  2.1987
17929TIP3   OH275201   1.796   1.690  16.217 -0.2545 -0.1126 -0.2348
17929TIP3    H175202   1.848   1.616  16.189 -0.4418  0.1993 -1.4857
17929TIP3    H275203   1.708   1.672  16.183  0.1168  1.5432 -2.2847
17930TIP3   OH275204   4.809   4.661   4.283 -0.1505  0.1872 -0.1891
17930TIP3    H175205   4.770   4.702   4.360  0.8377  2.7924 -0.9504
17930TIP3    H275206   4.738   4.610   4.245 -1.6128  1.4444  0.6956
17931TIP3   OH275207   0.642   3.962   1.918  0.4343  0.8898 -0.3366
17931TIP3    H175208   0.677   4.015   1.989  1.5081 -0.1975 -0.0125
17931TIP3    H275209   0.554   3.938   1.946  1.8081 -1.9217  2.0583
17932TIP3   OH275210   3.713   1.778  14.789 -0.3461 -0.5074  0.3320
17932TIP3    H175211   3.667   1.859  14.766 -0.6062  0.0751  2.6941
17932TIP3    H275212   3.734   1.738  14.704 -0.6126  1.7754 -0.8883
17933TIP3   OH275213   4.578   1.664  16.729 -0.0589  0.2584 -0.4432
17933TIP3    H175214   4.507   1.725  16.709  0.2791  0.1726 -2.0169
17933TIP3    H275215   4.636   1.712  16.788  0.0907  1.4004 -1.4847
17934TIP3   OH275216   3.631   1.016  11.365  0.2294  0.1372 -0.2355
17934TIP3    H175217   3.706   1.068  11.393 -0.0128  0.7741 -0.7654
17934TIP3    H275218   3.608   1.050  11.279 -0.1488 -0.6115 -0.4409
17935TIP3   OH275219   5.149   5.945   0.428  0.3749 -0.3776 -0.3425
17935TIP3    H175220   5.238   5.912   0.420  1.0807  1.7493 -2.2703
17935TIP3    H275221   5.136   5.955   0.522  2.3596 -0.3479 -0.0224
17936TIP3   OH275222   0.252   4.844  15.299  0.1362 -0.3482 -1.0642
17936TIP3    H175223   0.221   4.758  15.327  0.7868 -0.1278  0.4443
17936TIP3    H275224   0.347   4.834  15.291  0.9013  1.2386  3.4942
17937TIP3   OH275225   3.360   3.164   2.022  0.1043  0.2430  0.4055
17937TIP3    H175226   3.453   3.171   1.998  0.1386  0.8537  0.6748
17937TIP3    H275227   3.342   3.071   2.023  1.0600  0.0417  1.6019
17938TIP3   OH275228   5.708   2.526   5.056 -0.0110 -0.2872  0.2399
17938TIP3    H175229   5.751   2.610   5.047 -0.7410  0.1495  0.7332
17938TIP3    H275230   5.616   2.543   5.033 -0.2138 -0.8857  0.5762
17939TIP3   OH275231   4.184   3.989   2.232  0.3938  0.0174  0.0545
17939TIP3    H175232   4.258   4.038   2.268  0.8772  0.3690 -1.3751
17939TIP3    H275233   4.222   3.929   2.169 -0.2484 -1.9017  1.3831
17940TIP3   OH275234   1.121   1.108   0.354 -0.3516 -0.1535  0.3861
17940TIP3    H175235   1.026   1.102   0.363 -0.5377 -0.4760 -1.4156
17940TIP3    H275236   1.152   1.017   0.361 -0.0813  0.0209  1.6591
17941TIP3   OH275237   0.993   0.138  14.511  0.1088  0.3323 -0.1251
17941TIP3    H175238   0.898   0.150  14.504  0.0963 -0.5440 -2.3329
17941TIP3    H275239   1.004   0.065  14.571 -0.7130 -0.5020 -0.9507
17942TIP3   OH275240   0.855   3.375  15.648  0.3513  0.2166  0.0684
17942TIP3    H175241   0.790   3.445  15.635  1.7225  1.6837  0.7472
17942TIP3    H275242   0.830   3.335  15.732 -0.2255  0.1189 -0.1430
17943TIP3   OH275243   0.176   6.218  11.189 -0.0194  0.0239  0.4514
17943TIP3    H175244   0.092   6.259  11.212 -0.5829  0.4547 -2.0763
17943TIP3    H275245   0.157   6.124  11.189 -1.2578  0.1865 -2.4354
17944TIP3   OH275246   0.951   5.812   4.239 -0.1032  0.0467 -0.4753
17944TIP3    H175247   0.964   5.753   4.314  0.3617 -0.5069 -0.9811
17944TIP3    H275248   0.887   5.875   4.270  0.0438 -0.2019  0.3810
17945TIP3   OH275249   6.754   4.085  14.230 -0.6485  0.0423  0.0682
17945TIP3    H175250   6.798   4.095  14.146  1.5189 -0.5193  1.0764
17945TIP3    H275251   6.761   4.171  14.272 -0.7277  0.0088  0.1525
17946TIP3   OH275252   4.294   3.898   4.853 -0.1962  0.3498  0.6071
17946TIP3    H175253   4.216   3.922   4.903 -0.4549 -0.1888  0.4729
17946TIP3    H275254   4.265   3.825   4.798 -0.3069  1.7720 -1.3256
17947TIP3   OH275255   2.993   3.987   1.273  0.2492 -0.0001 -0.0512
17947TIP3    H175256   3.012   3.979   1.179 -0.5552  2.9775 -0.5477
17947TIP3    H275257   3.058   4.050   1.305  0.7716 -1.2688  1.5439
17948TIP3   OH275258   6.488   3.477  17.205  0.4432  0.8088  0.0290
17948TIP3    H175259   6.558   3.462  17.269  0.0504  0.1468  0.3033
17948TIP3    H275260   6.410   3.492  17.257  0.4971  2.2699 -0.2624
17949TIP3   OH275261   1.606   2.382  10.683  0.2736 -0.5235  0.7168
17949TIP3    H175262   1.678   2.321  10.665  0.9760  0.3559  0.4637
17949TIP3    H275263   1.533   2.350  10.630  1.1859 -0.1167 -0.8290
17950TIP3   OH275264   3.037   1.054  11.917  0.2524 -0.3423 -0.0594
17950TIP3    H175265   3.019   1.064  12.010  0.7169  1.9596 -0.1457
17950TIP3    H275266   3.121   1.009  11.913  1.3576  1.5469  0.7516
17951TIP3   OH275267   5.912   0.676   2.644  0.4124  0.4798 -0.4749
17951TIP3    H175268   5.824   0.664   2.607 -0.0689 -0.5760  0.9540
17951TIP3    H275269   5.913   0.622   2.722  2.4100  0.3595 -0.5418
17952TIP3   OH275270   6.292   1.844  14.841  0.3819 -0.0073  0.0044
17952TIP3    H175271   6.380   1.862  14.810  0.2674 -0.1369 -0.4048
17952TIP3    H275272   6.263   1.769  14.789  0.1922 -0.2405  0.4364
17953TIP3   OH275273   0.310   6.077  14.925 -0.2160  0.2015  0.1666
17953TIP3    H175274   0.295   6.170  14.943 -0.2512 -0.0435  1.5307
17953TIP3    H275275   0.264   6.061  14.843 -2.3896  0.8389  1.1856
17954TIP3   OH275276   5.425   5.408   4.128  0.5764  0.0270  0.0767
17954TIP3    H175277   5.402   5.434   4.217 -0.1387 -1.2899  0.3075
17954TIP3    H275278   5.440   5.490   4.081 -2.1206  0.8735  0.5746
17955TIP3   OH275279   5.327   4.587   3.983 -0.0205 -0.8327 -0.2688
17955TIP3    H175280   5.406   4.640   3.989  0.7560 -2.0086  0.4448
17955TIP3    H275281   5.294   4.583   4.073 -2.2479  1.5498 -0.8834
17956TIP3   OH275282   3.671   1.097   0.388 -0.3470  0.3413 -0.2005
17956TIP3    H175283   3.632   1.095   0.475  0.2806 -0.6765  0.0661
17956TIP3    H275284   3.695   1.189   0.375 -1.2934  0.6821  0.2973
17957TIP3   OH275285   6.626   4.161  16.377  0.1837  0.7981  0.1658
17957TIP3    H175286   6.691   4.129  16.315 -0.3315 -0.3716  0.2078
17957TIP3    H275287   6.670   4.159  16.462 -0.1474 -0.8052  0.3240
17958TIP3   OH275288   3.308   6.470  16.262  0.1806  0.4190  0.0227
17958TIP3    H175289   3.293   6.560  16.293 -0.4848 -0.1690  1.4544
17958TIP3    H275290   3.225   6.425  16.275  0.3817 -0.3112 -1.0911
17959TIP3   OH275291   3.861   4.306  15.365  0.0557  0.2759 -0.0960
17959TIP3    H175292   3.876   4.380  15.424 -1.1940  1.5907 -1.3528
17959TIP3    H275293   3.865   4.343  15.277  0.0572 -1.2853 -0.7990
17960TIP3   OH275294   5.715   6.001  11.676  0.5036  0.7164 -0.0830
17960TIP3    H175295   5.687   5.923  11.724 -1.0179 -1.3712 -3.8800
17960TIP3    H275296   5.638   6.057  11.673 -0.0132 -0.0116 -1.4541
17961TIP3   OH275297   0.646   5.874  16.397 -0.0833  0.2062  0.2545
17961TIP3    H175298   0.724   5.913  16.357 -0.8549  1.9666  0.3585
17961TIP3    H275299   0.582   5.946  16.398 -1.3741 -0.9202  1.0684
17962TIP3   OH275300   6.402   4.171   5.573 -0.1392  0.0655 -0.3067
17962TIP3    H175301   6.493   4.143   5.579 -0.1902  0.2752  2.0841
17962TIP3    H275302   6.356   4.120   5.639 -1.5002  1.0086 -0.4802
17963TIP3   OH275303   6.600   5.257  12.280 -0.0032  0.4231  0.0029
17963TIP3    H175304   6.579   5.339  12.236  0.3160  0.3378 -0.3224
17963TIP3    H275305   6.579   5.189  12.216 -0.5487  0.2317  0.3811
17964TIP3   OH275306   2.871   3.216  16.030  0.5426  0.5727 -0.1886
17964TIP3    H175307   2.787   3.170  16.024  1.6121 -1.4872 -0.4583
17964TIP3    H275308   2.889   3.244  15.940  0.2370  0.8510 -0.1644
17965TIP3   OH275309   4.778   4.977  16.664 -0.1932  0.3056 -0.0581
17965TIP3    H175310   4.756   4.887  16.643 -1.7915  0.8280 -0.7661
17965TIP3    H275311   4.694   5.022  16.669  0.5791  1.7962  0.1085
17966TIP3   OH275312   3.217   2.330   6.200  0.1713 -0.0854  0.1650
17966TIP3    H175313   3.142   2.334   6.260 -0.5320 -0.2936 -0.6798
17966TIP3    H275314   3.266   2.410   6.218 -2.0727  1.8603 -1.5539
17967TIP3   OH275315   6.725   2.948   0.036  0.1927 -0.2135 -0.1269
17967TIP3    H175316   6.668   2.884   0.078  0.4094 -1.1343 -1.1849
17967TIP3    H275317   6.708   2.938  -0.058  0.7520  0.7945 -0.3602
17968TIP3   OH275318   3.613   2.398   4.738  0.1291 -0.1318 -0.6879
17968TIP3    H175319   3.518   2.403   4.746  0.3267  1.2755  1.4319
17968TIP3    H275320   3.635   2.466   4.673 -0.0750  2.5774  1.8702
17969TIP3   OH275321   4.492   2.945   1.209 -0.1461  0.0894 -1.1239
17969TIP3    H175322   4.461   3.036   1.208  0.7185  0.4006 -0.6412
17969TIP3    H275323   4.461   2.910   1.293  1.6127  0.7169 -0.1558
17970TIP3   OH275324   2.087   5.514  15.459 -0.3400  0.0983  0.3270
17970TIP3    H175325   2.125   5.555  15.381 -0.6604 -0.3382 -0.0635
17970TIP3    H275326   1.996   5.541  15.458 -0.7685 -1.2758 -0.4012
17971TIP3   OH275327   1.909   5.396   2.635  0.3377 -0.0105  0.0213
17971TIP3    H175328   1.935   5.466   2.574  1.8414 -1.4283 -1.0502
17971TIP3    H275329   1.838   5.434   2.686  0.6683  2.0765 -0.9652
17972TIP3   OH275330   1.308   2.698   1.433  0.2826  0.3352  0.2362
17972TIP3    H175331   1.232   2.651   1.469 -0.1789 -0.6389 -1.8364
17972TIP3    H275332   1.384   2.655   1.473 -0.1349 -2.2268 -1.5037
17973TIP3   OH275333   1.209   1.770   3.491 -0.2676  0.0413  0.5287
17973TIP3    H175334   1.167   1.695   3.448 -0.4057 -0.1723  1.0283
17973TIP3    H275335   1.141   1.838   3.492 -0.2897  0.0199  0.4806
17974TIP3   OH275336   1.839   2.019  11.780 -0.1327  0.4514 -0.1809
17974TIP3    H175337   1.825   2.017  11.685  0.5933  1.4569 -0.3314
17974TIP3    H275338   1.787   2.093  11.810 -0.2573  0.2159  0.1896
17975TIP3   OH275339   6.189   1.208   5.809  0.1099  0.2493 -0.5721
17975TIP3    H175340   6.228   1.209   5.897 -1.3375 -0.7256  0.1274
17975TIP3    H275341   6.229   1.134   5.765  1.4763  1.2470 -1.0811
17976TIP3   OH275342   1.684   0.816   1.604  0.0522 -0.3261  0.3487
17976TIP3    H175343   1.777   0.798   1.596  0.0271  0.1865 -1.5304
17976TIP3    H275344   1.668   0.888   1.543 -1.4427  0.1097  1.1947
17977TIP3   OH275345   0.896   6.544   5.147 -0.7130  0.2017  0.1092
17977TIP3    H175346   0.971   6.529   5.089 -0.5252  0.4147  0.2944
17977TIP3    H275347   0.834   6.474   5.125 -0.0008 -0.6403  0.7126
17978TIP3   OH275348   2.431   2.668   6.004  0.6401  0.0459 -0.4789
17978TIP3    H175349   2.435   2.594   6.064 -1.3424 -1.1942 -1.7421
17978TIP3    H275350   2.492   2.645   5.933  0.8936  0.1889 -0.3088
17979TIP3   OH275351   6.351   3.003  12.055  0.4509 -0.6886 -0.0396
17979TIP3    H175352   6.400   3.082  12.078 -0.9145  0.2871 -0.3697
17979TIP3    H275353   6.411   2.954  11.999  1.0048  0.5519 -0.5764
17980TIP3   OH275354   4.714   6.251  10.381 -0.1824  0.0911  0.2224
17980TIP3    H175355   4.652   6.324  10.376 -0.1752  0.2468  1.7889
17980TIP3    H275356   4.659   6.173  10.380 -0.4196  0.2206  1.2373
17981TIP3   OH275357   6.030   5.179  15.566  0.0445  0.5951 -0.0499
17981TIP3    H175358   6.066   5.241  15.503  2.6539 -0.2556  0.5100
17981TIP3    H275359   6.055   5.215  15.652 -0.9021  0.1982  0.4154
17982TIP3   OH275360   0.709   1.020   3.707  0.1743 -0.1322 -0.2982
17982TIP3    H175361   0.791   0.971   3.698 -0.0562 -0.4968 -0.4231
17982TIP3    H275362   0.701   1.037   3.801  0.0785 -0.6477 -0.2074
17983TIP3   OH275363   4.431   5.691  17.053 -0.0349 -0.2821  0.3812
17983TIP3    H175364   4.451   5.772  17.008  1.5787 -0.2934  1.0201
17983TIP3    H275365   4.336   5.693  17.066 -0.4122  0.1690 -2.0723
17984TIP3   OH275366   0.618   4.629   4.040  0.8751  0.5090  0.2363
17984TIP3    H175367   0.608   4.643   3.945  2.3375  1.6136  0.1922
17984TIP3    H275368   0.630   4.534   4.049  0.8812  0.4063 -0.7043
17985TIP3   OH275369   5.450   2.736  15.083 -0.2079  0.1340  0.1545
17985TIP3    H175370   5.418   2.788  15.009  3.1068  0.0584 -1.4994
17985TIP3    H275371   5.372   2.693  15.117 -2.2882  2.2437 -1.5943
17986TIP3   OH275372   5.801   1.851  15.316 -0.9558  0.1052  0.1635
17986TIP3    H175373   5.829   1.912  15.248  0.0949 -0.6819 -0.1448
17986TIP3    H275374   5.717   1.885  15.346 -1.4526  0.4780 -1.5284
17987TIP3   OH275375   0.871   3.573   2.759  0.0143  0.7363  0.5109
17987TIP3    H175376   0.884   3.652   2.706 -1.3104  0.2583 -0.5552
17987TIP3    H275377   0.825   3.604   2.837 -0.8170  0.9646 -0.0689
17988TIP3   OH275378   4.848   5.911  14.431  0.2854  0.1647 -0.4025
17988TIP3    H175379   4.880   5.978  14.371  1.2385 -0.5328 -0.6919
17988TIP3    H275380   4.898   5.924  14.512 -0.1066  0.3141 -0.1817
17989TIP3   OH275381   0.966   5.601   5.638  0.4277 -0.4125 -0.1840
17989TIP3    H175382   0.944   5.646   5.719  0.8454  1.2359 -0.9518
17989TIP3    H275383   1.023   5.529   5.666 -0.8834 -0.9866  1.1494
17990TIP3   OH275384   6.034   3.026   3.041 -0.0063 -0.3253 -0.7327
17990TIP3    H175385   5.952   3.009   3.087 -0.0576 -1.6093 -1.2519
17990TIP3    H275386   6.010   3.089   2.972 -0.3275  0.0863 -0.2564
17991TIP3   OH275387   4.785   6.093  15.424  0.4379 -0.8790  0.1881
17991TIP3    H175388   4.841   6.129  15.492 -0.5626 -1.8681  1.6060
17991TIP3    H275389   4.830   6.014  15.395  1.3663  0.0751 -1.0784
17992TIP3   OH275390   3.867   2.465  16.065  0.1264  0.4190 -0.0528
17992TIP3    H175391   3.817   2.472  16.146 -1.3085 -2.2072 -0.5792
17992TIP3    H275392   3.907   2.378  16.069  1.3963  0.9009 -1.4425
17993TIP3   OH275393   1.693   4.563   1.516  0.2302 -0.3325  0.0136
17993TIP3    H175394   1.613   4.539   1.469  0.5361  0.2513 -0.8235
17993TIP3    H275395   1.663   4.614   1.591 -0.2489 -1.0669  0.3288
17994TIP3   OH275396   6.149   3.453  15.453  0.3616  0.2106  0.7667
17994TIP3    H175397   6.122   3.507  15.379  0.4747 -1.0093 -0.1967
17994TIP3    H275398   6.240   3.429  15.433 -0.3636 -2.1424  0.0295
17995TIP3   OH275399   0.623   5.950   0.980 -0.0478 -0.0587 -0.0875
17995TIP3    H175400   0.667   5.912   1.056  0.5958 -0.1696 -0.5072
17995TIP3    H275401   0.656   6.040   0.975 -1.7410  0.6853  1.0408
17996TIP3   OH275402   2.863   5.969  13.082 -0.0730 -0.4097  0.0188
17996TIP3    H175403   2.785   6.023  13.091 -0.0900 -0.3559 -0.4153
17996TIP3    H275404   2.849   5.920  13.001 -0.5707 -1.9139  0.9536
17997TIP3   OH275405   4.655   5.014   1.810  0.6363 -0.0677  0.6578
17997TIP3    H175406   4.565   5.003   1.840  0.8813 -1.2025  1.0237
17997TIP3    H275407   4.650   5.087   1.748 -0.8216 -1.0771 -0.4873
17998TIP3   OH275408   4.095   6.384   6.206  0.0050  0.0620 -0.0067
17998TIP3    H175409   4.128   6.419   6.289  2.3407  1.1270 -1.2830
17998TIP3    H275410   4.052   6.459   6.164  0.4047  0.0065 -0.5148
17999TIP3   OH275411   0.323   3.413  11.167 -0.1558  0.9583 -0.0695
17999TIP3    H175412   0.388   3.422  11.237 -0.0431 -1.5132  0.2324
17999TIP3    H275413   0.353   3.337  11.116 -1.7622  0.9611 -1.0938
18000TIP3   OH275414   1.224   0.295   1.157 -0.2096 -0.3554 -0.0583
18000TIP3    H175415   1.290   0.333   1.215 -0.3529 -1.7703  1.0740
18000TIP3    H275416   1.261   0.304   1.069  0.5384  0.7412  0.3481
18001TIP3   OH275417   5.242   5.313  11.845 -0.2306  0.5427 -0.8005
18001TIP3    H175418   5.186   5.237  11.826 -0.8388  0.6737  0.3768
18001TIP3    H275419   5.213   5.343  11.931 -0.5769  2.6178 -1.5867
18002TIP3   OH275420   6.144   1.370   3.545 -0.1340 -0.1784  0.3430
18002TIP3    H175421   6.142   1.374   3.641  1.9695 -1.1110  0.4893
18002TIP3    H275422   6.132   1.461   3.517  1.5943  0.4976  1.6155
18003TIP3   OH275423   3.170   3.885  12.286 -0.7065  0.0934  0.5326
18003TIP3    H175424   3.081   3.910  12.259  0.1365  1.0278 -1.6390
18003TIP3    H275425   3.166   3.790  12.296 -1.7644  0.0241 -0.3039
18004TIP3   OH275426   1.919   5.823  14.667  0.1314 -0.1730  0.2449
18004TIP3    H175427   2.010   5.796  14.676  0.5340  0.6635 -1.0412
18004TIP3    H275428   1.905   5.886  14.738  0.8019  0.3155 -0.0489
18005TIP3   OH275429   3.220   0.075   2.852 -0.0316 -0.3789  0.5210
18005TIP3    H175430   3.156   0.120   2.797 -0.8643 -3.1425 -1.0302
18005TIP3    H275431   3.203   0.105   2.941 -3.6154 -1.0000  0.1808
18006TIP3   OH275432   1.413   6.083  11.011  0.2702 -0.4409 -0.0723
18006TIP3    H175433   1.330   6.081  10.963 -0.4598 -0.3685  1.1644
18006TIP3    H275434   1.478   6.054  10.946 -0.2005  2.3767 -1.9953
18007TIP3   OH275435   5.140   3.625  17.068  0.4047 -0.5577 -0.0114
18007TIP3    H175436   5.139   3.533  17.094  2.2341 -1.4174 -2.5367
18007TIP3    H275437   5.228   3.655  17.090 -0.1063  0.5464  0.5925
18008TIP3   OH275438   0.005   4.374  12.903  0.5474  0.4425 -0.2130
18008TIP3    H175439  -0.058   4.373  12.976 -2.5289 -0.5714 -2.6428
18008TIP3    H275440   0.013   4.282  12.878  1.1302  0.8148 -1.4556
18009TIP3   OH275441   0.513   1.339  15.811 -0.2164  0.1487  0.5801
18009TIP3    H175442   0.431   1.305  15.775 -0.4599  0.9389  0.3811
18009TIP3    H275443   0.490   1.367  15.899 -0.1852  0.4675  0.4863
18010TIP3   OH275444   4.208   6.309  16.843  0.3558  0.3407 -0.6178
18010TIP3    H175445   4.131   6.363  16.861 -0.7032 -0.9321 -1.1781
18010TIP3    H275446   4.281   6.357  16.881 -0.7198  1.5680 -0.0557
18011TIP3   OH275447   0.558   0.355   4.177  0.2782  0.5905 -0.3665
18011TIP3    H175448   0.648   0.385   4.172  1.6263 -2.6922  1.1586
18011TIP3    H275449   0.559   0.286   4.243 -3.3468  0.2876 -0.3962
18012TIP3   OH275450   4.284   2.820   3.434 -0.1114 -0.8122 -0.1189
18012TIP3    H175451   4.310   2.909   3.461 -2.2671 -0.1893  0.0697
18012TIP3    H275452   4.360   2.787   3.386  1.2478  0.6277  0.9018
18013TIP3   OH275453   3.053   1.555  13.205  0.7655  0.1393  0.5950
18013TIP3    H175454   3.110   1.563  13.129 -0.0945  0.6994 -0.0053
18013TIP3    H275455   3.053   1.642  13.245  0.4286  0.1061  0.6673
18014TIP3   OH275456   1.528   0.007  11.273  0.5472 -0.6163 -0.0278
18014TIP3    H175457   1.592   0.008  11.201  1.0362 -0.0373  0.4064
18014TIP3    H275458   1.578   0.035  11.349 -0.2807  0.0736  0.2757
18015TIP3   OH275459   4.812   0.566   2.764 -0.0629  0.0574 -0.1741
18015TIP3    H175460   4.771   0.587   2.848 -1.6461  0.2135 -0.9450
18015TIP3    H275461   4.891   0.619   2.761 -0.2282  0.3954  1.0105
18016TIP3   OH275462   4.657   5.800  13.263 -0.9479 -0.0245  0.3678
18016TIP3    H175463   4.741   5.819  13.222 -1.0501 -0.8284 -0.2509
18016TIP3    H275464   4.667   5.830  13.353  0.5158 -1.3856  0.7155
18017TIP3   OH275465   0.368   0.707   2.583 -0.3342 -0.3612 -0.1721
18017TIP3    H175466   0.285   0.677   2.620 -0.4550 -2.5612 -1.9748
18017TIP3    H275467   0.433   0.685   2.649 -0.9153 -0.9471  0.2232
18018TIP3   OH275468   1.120   0.646   5.899 -0.6038 -0.0176  0.6995
18018TIP3    H175469   1.185   0.641   5.829 -1.2860 -0.4454  0.0908
18018TIP3    H275470   1.113   0.556   5.932  0.8538  0.4126  2.4084
18019TIP3   OH275471   3.924   0.858  11.258  0.3531  0.2446 -0.0107
18019TIP3    H175472   3.944   0.932  11.315  1.1341  0.1158 -0.1102
18019TIP3    H275473   3.949   0.781  11.309  0.7173  0.1085 -0.3912
18020TIP3   OH275474   1.748   0.286  12.555 -0.1174 -0.5697 -0.5227
18020TIP3    H175475   1.687   0.226  12.597  0.2531  0.5393  1.7328
18020TIP3    H275476   1.830   0.237  12.548 -0.1921 -0.7696  0.0299
18021TIP3   OH275477   6.340   3.801   4.371 -0.3241 -0.6352  0.2304
18021TIP3    H175478   6.322   3.795   4.277  1.2840 -2.1062 -0.0308
18021TIP3    H275479   6.255   3.819   4.410 -1.0500 -0.0934 -1.4858
18022TIP3   OH275480   5.099   1.879   3.397  0.2980  0.0784  0.5697
18022TIP3    H175481   5.117   1.785   3.392 -1.7144 -0.3149 -0.3400
18022TIP3    H275482   5.149   1.917   3.325 -0.0794 -0.5281 -0.0216
18023TIP3   OH275483   2.298   4.254   2.537  0.6258 -0.2826 -0.3560
18023TIP3    H175484   2.268   4.335   2.576 -2.1034 -0.3810 -1.9970
18023TIP3    H275485   2.279   4.187   2.602 -1.1140 -0.0887 -0.6281
18024TIP3   OH275486   3.165   5.019   0.603 -0.0668 -0.1384 -0.2339
18024TIP3    H175487   3.222   5.065   0.542 -0.0733 -2.3187 -1.9809
18024TIP3    H275488   3.221   4.999   0.678  1.5373 -2.1614 -1.8680
18025TIP3   OH275489   4.076   2.023   0.685 -0.4528  0.1073 -0.2241
18025TIP3    H175490   4.094   2.066   0.601 -0.9277 -0.2496 -0.5171
18025TIP3    H275491   4.157   1.976   0.705  0.2638  1.5343  0.3650
18026TIP3   OH275492   4.070   3.469  15.844 -0.1217  0.3712  0.8486
18026TIP3    H175493   3.984   3.509  15.837 -0.0799  0.6887  1.9376
18026TIP3    H275494   4.125   3.519  15.784 -0.5170  0.6935  0.7511
18027TIP3   OH275495   5.885   4.596  12.639  0.3960 -0.2020 -0.2893
18027TIP3    H175496   5.853   4.530  12.701  0.7082 -0.2719 -0.2023
18027TIP3    H275497   5.966   4.629  12.678 -1.3415  2.5778  1.3223
18028TIP3   OH275498   3.389   5.087  11.634  0.2931  0.1725 -0.3771
18028TIP3    H175499   3.412   5.015  11.691  1.7988  1.8503  1.2661
18028TIP3    H275500   3.303   5.115  11.664  0.2836 -0.1035 -0.1419
18029TIP3   OH275501   2.281   5.121  17.140 -0.4566 -0.4255 -0.2366
18029TIP3    H175502   2.211   5.082  17.192  0.1462 -0.0814  0.8736
18029TIP3    H275503   2.239   5.145  17.057 -1.5392 -0.6294  0.2349
18030TIP3   OH275504   6.604   2.885   2.754 -0.5581  0.4203 -0.4033
18030TIP3    H175505   6.551   2.864   2.831  1.0982 -0.7502  0.4967
18030TIP3    H275506   6.541   2.904   2.685 -2.1178 -0.2989  0.7669
18031TIP3   OH275507   2.054   3.948  12.186  0.1682  0.0785  0.2761
18031TIP3    H175508   2.040   4.040  12.163  0.5178  0.4353  1.3947
18031TIP3    H275509   2.021   3.941  12.276  1.8557 -0.4375  0.8920
18032TIP3   OH275510   4.234   0.221  12.351 -0.5594 -0.1084  0.0332
18032TIP3    H175511   4.294   0.290  12.378  0.7767 -1.0804 -0.3465
18032TIP3    H275512   4.246   0.214  12.256 -2.5499  0.8202 -0.3547
18033TIP3   OH275513   6.010   4.123  17.188  1.3242  0.4663  0.1929
18033TIP3    H175514   5.949   4.196  17.195  0.3791 -0.3257  0.3080
18033TIP3    H275515   6.045   4.113  17.277 -0.7627 -1.0839  0.9132
18034TIP3   OH275516   2.601   2.563   0.573 -0.6352  0.5519 -0.2821
18034TIP3    H175517   2.575   2.634   0.515  1.6270  0.7678 -1.1469
18034TIP3    H275518   2.600   2.602   0.661 -2.4184  0.7157 -0.3437
18035TIP3   OH275519   6.719   0.541  17.297 -0.5284  0.4606  0.0064
18035TIP3    H175520   6.705   0.470  17.234  1.3231  1.4067 -1.5871
18035TIP3    H275521   6.656   0.608  17.272 -1.9979 -0.3948  1.2536
18036TIP3   OH275522   6.529   2.154   3.729  0.3597  0.3174 -0.1269
18036TIP3    H175523   6.535   2.075   3.784 -1.6630  0.9031  1.0685
18036TIP3    H275524   6.592   2.215   3.768  0.1868  0.1179  0.4809
18037TIP3   OH275525   2.427   2.391  11.681  0.1613 -0.3993 -0.4958
18037TIP3    H175526   2.359   2.445  11.721  1.3069  0.4729  0.3368
18037TIP3    H275527   2.508   2.441  11.693  1.2723 -2.2794  0.2829
18038TIP3   OH275528   4.901   5.070   2.980  0.3967 -0.3930  0.0294
18038TIP3    H175529   4.818   5.025   2.992  0.5494 -0.9622 -1.0125
18038TIP3    H275530   4.878   5.154   2.941  0.4838 -1.7710 -3.2576
18039TIP3   OH275531   2.209   3.973  16.554 -0.6982 -0.2511  0.4619
18039TIP3    H175532   2.164   3.916  16.618  0.3379  0.5492  1.9623
18039TIP3    H275533   2.254   4.038  16.608  1.5655 -0.5012 -1.0146
18040TIP3   OH275534   0.254   5.363  14.502 -0.1747 -0.0936 -0.6192
18040TIP3    H175535   0.266   5.302  14.429 -1.4940 -0.7574 -0.3032
18040TIP3    H275536   0.164   5.349  14.531 -0.2010  1.3432  0.0832
18041TIP3   OH275537   2.937   4.541  15.462  0.0600  0.2791 -0.2101
18041TIP3    H175538   2.974   4.601  15.526 -0.4447  0.2695  0.0985
18041TIP3    H275539   2.900   4.598  15.394 -1.6440  0.3906  0.7576
18042TIP3   OH275540   1.955   3.516  14.368 -0.1431  0.3945  0.1219
18042TIP3    H175541   2.005   3.539  14.289 -0.5063  1.2939  0.1349
18042TIP3    H275542   1.923   3.600  14.401 -0.6338 -0.0490  0.8015
18043TIP3   OH275543   4.217   6.611  11.667  0.0566 -0.1797  0.2156
18043TIP3    H175544   4.183   6.534  11.622  0.0385  0.6653 -1.2896
18043TIP3    H275545   4.160   6.621  11.743 -1.0943 -0.6098 -0.5573
18044TIP3   OH275546   0.085   1.990  10.730 -0.2047  0.0739 -0.7990
18044TIP3    H175547   0.072   1.971  10.823 -0.9169  0.8220 -0.7357
18044TIP3    H275548   0.003   2.030  10.701  0.7964  1.9709 -1.1821
18045TIP3   OH275549   1.289   3.315  16.862  0.4989  0.0291 -0.2160
18045TIP3    H175550   1.309   3.279  16.776  1.8082 -0.1827  0.1661
18045TIP3    H275551   1.337   3.397  16.867 -1.7987  1.5156 -0.7519
18046TIP3   OH275552   6.547   5.776  12.074 -0.3808 -0.6611  0.1268
18046TIP3    H175553   6.480   5.784  12.006 -0.9943  0.0428  0.7939
18046TIP3    H275554   6.624   5.820  12.038 -1.0097  0.5741  0.2576
18047TIP3   OH275555   5.659   4.092  17.125 -0.6886 -0.0769 -0.3217
18047TIP3    H175556   5.677   4.180  17.092 -0.7289  0.1768  0.3228
18047TIP3    H275557   5.594   4.105  17.194 -1.1736 -0.6828 -0.6613
18048TIP3   OH275558   5.392   4.889   1.797 -0.3806 -0.2354 -0.0682
18048TIP3    H175559   5.353   4.836   1.727 -0.6504 -2.9649  1.9795
18048TIP3    H275560   5.316   4.923   1.845 -0.2053  2.0413 -1.2850
18049TIP3   OH275561   5.485   3.803  11.160 -0.0195  0.3673 -0.4821
18049TIP3    H175562   5.397   3.841  11.162  0.5021  1.6116  1.3772
18049TIP3    H275563   5.473   3.712  11.188 -0.6042  0.8241  0.8113
18050TIP3   OH275564   0.492   2.207   0.962 -0.0119  0.7608 -0.8867
18050TIP3    H175565   0.572   2.254   0.987  0.0302 -0.7224  2.3185
18050TIP3    H275566   0.523   2.125   0.924  0.0241  0.5322 -0.3792
18051TIP3   OH275567   3.047   4.135   3.765  0.6058 -0.4858  0.0875
18051TIP3    H175568   3.027   4.157   3.856  0.3752 -1.5663  0.3181
18051TIP3    H275569   3.044   4.039   3.762 -2.0035 -0.4851 -1.6017
18052TIP3   OH275570   5.024   5.112   1.735 -0.4470 -0.4370 -0.1062
18052TIP3    H175571   4.996   5.189   1.784 -1.1323 -0.5148 -0.3659
18052TIP3    H275572   5.086   5.068   1.792 -1.2858 -0.5629  0.7257
18053TIP3   OH275573   5.825   2.814   5.365  0.4579  0.5526 -0.2688
18053TIP3    H175574   5.882   2.750   5.408 -1.4886 -0.1096  1.5179
18053TIP3    H275575   5.805   2.878   5.434 -1.8650  0.0749 -0.4243
18054TIP3   OH275576   5.006   6.009   2.731 -0.6030  0.0637 -0.1569
18054TIP3    H175577   4.940   6.039   2.668 -1.6354 -1.2987  0.2240
18054TIP3    H275578   4.955   5.977   2.805  0.5348 -0.1290  0.5572
18055TIP3   OH275579   0.138   3.266   3.038  0.2908 -0.0543  0.2890
18055TIP3    H175580   0.166   3.268   3.129  1.7924 -0.4873 -0.1290
18055TIP3    H275581   0.043   3.274   3.041  0.4510  1.6501  1.8007
18056TIP3   OH275582   3.004   6.603   4.184  0.6461  0.3216  0.2410
18056TIP3    H175583   2.956   6.521   4.191 -0.0258  0.7472  0.7625
18056TIP3    H275584   3.058   6.607   4.262 -1.6940  1.8278  1.9232
18057TIP3   OH275585   2.244   1.434   1.186  0.1697  0.8918 -0.0836
18057TIP3    H175586   2.312   1.409   1.124 -1.3694 -0.2108 -1.4419
18057TIP3    H275587   2.289   1.440   1.271  1.8190 -0.4384 -0.8045
18058TIP3   OH275588   3.946   5.876   2.380  0.1099 -0.1472 -0.2833
18058TIP3    H175589   4.042   5.879   2.380  0.0993  1.0529  0.6372
18058TIP3    H275590   3.921   5.898   2.291  0.6991 -2.7475 -1.1635
18059TIP3   OH275591   3.809   4.086  13.563  0.3486  0.0209 -0.0060
18059TIP3    H175592   3.764   4.094  13.647  0.4910  1.6295 -0.0640
18059TIP3    H275593   3.898   4.059  13.587  0.0203 -0.8665  0.2560
18060TIP3   OH275594   5.896   6.213  13.610  0.6210  0.2179  0.4544
18060TIP3    H175595   5.813   6.219  13.657  0.5089 -0.4228  0.3424
18060TIP3    H275596   5.927   6.303  13.606  1.1998  0.1770  2.7503
18061TIP3   OH275597   2.047   0.891   2.046  0.3414 -0.1177 -0.0669
18061TIP3    H175598   2.012   0.855   2.127 -2.3113  0.6941 -0.7478
18061TIP3    H275599   2.129   0.934   2.072 -0.2726 -0.1384  2.0840
18062TIP3   OH275600   5.471   0.684  10.659 -0.1123  0.0238 -0.5810
18062TIP3    H175601   5.535   0.635  10.606 -0.1332 -1.6254  0.8404
18062TIP3    H275602   5.390   0.679  10.609 -0.0299 -1.1422 -0.6168
18063TIP3   OH275603   6.182   3.771  15.127 -0.1103  0.1552 -0.0053
18063TIP3    H175604   6.206   3.752  15.036 -1.7636  0.1333 -0.4657
18063TIP3    H275605   6.138   3.856  15.123  2.1580  1.4819  1.2034
18064TIP3   OH275606   5.742   5.069   5.676 -1.0258  0.3559  0.1173
18064TIP3    H175607   5.713   5.142   5.731 -0.2811  0.7915 -0.0487
18064TIP3    H275608   5.836   5.062   5.694 -1.3262 -1.4854  1.2028
18065TIP3   OH275609   1.674   0.817  11.636 -0.0892 -0.7570 -0.3111
18065TIP3    H175610   1.629   0.733  11.641  0.2286 -0.9079  0.0889
18065TIP3    H275611   1.623   0.875  11.692 -0.0999 -0.7830 -0.2939
18066TIP3   OH275612   0.606   5.751   1.221  0.1075  0.7496  0.2173
18066TIP3    H175613   0.530   5.717   1.173 -0.6545  2.2983  0.2555
18066TIP3    H275614   0.590   5.725   1.312  0.6906 -0.7163 -0.0815
18067TIP3   OH275615   5.803   3.188   4.550  0.0068 -0.7164 -0.4194
18067TIP3    H175616   5.724   3.222   4.508 -0.2659 -0.6776  0.1184
18067TIP3    H275617   5.772   3.147   4.630  0.8134  1.7275  1.2466
18068TIP3   OH275618   1.856   2.040  17.356 -0.0689 -0.0217  0.2018
18068TIP3    H175619   1.846   2.007  17.445  2.3959 -0.3454  0.4132
18068TIP3    H275620   1.860   2.135  17.366  0.8837 -0.0915  0.5265
18069TIP3   OH275621   5.839   3.666   2.746  0.1650 -0.1188  0.0204
18069TIP3    H175622   5.748   3.692   2.737  0.3939  0.5549 -0.4867
18069TIP3    H275623   5.859   3.679   2.839 -0.2827 -0.3651  0.1486
18070TIP3   OH275624   6.053   3.750   0.983 -0.3691  0.5168 -0.1658
18070TIP3    H175625   6.084   3.811   1.049 -0.0309  0.1989 -0.0300
18070TIP3    H275626   6.002   3.686   1.032  2.1811 -1.3432  0.2280
18071TIP3   OH275627   4.101   6.705  10.838 -0.0175  0.3360  0.5302
18071TIP3    H175628   4.006   6.704  10.847 -0.2188  2.5700 -0.6781
18071TIP3    H275629   4.118   6.660  10.755  0.0184 -0.2299  0.8378
18072TIP3   OH275630   2.360   1.146  16.045  0.0525  0.1721 -0.0867
18072TIP3    H175631   2.362   1.158  16.140  0.4801 -0.2122 -0.0401
18072TIP3    H275632   2.430   1.082  16.028  0.6150  0.9420 -0.7647
18073TIP3   OH275633   2.971   5.584  14.098 -0.1567  0.0727  0.0089
18073TIP3    H175634   3.030   5.512  14.078 -0.4223 -0.0432 -0.3575
18073TIP3    H275635   2.948   5.621  14.013 -3.0222 -1.7978 -0.1332
18074TIP3   OH275636   4.376   5.903   5.186  0.3153 -0.3637  0.2761
18074TIP3    H175637   4.470   5.921   5.180  0.0522  1.3297  0.6128
18074TIP3    H275638   4.371   5.814   5.222  1.7756 -0.6396 -0.1075
18075TIP3   OH275639   4.456   2.442   2.915  0.5840  0.5286 -0.5888
18075TIP3    H175640   4.420   2.469   2.999 -2.7278 -0.1505 -1.6598
18075TIP3    H275641   4.450   2.520   2.860 -0.9217  0.0105 -1.2257
18076TIP3   OH275642   1.335   3.239  12.190 -0.5677  0.3998 -0.1285
18076TIP3    H175643   1.376   3.302  12.131 -0.2766  1.8319  1.5006
18076TIP3    H275644   1.263   3.288  12.231 -1.7262 -1.0163 -0.3894
18077TIP3   OH275645   3.943   5.211  12.585 -0.1004  0.3217 -0.1295
18077TIP3    H175646   3.881   5.277  12.554  0.9877  1.8192  0.7233
18077TIP3    H275647   3.891   5.150  12.637 -1.0907  0.6595 -0.7149
18078TIP3   OH275648   2.416   4.493  16.962  0.5023 -0.6576 -0.2488
18078TIP3    H175649   2.366   4.491  17.043 -1.6715 -3.0747 -1.5121
18078TIP3    H275650   2.491   4.549  16.982  0.2507 -1.3819  3.4922
18079TIP3   OH275651   3.868   2.221   4.624  0.1373  0.4698 -0.2658
18079TIP3    H175652   3.814   2.155   4.580  2.0055 -0.9115 -0.5694
18079TIP3    H275653   3.900   2.277   4.553  0.7372  0.0525 -0.3278
18080TIP3   OH275654   6.702   4.081   0.486  0.2071  0.3456  0.7116
18080TIP3    H175655   6.617   4.115   0.458 -0.5894 -2.4203 -0.6526
18080TIP3    H275656   6.763   4.153   0.472 -1.0292  0.8434 -3.5051
18081TIP3   OH275657   1.820   1.253  15.788  0.7455  0.1572  0.7635
18081TIP3    H175658   1.888   1.196  15.752  0.9631  0.9366 -0.0848
18081TIP3    H275659   1.775   1.288  15.712  0.7347  1.2559  1.2661
18082TIP3   OH275660   3.300   1.452   3.175  0.1313  0.6450  0.5716
18082TIP3    H175661   3.353   1.507   3.233  0.5657 -0.9339  1.7656
18082TIP3    H275662   3.364   1.399   3.127 -0.2962  0.5689  0.0707
18083TIP3   OH275663   2.982   5.859   3.175  0.1662 -0.4228 -1.0185
18083TIP3    H175664   3.014   5.786   3.228  2.6528  0.0424 -1.7057
18083TIP3    H275665   2.933   5.818   3.104  1.5515 -1.4686 -1.4155
18084TIP3   OH275666   4.816   5.199   3.537 -0.1208 -0.0307  0.4617
18084TIP3    H175667   4.885   5.199   3.470 -0.2348  0.4938  0.3386
18084TIP3    H275668   4.765   5.121   3.518  0.5966 -0.5825  0.7254
18085TIP3   OH275669   4.680   5.554  12.488  0.5808 -0.3264  0.0167
18085TIP3    H175670   4.721   5.542  12.402  1.6126 -1.3980  0.6346
18085TIP3    H275671   4.601   5.605  12.469  1.9668  1.4890 -1.2752
18086TIP3   OH275672   2.314   4.671  13.062  0.3155  0.4472 -0.5025
18086TIP3    H175673   2.221   4.682  13.083  0.5801 -1.5974  2.2923
18086TIP3    H275674   2.354   4.754  13.088 -0.2040 -0.1198  2.4881
18087TIP3   OH275675   1.259   4.858   3.844 -0.2594  0.1008  0.1768
18087TIP3    H175676   1.347   4.826   3.862  0.7072  2.1466 -0.5745
18087TIP3    H275677   1.250   4.850   3.749  0.4222  2.8046 -0.1969
18088TIP3   OH275678   1.840   2.173   4.015  0.0229 -0.3988  0.3441
18088TIP3    H175679   1.837   2.217   3.930  0.4888 -2.0140 -0.5448
18088TIP3    H275680   1.795   2.090   4.001  1.5112 -1.4071  1.2270
18089TIP3   OH275681   6.174   0.570  12.263  0.3997 -0.4108 -0.1205
18089TIP3    H175682   6.224   0.489  12.249 -0.1278 -0.3384 -3.4373
18089TIP3    H275683   6.240   0.636  12.282  1.2073 -1.0084 -0.7568
18090TIP3   OH275684   1.079   2.604  15.450  0.0598  0.1119  0.1270
18090TIP3    H175685   1.130   2.525  15.468  0.5287  0.2572 -0.5023
18090TIP3    H275686   1.023   2.579  15.376 -0.9518 -0.1126  0.9570
18091TIP3   OH275687   0.281   2.027  16.604  0.2072  0.8031 -0.2685
18091TIP3    H175688   0.360   2.069  16.572  0.4878 -0.7792 -1.8141
18091TIP3    H275689   0.308   1.938  16.627 -1.0396  0.3419 -0.4988
18092TIP3   OH275690   2.501   1.470   3.761 -0.4262  0.3062 -0.1834
18092TIP3    H175691   2.477   1.495   3.850 -0.5505  1.0023 -0.4110
18092TIP3    H275692   2.574   1.409   3.772  0.4426  1.4022  0.3446
18093TIP3   OH275693   2.796   5.320   1.375  0.2916  0.1184 -0.5837
18093TIP3    H175694   2.783   5.311   1.469  1.6016  0.9758 -0.3014
18093TIP3    H275695   2.708   5.338   1.340 -0.0977  0.4624  0.5532
18094TIP3   OH275696   3.802   2.643  13.912 -0.3417 -0.1350 -0.0133
18094TIP3    H175697   3.862   2.707  13.949 -1.4288  0.8211  0.1528
18094TIP3    H275698   3.779   2.679  13.826  1.5370 -1.9329 -1.3615
18095TIP3   OH275699   5.789   2.516  13.025 -0.2672 -0.3451 -0.2477
18095TIP3    H175700   5.702   2.476  13.033 -0.5504  0.1725 -0.6438
18095TIP3    H275701   5.801   2.527  12.930 -0.4985  1.1325 -0.1266
18096TIP3   OH275702   0.825   4.689  11.680 -0.3007 -0.1285  0.4447
18096TIP3    H175703   0.885   4.757  11.710 -1.5363 -0.1943  3.3776
18096TIP3    H275704   0.874   4.607  11.691  1.2937  0.1033 -3.3587
18097TIP3   OH275705   6.466   5.261  12.524  0.0889 -0.5546  0.0948
18097TIP3    H175706   6.509   5.272  12.438  0.3183  0.9965  0.3804
18097TIP3    H275707   6.533   5.220  12.579  0.1118 -1.0825 -0.3149
18098TIP3   OH275708   6.461   5.816   5.444  0.3768  0.1641  0.3238
18098TIP3    H175709   6.399   5.887   5.430  0.2138 -0.2972 -1.6102
18098TIP3    H275710   6.417   5.739   5.407  2.0099 -0.2031 -0.9499
18099TIP3   OH275711   0.361   1.889  15.402 -0.3162  0.1016 -0.4436
18099TIP3    H175712   0.391   1.864  15.489 -0.7705  0.6714 -0.1115
18099TIP3    H275713   0.266   1.876  15.405 -0.0659 -3.0141 -1.9185
18100TIP3   OH275714   4.179   1.638  15.539 -0.2533 -0.4767 -0.0655
18100TIP3    H175715   4.237   1.664  15.610  0.6012  0.5463 -1.1101
18100TIP3    H275716   4.101   1.604  15.583  0.3664 -0.1213  1.3517
18101TIP3   OH275717   5.292   0.401  15.970 -0.1012 -0.6490 -0.0835
18101TIP3    H175718   5.256   0.348  16.041 -0.4350 -0.5225 -0.1573
18101TIP3    H275719   5.309   0.486  16.010 -2.5952  0.2248 -0.7087
18102TIP3   OH275720   6.533   0.048   2.682 -0.1497 -0.5541 -0.1806
18102TIP3    H175721   6.531   0.095   2.765 -0.6035  0.7644 -0.9193
18102TIP3    H275722   6.614   0.077   2.640  0.2171 -1.4225 -0.1052
18103TIP3   OH275723   4.731   2.592  14.325  0.1833  0.2650  0.1655
18103TIP3    H175724   4.694   2.669  14.367  1.3330  1.4673 -0.9146
18103TIP3    H275725   4.673   2.574  14.252 -1.6123 -1.6075  1.9236
18104TIP3   OH275726   4.007   4.873  12.426  0.2883  0.0794  0.1890
18104TIP3    H175727   4.037   4.964  12.420  1.3740 -0.3130 -0.7207
18104TIP3    H275728   3.912   4.880  12.430  0.3492  1.2523  0.0342
18105TIP3   OH275729   3.682   0.246   3.542 -0.1940  0.0644  0.0889
18105TIP3    H175730   3.696   0.156   3.570 -1.4347  0.1337  1.0272
18105TIP3    H275731   3.738   0.298   3.601 -0.1121 -0.0430  0.1052
18106TIP3   OH275732   6.512   3.172   3.317 -0.0130  0.7321 -0.2951
18106TIP3    H175733   6.488   3.250   3.268 -0.7737  0.1809 -0.8201
18106TIP3    H275734   6.529   3.105   3.251  2.3369  0.8742  0.0649
18107TIP3   OH275735   3.710   4.397   5.162 -0.4240 -0.1006  0.2886
18107TIP3    H175736   3.778   4.455   5.197 -0.7393 -0.6130  1.8320
18107TIP3    H275737   3.743   4.309   5.179 -0.9007 -0.3624 -0.1279
18108TIP3   OH275738   5.360   6.544   3.246  0.8393  0.1202  0.4995
18108TIP3    H175739   5.306   6.570   3.171  0.7368 -0.8213  0.2420
18108TIP3    H275740   5.448   6.533   3.209  0.5022 -1.8165  0.1852
18109TIP3   OH275741   6.687   0.010   3.158 -0.0480  0.1739 -0.5171
18109TIP3    H175742   6.752   0.034   3.224  0.5152  0.4890 -1.1746
18109TIP3    H275743   6.696  -0.085   3.150 -0.5024  0.0539  0.2393
18110TIP3   OH275744   1.974   4.176  11.247 -0.1912  0.3442  0.4723
18110TIP3    H175745   2.046   4.163  11.308 -0.2014  2.9626  1.1520
18110TIP3    H275746   1.980   4.101  11.187  2.0754 -0.3636  1.4573
18111TIP3   OH275747   3.601   4.607   4.185 -0.1162  0.0513 -0.1105
18111TIP3    H175748   3.680   4.629   4.135  1.3918  2.2905  2.9551
18111TIP3    H275749   3.534   4.667   4.150  1.0024  1.8478  0.6876
18112TIP3   OH275750   6.120   4.281   1.867 -0.4201 -0.1370  0.1206
18112TIP3    H175751   6.155   4.253   1.952 -0.7940  1.6360  0.9067
18112TIP3    H275752   6.142   4.209   1.807  2.0284 -0.3832  1.1767
18113TIP3   OH275753   4.046   1.957  13.914  0.4149 -0.1740 -0.0211
18113TIP3    H175754   4.059   1.972  14.008  1.8190  0.5974 -0.3195
18113TIP3    H275755   4.116   1.896  13.889 -1.6277 -2.6881 -0.0464
18114TIP3   OH275756   1.700   5.702  14.546  0.2160  0.0580 -0.6032
18114TIP3    H175757   1.622   5.717  14.599 -0.0486 -0.2537 -0.9050
18114TIP3    H275758   1.773   5.725  14.604 -0.1226  1.3353 -0.6441
18115TIP3   OH275759   4.683   6.410  13.443  0.3355  0.2571 -0.3718
18115TIP3    H175760   4.636   6.327  13.445 -0.9081  0.9452 -0.0123
18115TIP3    H275761   4.620   6.472  13.409  1.3598  1.0027 -0.9613
18116TIP3   OH275762   3.259   1.192   2.650 -0.4840  0.5672 -0.7604
18116TIP3    H175763   3.271   1.098   2.637 -3.3138  0.3733 -2.9528
18116TIP3    H275764   3.267   1.204   2.745  3.2560 -1.2241 -0.6877
18117TIP3   OH275765   4.445   1.212  13.904 -1.0354 -0.2275 -0.4269
18117TIP3    H175766   4.359   1.220  13.863 -0.7388  0.4076 -0.9408
18117TIP3    H275767   4.463   1.118  13.905 -2.7382 -0.6131  1.8010
18118TIP3   OH275768   5.066   3.012   0.557  0.3720  0.2760 -0.4053
18118TIP3    H175769   5.085   2.918   0.564 -0.3111  0.1599 -0.0418
18118TIP3    H275770   5.025   3.022   0.471 -4.5905 -0.7007  1.5495
18119TIP3   OH275771   5.869   4.593   3.214 -0.0760  0.0960  0.1765
18119TIP3    H175772   5.801   4.625   3.155  0.4429  1.3393  0.1990
18119TIP3    H275773   5.833   4.514   3.253 -0.1962 -1.1461 -2.2525
18120TIP3   OH275774   6.420   2.263   1.202 -0.2039 -0.1699 -0.2684
18120TIP3    H175775   6.342   2.208   1.209 -0.0709 -0.3427 -0.1507
18120TIP3    H275776   6.492   2.207   1.230 -0.2032  0.4052  0.9616
18121TIP3   OH275777   5.427   6.503  16.934 -0.1026 -0.1915 -0.1709
18121TIP3    H175778   5.439   6.438  16.865  1.0022 -0.5955  0.3855
18121TIP3    H275779   5.501   6.563  16.924 -1.3185  1.2513 -0.9376
18122TIP3   OH275780   0.761   5.636  16.882  0.3888  0.3580 -0.1230
18122TIP3    H175781   0.684   5.578  16.887  1.3469 -1.0097 -0.5898
18122TIP3    H275782   0.749   5.685  16.801  0.4968 -0.6016 -0.7358
18123TIP3   OH275783   0.997   1.041   4.333  0.5251 -0.2286  0.4085
18123TIP3    H175784   0.976   1.075   4.246  1.2617  0.4471  0.4835
18123TIP3    H275785   1.001   0.946   4.322 -1.0930 -0.2893  0.0858
18124TIP3   OH275786   1.282   3.980   0.848  0.0589  0.3135 -0.5949
18124TIP3    H175787   1.301   4.073   0.837 -0.2218  0.8777  2.6447
18124TIP3    H275788   1.356   3.946   0.898 -0.2227 -1.0327 -1.0668
18125TIP3   OH275789   1.784   4.914   5.316  0.2249 -0.2816 -0.1166
18125TIP3    H175790   1.827   4.970   5.381  1.8609 -0.2991 -1.1326
18125TIP3    H275791   1.811   4.826   5.339  1.6724 -0.2148 -1.3566
18126TIP3   OH275792   0.312   4.013  11.005 -0.4415 -0.5897  0.6400
18126TIP3    H175793   0.343   4.050  11.088  3.0779 -1.4221 -0.1283
18126TIP3    H275794   0.311   4.087  10.945  0.2412 -0.5544  0.6615
18127TIP3   OH275795   4.106   2.172  16.324  0.1805 -0.5501  0.7108
18127TIP3    H175796   4.119   2.079  16.341 -0.5348 -0.6399  0.8245
18127TIP3    H275797   4.053   2.175  16.244 -0.2612 -0.2694  1.0019
18128TIP3   OH275798   6.288   5.911   1.270 -0.2738  0.2372 -0.3204
18128TIP3    H175799   6.242   5.827   1.264 -1.5216  0.9768 -1.7141
18128TIP3    H275800   6.297   5.926   1.364 -1.3501 -0.7756 -0.0256
18129TIP3   OH275801   3.690   0.298  11.115  0.1739  0.3655 -0.5439
18129TIP3    H175802   3.618   0.257  11.067 -0.5055 -0.1326  0.8578
18129TIP3    H275803   3.663   0.296  11.206  1.4082  1.3540 -0.1200
18130TIP3   OH275804   2.268   2.248  12.123 -0.9229  0.2685 -0.3831
18130TIP3    H175805   2.261   2.246  12.028  2.2449  0.0036 -0.7218
18130TIP3    H275806   2.178   2.256  12.154 -1.9978  0.9717 -3.3891
18131TIP3   OH275807   3.856   0.513  11.261 -0.0002  0.0559  0.0620
18131TIP3    H175808   3.817   0.480  11.342  1.5261 -2.4140 -0.1264
18131TIP3    H275809   3.798   0.481  11.192 -1.6073  2.6144  0.0852
18132TIP3   OH275810   4.359   5.745  13.678  0.7200 -0.4025  0.3879
18132TIP3    H175811   4.440   5.718  13.722  0.6918 -0.9681  0.1068
18132TIP3    H275812   4.293   5.747  13.747  0.9702  0.0462  0.6149
18133TIP3   OH275813   2.630   6.433  14.969  0.1753 -0.3877  0.2365
18133TIP3    H175814   2.559   6.489  14.999  0.3174 -0.5441  0.8828
18133TIP3    H275815   2.682   6.489  14.911  0.4124  0.2051  1.0082
18134TIP3   OH275816   0.022   1.543   5.216  0.0721  0.0992  0.5250
18134TIP3    H175817   0.108   1.583   5.224 -0.3055  0.8497  0.9821
18134TIP3    H275818  -0.023   1.595   5.150 -0.3918  0.3717  1.0527
18135TIP3   OH275819   0.413   4.000  14.177  0.0630  0.1005 -0.2794
18135TIP3    H175820   0.509   4.003  14.175  0.2199  1.6572  2.8000
18135TIP3    H275821   0.386   4.086  14.143  0.0005  1.0870  2.1083
18136TIP3   OH275822   5.430   2.552   2.532 -0.2486 -0.0347 -0.0620
18136TIP3    H175823   5.365   2.599   2.584 -0.3273  1.6600 -1.6219
18136TIP3    H275824   5.456   2.478   2.588 -1.1553  1.0525  1.8876
18137TIP3   OH275825   3.511   5.589  14.949 -0.3139  0.1455 -0.3278
18137TIP3    H175826   3.563   5.641  14.888  2.1571 -0.3379  1.2484
18137TIP3    H275827   3.530   5.626  15.035 -1.5928 -0.9015  0.4538
18138TIP3   OH275828   1.435   0.083  12.264 -0.0401  0.1335 -0.1338
18138TIP3    H175829   1.343   0.092  12.240 -0.1381  0.4023  0.3299
18138TIP3    H275830   1.443   0.131  12.346  0.9647  1.8692 -1.1819
18139TIP3   OH275831   1.172   6.271   3.458 -0.6479  0.8080 -0.6877
18139TIP3    H175832   1.183   6.193   3.512  2.3864  1.1909 -0.5544
18139TIP3    H275833   1.232   6.335   3.497  0.0796  1.7990 -3.2082
18140TIP3   OH275834   1.520   2.100  15.039 -0.2834 -0.1417  0.4957
18140TIP3    H175835   1.595   2.040  15.043 -0.1276 -0.1790 -1.5510
18140TIP3    H275836   1.449   2.047  15.003 -0.2699  0.7393 -0.9211
18141TIP3   OH275837   3.466   0.334  17.375 -0.4682 -0.0805 -0.0229
18141TIP3    H175838   3.515   0.416  17.370 -0.0254 -0.4099 -1.9555
18141TIP3    H275839   3.527   0.267  17.344 -1.1867 -0.9785  0.4392
18142TIP3   OH275840   4.620   3.673   2.142  0.2885  0.5997  0.7568
18142TIP3    H175841   4.695   3.676   2.201 -1.5524 -1.7276  3.4921
18142TIP3    H275842   4.622   3.585   2.103 -0.2481  1.0085 -0.2448
18143TIP3   OH275843   1.771   1.225  16.693 -0.4705 -0.3579  0.7997
18143TIP3    H175844   1.865   1.212  16.685 -0.2258  1.4998  0.1615
18143TIP3    H275845   1.732   1.160  16.634  0.5770  0.8467 -1.3146
18144TIP3   OH275846   4.160   2.480   3.826  0.4876  0.2488 -0.5015
18144TIP3    H175847   4.210   2.483   3.908  0.6270 -0.8200 -0.5332
18144TIP3    H275848   4.122   2.392   3.825  0.8020  0.1150 -1.7660
18145TIP3   OH275849   6.716   3.046  15.554 -0.2778 -0.1186 -0.0193
18145TIP3    H175850   6.651   3.085  15.612  0.1805 -0.3781  0.6819
18145TIP3    H275851   6.705   3.092  15.471 -1.9161 -0.7153 -0.1843
18146TIP3   OH275852   4.995   4.036  13.980  0.2168 -0.2221 -0.4599
18146TIP3    H175853   4.991   4.029  13.884 -1.3262 -0.5110 -0.3975
18146TIP3    H275854   4.941   3.964  14.011  0.6897 -0.1119  0.6416
18147TIP3   OH275855   1.252   1.462  15.405 -0.1230  0.2230  0.0626
18147TIP3    H175856   1.183   1.454  15.471 -0.0659  3.3087  0.6384
18147TIP3    H275857   1.319   1.515  15.448  1.0720  0.1911 -1.6765
18148TIP3   OH275858   2.355   5.438  13.615  0.1282 -0.0021  0.1713
18148TIP3    H175859   2.357   5.528  13.648 -1.1977 -0.4561  1.5793
18148TIP3    H275860   2.392   5.445  13.527  2.1795  1.5395  1.0438
18149TIP3   OH275861   0.374   2.410   1.860  0.1468 -0.0034 -0.2965
18149TIP3    H175862   0.463   2.444   1.860 -0.4144  1.5745  0.0301
18149TIP3    H275863   0.344   2.424   1.770  0.0577 -0.0348 -0.2715
18150TIP3   OH275864   2.704   6.275   4.826 -0.3021  0.1794 -0.1255
18150TIP3    H175865   2.730   6.248   4.738 -0.3612  3.2439 -1.2126
18150TIP3    H275866   2.787   6.288   4.873 -0.1994  0.2291 -0.3186
18151TIP3   OH275867   5.992   0.442  16.822  0.1573 -0.0756  0.3233
18151TIP3    H175868   5.979   0.530  16.786  1.2089  0.1889  0.5599
18151TIP3    H275869   6.081   0.418  16.797 -0.4619 -1.5172 -0.6410
18152TIP3   OH275870   6.105   2.497   3.688  0.1426  0.3373 -0.3552
18152TIP3    H175871   6.199   2.480   3.677 -0.2790 -1.7000 -1.2488
18152TIP3    H275872   6.063   2.444   3.620 -1.6126  2.3649 -0.9443
18153TIP3   OH275873   2.896   3.321  14.912 -0.0020 -0.0045  0.0263
18153TIP3    H175874   2.924   3.236  14.947 -0.6194 -1.5267 -2.8582
18153TIP3    H275875   2.807   3.332  14.945  1.3509  1.5396  3.6004
18154TIP3   OH275876   5.685   0.034  14.825  0.0666  0.2816  0.4646
18154TIP3    H175877   5.725   0.105  14.874 -1.2182  0.4874  1.2386
18154TIP3    H275878   5.591   0.045  14.837 -0.2351 -0.4802 -0.9102
18155TIP3   OH275879   5.373   1.369  12.583  0.3267 -0.1119 -0.0944
18155TIP3    H175880   5.332   1.418  12.654 -1.2286 -1.2604 -0.1385
18155TIP3    H275881   5.316   1.383  12.508 -0.2228 -1.9811 -0.0869
18156TIP3   OH275882   6.431   3.437  14.888 -0.1951  0.2415 -0.1588
18156TIP3    H175883   6.387   3.366  14.841 -1.5689 -0.5384  2.1430
18156TIP3    H275884   6.521   3.407  14.899 -1.0570 -1.8698  1.9541
18157TIP3   OH275885   1.599   0.191  15.377  0.0868 -0.0610 -0.7558
18157TIP3    H175886   1.556   0.105  15.370  0.4898 -0.1923 -1.7919
18157TIP3    H275887   1.564   0.241  15.304  0.6994  0.2798 -0.8205
18158TIP3   OH275888   2.374   4.740  14.075  0.3993  0.1167 -0.0113
18158TIP3    H175889   2.297   4.709  14.122 -0.6091 -0.5677 -2.0303
18158TIP3    H275890   2.385   4.831  14.105 -0.8963  0.0688  0.6594
18159TIP3   OH275891   1.115   3.444   4.192 -0.3574 -0.1945  0.3035
18159TIP3    H175892   1.086   3.484   4.110 -0.1890 -1.1346 -0.2343
18159TIP3    H275893   1.057   3.369   4.204 -0.1401 -0.2837  0.8493
18160TIP3   OH275894   5.905   4.800   3.448  0.3838  0.1528  0.2277
18160TIP3    H175895   5.868   4.746   3.377 -1.9671 -0.5019  1.8253
18160TIP3    H275896   5.992   4.824   3.417 -0.3571 -0.4984 -2.6704
18161TIP3   OH275897   1.684   3.109  13.100 -0.4287  0.5262 -0.3305
18161TIP3    H175898   1.659   3.181  13.158 -0.4704  0.4726 -0.2823
18161TIP3    H275899   1.680   3.031  13.156 -0.6705  0.4456 -0.4554
18162TIP3   OH275900   4.235   0.597   0.001  0.1010 -0.3243 -0.2419
18162TIP3    H175901   4.204   0.676   0.047 -1.2521 -0.1559 -1.3859
18162TIP3    H275902   4.289   0.630  -0.070 -0.3036 -0.4374 -0.6028
18163TIP3   OH275903   2.204   1.365  10.037  0.0447 -0.2026  0.3439
18163TIP3    H175904   2.222   1.458  10.052  2.5889 -0.4220 -0.8088
18163TIP3    H275905   2.280   1.319  10.075 -1.4058 -1.8889  1.3676
18164TIP3   OH275906   0.708   5.738   5.330 -0.5843 -0.7129  0.3494
18164TIP3    H175907   0.698   5.648   5.360 -1.7938 -0.7135 -0.0142
18164TIP3    H275908   0.636   5.785   5.371 -0.2682 -0.0152  0.1191
18165TIP3   OH275909   0.244   5.413   4.485  0.1398 -0.2669  0.3210
18165TIP3    H175910   0.272   5.473   4.416  0.3536 -0.8907 -0.1379
18165TIP3    H275911   0.175   5.360   4.445 -1.5259  1.0146  1.3323
18166TIP3   OH275912   2.668   0.787  15.581  0.1858 -0.5320  0.0600
18166TIP3    H175913   2.599   0.841  15.543 -1.6027 -1.6725  1.5250
18166TIP3    H275914   2.743   0.846  15.588 -0.8928  1.0104 -0.7478
18167TIP3   OH275915   0.547   5.540   2.565 -0.3831 -0.5861 -0.1168
18167TIP3    H175916   0.628   5.492   2.584 -0.3016 -1.1124 -1.6727
18167TIP3    H275917   0.477   5.478   2.581 -0.4699 -0.2954  0.7026
18168TIP3   OH275918   1.887   6.197  15.282  0.2339  0.0191 -0.3090
18168TIP3    H175919   1.874   6.291  15.293  1.6230  0.2071 -0.0403
18168TIP3    H275920   1.807   6.166  15.239 -0.1185  1.3688 -0.6599
18169TIP3   OH275921   3.195   1.820   4.823  0.3667 -0.0780 -0.4055
18169TIP3    H175922   3.142   1.854   4.895  1.1784  1.3575 -0.4422
18169TIP3    H275923   3.204   1.726   4.842 -1.2417 -0.1407  0.1687
18170TIP3   OH275924   5.003   3.383   5.568  0.8007 -0.2427  0.0277
18170TIP3    H175925   5.044   3.435   5.499 -0.9655  0.1325 -0.7970
18170TIP3    H275926   4.913   3.371   5.538  0.2538 -0.8976  1.8278
18171TIP3   OH275927   4.734   5.629   0.053 -0.6343 -0.2789 -0.0963
18171TIP3    H175928   4.733   5.724   0.058 -0.2016 -0.3240  1.2005
18171TIP3    H275929   4.647   5.605   0.019 -0.9505  0.5448  0.1194
18172TIP3   OH275930   1.297   4.619  10.538  0.3213 -0.0380 -0.0019
18172TIP3    H175931   1.251   4.619  10.622  0.4805 -0.4955  0.0843
18172TIP3    H275932   1.296   4.711  10.511  1.1902  0.2862  1.0011
18173TIP3   OH275933   1.700   6.404   3.815  0.4563 -0.2440 -0.5222
18173TIP3    H175934   1.700   6.495   3.843 -1.1282 -0.2338 -0.4703
18173TIP3    H275935   1.771   6.398   3.751  1.2103  0.7772  0.1824
18174TIP3   OH275936   3.200   5.789  12.309  0.0244 -0.4694  0.5253
18174TIP3    H175937   3.239   5.731  12.243 -1.1435 -0.6905  0.0004
18174TIP3    H275938   3.192   5.873  12.265  1.4537  0.0472  1.1957
18175TIP3   OH275939   1.561   5.234   1.880  0.2002  0.3107 -0.0916
18175TIP3    H175940   1.652   5.243   1.907  0.2273  0.3258 -0.1876
18175TIP3    H275941   1.548   5.140   1.870 -0.2331  0.1754  1.4298
18176TIP3   OH275942   6.734   1.808  13.733  0.0574  0.8107  0.6583
18176TIP3    H175943   6.751   1.877  13.797 -1.5527  1.2584  0.6521
18176TIP3    H275944   6.765   1.844  13.650 -0.2309  1.3082  0.7597
18177TIP3   OH275945   3.187   4.117   1.419 -0.1826 -0.3333 -0.1577
18177TIP3    H175946   3.256   4.055   1.443 -0.0088  0.5204  1.6809
18177TIP3    H275947   3.229   4.202   1.425 -0.8571  0.0792 -1.0929
18178TIP3   OH275948   2.146   5.336  11.981 -0.3253  0.2193  0.0929
18178TIP3    H175949   2.099   5.262  12.020 -1.1675  0.6704 -0.0421
18178TIP3    H275950   2.158   5.397  12.054 -0.0055  0.1401  0.1084
18179TIP3   OH275951   1.676   5.788   1.991  0.4657  0.0622  0.2130
18179TIP3    H175952   1.591   5.801   2.033  0.0161 -0.6725 -0.4457
18179TIP3    H275953   1.661   5.717   1.929  1.5623 -0.0541  0.0742
18180TIP3   OH275954   4.283   3.742   0.221  0.5802 -0.4243  0.4233
18180TIP3    H175955   4.253   3.725   0.310  0.2055 -0.9987  0.1909
18180TIP3    H275956   4.377   3.761   0.231  0.0790  2.0522  1.2344
18181TIP3   OH275957   1.908   2.191   1.195 -0.0259  0.5080 -0.5966
18181TIP3    H175958   1.839   2.186   1.261 -0.3288 -0.4843 -0.9675
18181TIP3    H275959   1.890   2.271   1.147 -2.1247 -0.6985 -1.9663
18182TIP3   OH275960   3.468   0.534   3.242  0.5011  0.0993 -0.7004
18182TIP3    H175961   3.394   0.535   3.181 -0.9604  0.2868  0.9803
18182TIP3    H275962   3.428   0.522   3.328  2.5546 -1.1152  0.1557
18183TIP3   OH275963   4.645   4.985  12.826  0.0191 -0.1201 -0.1296
18183TIP3    H175964   4.648   4.965  12.733  1.6893  1.7925 -0.5498
18183TIP3    H275965   4.552   4.996  12.845 -0.3267 -0.2490 -1.6457
18184TIP3   OH275966   1.080   4.335   2.795  0.5919 -0.5020  0.3179
18184TIP3    H175967   1.165   4.297   2.772 -0.0758 -1.7109 -0.2277
18184TIP3    H275968   1.064   4.306   2.885  0.7162 -0.3456  0.3906
18185TIP3   OH275969   3.285   5.761   5.499  0.1117 -0.0446 -0.2699
18185TIP3    H175970   3.297   5.849   5.464 -0.6241  1.1232  2.1264
18185TIP3    H275971   3.196   5.737   5.474  0.2088  0.0364 -0.6861
18186TIP3   OH275972   4.221   5.854   1.874  0.6129  0.9222  0.3021
18186TIP3    H175973   4.211   5.928   1.815 -0.1491  0.5391 -0.0785
18186TIP3    H275974   4.193   5.887   1.959 -0.2616  0.9289  0.0204
18187TIP3   OH275975   1.414   1.050   3.226 -0.0042  0.4011 -0.0207
18187TIP3    H175976   1.355   1.075   3.155  0.5128  0.8446 -0.3044
18187TIP3    H275977   1.501   1.071   3.193  0.2438  0.6120  0.7467
18188TIP3   OH275978   5.791   1.524   3.588  0.6532  0.4420 -0.4835
18188TIP3    H175979   5.772   1.606   3.634  0.8988  1.1171 -1.5617
18188TIP3    H275980   5.743   1.457   3.638  1.6012  0.9987  1.2681
18189TIP3   OH275981   4.918   4.138  14.644  0.0188 -0.2134 -0.0462
18189TIP3    H175982   4.963   4.178  14.718 -0.0323 -0.1037 -0.0747
18189TIP3    H275983   4.833   4.112  14.679  0.3575 -1.0471  0.1915
18190TIP3   OH275984   2.569   4.921  14.393 -0.3297 -0.2832  0.1735
18190TIP3    H175985   2.611   4.983  14.452 -0.5218  0.8339 -0.8379
18190TIP3    H275986   2.475   4.932  14.407 -0.4040  0.5911 -0.9189
18191TIP3   OH275987   5.736   1.505   4.119  0.3491  0.4011 -0.3147
18191TIP3    H175988   5.671   1.574   4.134  0.3224  0.4029 -0.4397
18191TIP3    H275989   5.815   1.551   4.091  1.0109  0.5665  1.6803
18192TIP3   OH275990   5.974   2.142  11.558 -0.4946 -0.9391  0.4720
18192TIP3    H175991   5.980   2.186  11.643  0.0016 -2.8119  1.4752
18192TIP3    H275992   5.945   2.053  11.580  0.9694 -1.8829 -1.1525
18193TIP3   OH275993   3.220   2.288   3.563  0.4334 -0.3201 -0.6818
18193TIP3    H175994   3.194   2.348   3.493 -0.9737 -0.4599 -0.3018
18193TIP3    H275995   3.279   2.339   3.618  1.0855 -0.0276 -1.6363
18194TIP3   OH275996   6.496   5.696   2.289  0.2413 -0.2428  0.3885
18194TIP3    H175997   6.558   5.729   2.224 -0.5898  0.5591 -0.0205
18194TIP3    H275998   6.519   5.603   2.298 -0.8084 -0.9200 -2.5567
18195TIP3   OH275999   5.613   4.535  15.870 -0.2240  0.7452 -0.3173
18195TIP3    H176000   5.631   4.542  15.963 -1.9386  0.5170  0.0547
18195TIP3    H276001   5.526   4.571  15.859 -0.1378  0.5712 -1.8053
18196TIP3   OH276002   1.449   1.739   5.499 -0.0486 -0.5509 -0.2748
18196TIP3    H176003   1.519   1.749   5.563  0.0910 -0.2745 -0.4689
18196TIP3    H276004   1.371   1.722   5.552 -0.2185  1.1311  0.0744
18197TIP3   OH276005   1.425   0.844   0.953  0.0881 -0.4441 -0.6497
18197TIP3    H176006   1.391   0.754   0.960  1.3088 -0.8483  0.5519
18197TIP3    H276007   1.483   0.841   0.878  0.3349 -0.7386 -0.4498
18198TIP3   OH276008   0.552   4.660   3.767  0.3481 -0.6152  0.1542
18198TIP3    H176009   0.489   4.648   3.697  0.0723 -0.0420  0.3021
18198TIP3    H276010   0.631   4.615   3.736 -0.4543 -2.3131  0.4488
18199TIP3   OH276011   4.371   1.047  12.873 -0.8245  0.3274 -0.6344
18199TIP3    H176012   4.423   0.968  12.884 -0.3426  0.4904 -1.6547
18199TIP3    H276013   4.380   1.093  12.956 -1.0334 -0.6298 -0.0650
18200TIP3   OH276014   3.088   0.169   0.428 -0.0434  0.3098  0.3921
18200TIP3    H176015   3.022   0.229   0.394 -0.9628 -0.6564  0.4303
18200TIP3    H276016   3.166   0.224   0.441 -0.7267  1.3940  0.0294
18201TIP3   OH276017   1.319   2.251   0.553  0.2101  0.0367  1.1191
18201TIP3    H176018   1.258   2.281   0.485 -1.1012 -1.4448  1.5743
18201TIP3    H276019   1.390   2.210   0.504  0.6990  1.4385  0.5910
18202TIP3   OH276020   6.618   1.413  11.077 -0.1320 -0.5338  0.0941
18202TIP3    H176021   6.538   1.465  11.062 -0.1630 -0.4040  0.6802
18202TIP3    H276022   6.684   1.456  11.023 -0.2830 -0.1964  0.1715
18203TIP3   OH276023   5.574   1.997   4.902  0.4781  0.2621  0.1455
18203TIP3    H176024   5.638   2.060   4.871  0.8548 -0.7012 -1.1201
18203TIP3    H276025   5.600   1.914   4.862 -0.8333 -0.4055  0.5998
18204TIP3   OH276026   3.682   4.879   1.647  0.1906 -0.7267 -0.3008
18204TIP3    H176027   3.735   4.935   1.590 -1.0490  0.4979 -0.3083
18204TIP3    H276028   3.593   4.889   1.614 -0.2560 -1.5923  0.6089
18205TIP3   OH276029   2.317   2.678   2.321  0.5391 -0.3918 -0.1648
18205TIP3    H176030   2.232   2.677   2.277  0.5599 -1.2418 -0.2011
18205TIP3    H276031   2.348   2.768   2.311 -0.2017 -0.1595 -0.4453
18206TIP3   OH276032   1.383   0.017   2.515  0.0427 -0.0314  0.0566
18206TIP3    H176033   1.307   0.046   2.464  0.3293 -1.1744 -1.0693
18206TIP3    H276034   1.346  -0.039   2.584 -0.7312  4.1538  3.4406
18207TIP3   OH276035   4.761   1.335  15.900 -0.1241  0.2748 -0.1829
18207TIP3    H176036   4.830   1.269  15.911 -2.1471 -2.0445 -0.4300
18207TIP3    H276037   4.700   1.295  15.838 -2.5078  1.4684  1.2377
18208TIP3   OH276038   1.914   6.388  17.288 -0.5264  0.1490  0.1578
18208TIP3    H176039   1.919   6.457  17.354 -2.0478  1.1688 -0.7357
18208TIP3    H276040   1.868   6.317  17.332  1.5857 -0.6272  1.2831
18209TIP3   OH276041   5.583   0.892   5.698  0.4913 -0.2113 -0.2762
18209TIP3    H176042   5.562   0.952   5.769  0.6931  0.7722 -1.0262
18209TIP3    H276043   5.653   0.936   5.649  2.0580 -1.9301  0.2776
18210TIP3   OH276044   5.785   5.815  16.086 -0.4575 -0.1359 -0.2564
18210TIP3    H176045   5.860   5.782  16.036 -0.9922 -1.3825 -0.2699
18210TIP3    H276046   5.713   5.815  16.024 -1.5685 -3.3934  0.8330
18211TIP3   OH276047   4.431   1.906  16.701 -0.4192  0.2383 -0.8609
18211TIP3    H176048   4.526   1.911  16.689 -0.4003  0.7873 -0.5279
18211TIP3    H276049   4.395   1.924  16.614 -0.2481  1.9333 -0.5995
18212TIP3   OH276050   4.148   4.125  10.286  0.0578 -0.0771  0.8511
18212TIP3    H176051   4.115   4.036  10.276  0.5877 -0.2596  0.6825
18212TIP3    H276052   4.092   4.178  10.231  1.4333 -0.7069 -1.2642
18213TIP3   OH276053   3.458   5.209  11.070 -0.4824 -0.3552 -0.3046
18213TIP3    H176054   3.456   5.138  11.005  1.5241  0.6712 -1.5701
18213TIP3    H276055   3.413   5.173  11.146  0.2237 -2.8964 -1.0003
18214TIP3   OH276056   1.427   2.997   3.603  0.0915 -0.0534 -0.6695
18214TIP3    H176057   1.517   3.029   3.604  0.5370 -1.2342  0.4389
18214TIP3    H276058   1.423   2.939   3.527  0.2839 -0.0433 -0.6876
18215TIP3   OH276059   3.689   3.451  12.169  0.0280  0.0040 -0.5037
18215TIP3    H176060   3.729   3.480  12.251  2.1714  0.4376 -1.6348
18215TIP3    H276061   3.696   3.355  12.172  1.4314  0.0705 -0.7566
18216TIP3   OH276062   3.348   3.038   0.104 -0.1632 -0.4838  0.0007
18216TIP3    H176063   3.409   3.018   0.175 -0.4017  1.3674  0.7875
18216TIP3    H276064   3.262   3.033   0.146 -0.5574 -2.4861 -0.9541
18217TIP3   OH276065   4.280   3.276   6.065 -0.5810  0.1132  0.0239
18217TIP3    H176066   4.185   3.283   6.062 -0.6456 -0.0820  1.1509
18217TIP3    H276067   4.309   3.354   6.113 -0.1951  0.0911 -0.1723
18218TIP3   OH276068   6.549   2.068  14.967  0.0856 -0.4309 -0.3377
18218TIP3    H176069   6.551   2.134  14.898 -0.0202  1.7835  1.6503
18218TIP3    H276070   6.602   2.105  15.038  1.1073 -3.0926  0.4220
18219TIP3   OH276071   1.436   6.395  17.304  0.2442 -0.2087 -0.3993
18219TIP3    H176072   1.508   6.455  17.325  1.1951 -0.5756 -2.3337
18219TIP3    H276073   1.357   6.443  17.327  0.9980  1.5876 -1.3567
18220TIP3   OH276074   0.736   6.660  15.857  0.1753 -0.2436  0.4679
18220TIP3    H176075   0.672   6.588  15.857 -1.6773  1.3211  1.1830
18220TIP3    H276076   0.802   6.633  15.921 -0.8523 -1.0000  1.2485
18221TIP3   OH276077   2.699   3.537  17.408  0.1503 -0.0409  0.0307
18221TIP3    H176078   2.666   3.461  17.359  0.9511 -0.1695 -0.3287
18221TIP3    H276079   2.667   3.613  17.359  0.6858 -0.1675 -0.5345
18222TIP3   OH276080   5.104   5.925  13.821 -0.5470 -0.0676 -0.8004
18222TIP3    H176081   5.051   5.845  13.829 -1.0635  0.3370 -0.0891
18222TIP3    H276082   5.164   5.906  13.749  0.3587 -1.6773  0.3143
18223TIP3   OH276083   1.070   5.953   3.442  0.2088 -0.2317 -0.4870
18223TIP3    H176084   1.018   6.031   3.423 -0.8067 -1.0164 -1.0231
18223TIP3    H276085   1.034   5.920   3.524  2.0647  1.0152  0.9350
18224TIP3   OH276086   3.961   0.319  15.091 -0.0833  0.0020  0.4170
18224TIP3    H176087   3.914   0.331  15.173 -0.6147  0.0574  0.1107
18224TIP3    H276088   3.892   0.299  15.027  0.2721  0.4747 -0.1152
18225TIP3   OH276089   0.923   6.393  14.053  0.4945  0.0711  0.1352
18225TIP3    H176090   0.886   6.345  14.127 -0.6061 -0.5732 -0.7964
18225TIP3    H276091   0.891   6.483  14.064  0.9216  0.1424  0.8177
18226TIP3   OH276092   4.084   4.797   5.822 -0.0459  0.0569 -0.7369
18226TIP3    H176093   4.158   4.750   5.859  0.5111  1.4332 -0.0584
18226TIP3    H276094   4.055   4.741   5.749 -0.8264 -2.4397  1.3414
18227TIP3   OH276095   6.215   3.491  14.247  0.2671  0.1362  0.6311
18227TIP3    H176096   6.280   3.474  14.316 -0.2522 -0.2530  1.0365
18227TIP3    H276097   6.266   3.490  14.166  0.7602 -0.2546  0.9337
18228TIP3   OH276098   0.680   5.556  15.735 -0.1013  0.1738  0.3521
18228TIP3    H176099   0.610   5.518  15.681  0.5633 -0.8862  0.2053
18228TIP3    H276100   0.648   5.643  15.757 -0.4376  0.6138 -1.6642
18229TIP3   OH276101   0.594   1.564   5.384  0.1946  0.6715  0.2442
18229TIP3    H176102   0.559   1.484   5.345 -1.2062  1.0642  0.6195
18229TIP3    H276103   0.627   1.536   5.470 -0.6119  0.5370  0.5239
18230TIP3   OH276104   1.931   4.405  12.448  0.7115 -0.3854  0.4074
18230TIP3    H176105   1.870   4.375  12.380  0.8320 -0.5207  0.3582
18230TIP3    H276106   2.013   4.419  12.401  0.7059 -0.1572  0.4652
18231TIP3   OH276107   4.832   1.219   0.158 -0.3821 -0.6972 -0.3631
18231TIP3    H176108   4.894   1.147   0.144 -1.4658 -1.7125 -0.0667
18231TIP3    H276109   4.850   1.249   0.247  0.9679  0.3286 -0.9313
18232TIP3   OH276110   6.042   3.296  12.464  0.3134 -0.9351  0.4874
18232TIP3    H176111   6.079   3.293  12.552 -0.0751 -2.2734  0.6194
18232TIP3    H276112   6.088   3.368  12.421  2.4772 -2.0011  0.9047
18233TIP3   OH276113   4.604   3.741  11.055 -0.0378  0.2597  0.0366
18233TIP3    H176114   4.578   3.759  10.965 -2.3362  0.2936  0.6415
18233TIP3    H276115   4.570   3.815  11.106  1.8265  0.5999  0.8874
18234TIP3   OH276116   0.813   4.446   2.328 -0.3160  0.8284  0.5015
18234TIP3    H176117   0.732   4.410   2.290  0.3405  0.7330 -0.8836
18234TIP3    H276118   0.802   4.541   2.322 -0.0899  0.8162 -0.2644
18235TIP3   OH276119   0.361   4.860   1.234 -0.1036 -0.3936  0.4106
18235TIP3    H176120   0.306   4.782   1.242  0.0341 -0.3708  1.7266
18235TIP3    H276121   0.425   4.852   1.305 -0.5038  1.2393  1.0026
18236TIP3   OH276122   6.648   0.351   5.003  0.1322 -0.0441  0.2222
18236TIP3    H176123   6.650   0.394   4.917  0.3108  1.6891  1.0661
18236TIP3    H276124   6.729   0.301   5.007 -0.2683 -0.8364 -0.9386
18237TIP3   OH276125   0.774   1.273  16.348 -0.5055 -1.1757 -0.4637
18237TIP3    H176126   0.766   1.284  16.253  1.4232  0.5134 -0.4972
18237TIP3    H276127   0.709   1.332  16.385  0.6397  0.3066 -0.7519
18238TIP3   OH276128   0.172   5.668  16.954 -0.4184 -0.6100  0.0589
18238TIP3    H176129   0.225   5.602  16.907  1.5615  0.3861  0.7748
18238TIP3    H276130   0.215   5.676  17.039  0.0801  2.3274 -0.3635
18239TIP3   OH276131   2.084   3.658  13.261 -0.4750  0.2977 -0.1647
18239TIP3    H176132   2.149   3.609  13.210 -1.0012 -0.7699  0.1496
18239TIP3    H276133   2.043   3.716  13.198 -0.7659 -0.6475 -0.8765
18240TIP3   OH276134   2.865   3.493  16.205  0.2390  0.2870 -0.1992
18240TIP3    H176135   2.908   3.579  16.197 -1.0822  0.9274 -0.8172
18240TIP3    H276136   2.846   3.468  16.114 -0.5220 -0.0563  0.0476
18241TIP3   OH276137   5.951   3.892  14.871  0.1857 -0.0764 -0.1782
18241TIP3    H176138   5.921   3.911  14.782 -1.1400  0.9195  0.4422
18241TIP3    H276139   5.893   3.821  14.900  0.6782 -0.4621 -0.1349
18242TIP3   OH276140   5.086   4.174  11.815 -0.9302  0.3472  0.2987
18242TIP3    H176141   5.052   4.247  11.866 -0.5874  1.3442 -0.8746
18242TIP3    H276142   5.168   4.206  11.778 -0.0583 -1.1081  0.8735
18243TIP3   OH276143   4.988   3.185  13.421  0.2346  0.2171 -0.5699
18243TIP3    H176144   5.007   3.116  13.485  0.1093  0.2760 -0.4677
18243TIP3    H276145   4.951   3.256  13.474  0.0087  0.2161 -0.7250
18244TIP3   OH276146   1.225   0.757  15.609 -0.0211  0.4994  0.1739
18244TIP3    H176147   1.182   0.785  15.690 -0.8065  2.4472 -0.8197
18244TIP3    H276148   1.160   0.702  15.565 -0.8134  1.8652 -0.4383
18245TIP3   OH276149   5.464   0.708  14.568 -0.2602  0.6299 -0.4197
18245TIP3    H176150   5.398   0.758  14.616 -0.9480  1.0223 -1.7332
18245TIP3    H276151   5.423   0.624  14.550  0.5198 -0.0647  0.8755
18246TIP3   OH276152   1.283   2.191  16.288  0.1473 -0.1541 -0.2221
18246TIP3    H176153   1.245   2.189  16.376 -2.1953 -2.0673 -1.1524
18246TIP3    H276154   1.240   2.120  16.241  3.2210 -0.9256 -2.2162
18247TIP3   OH276155   2.524   6.428   4.240  0.6027 -0.0403  0.5149
18247TIP3    H176156   2.550   6.366   4.308 -0.4767 -2.0690 -0.8398
18247TIP3    H276157   2.569   6.398   4.161  0.4123  1.1872 -0.0930
18248TIP3   OH276158   6.051   1.703   4.722  0.1027 -0.1871 -0.1699
18248TIP3    H176159   6.132   1.731   4.679 -0.4904 -1.6965 -2.4307
18248TIP3    H276160   6.009   1.785   4.750  2.5991  0.6064  1.5503
18249TIP3   OH276161   0.615   5.190   4.656  0.2827 -0.3404  0.1076
18249TIP3    H176162   0.589   5.122   4.718  0.4646 -0.8737 -0.3947
18249TIP3    H276163   0.539   5.203   4.600  1.1292 -2.1447 -1.5804
18250TIP3   OH276164   5.615   6.156  15.699  0.1891  0.3551 -0.0676
18250TIP3    H176165   5.700   6.167  15.655 -1.0782  0.5322 -2.6881
18250TIP3    H276166   5.567   6.094  15.643 -0.9457 -0.8720  2.1275
18251TIP3   OH276167   0.237   5.276  11.782  0.4780 -0.3301  0.1628
18251TIP3    H176168   0.250   5.357  11.734 -0.5406 -0.1681  0.1414
18251TIP3    H276169   0.233   5.208  11.715  1.6092 -0.4469  0.1984
18252TIP3   OH276170   1.510   0.688  11.107  0.0561  0.1251 -0.3814
18252TIP3    H176171   1.533   0.733  11.188 -1.1470  1.0987 -0.5467
18252TIP3    H276172   1.555   0.736  11.038  0.3957 -0.1837 -0.3802
18253TIP3   OH276173   5.561   3.368  12.268 -0.2918  0.2709  0.1473
18253TIP3    H176174   5.606   3.363  12.184  0.4760  0.8026  0.5081
18253TIP3    H276175   5.555   3.277  12.298  0.5798  0.1817  0.0921
18254TIP3   OH276176   6.371   3.187  11.125 -0.1436  0.5166  0.6195
18254TIP3    H176177   6.383   3.105  11.077  1.3064  0.9009  0.2769
18254TIP3    H276178   6.342   3.249  11.059  0.5262  0.7118  0.5008
18255TIP3   OH276179   5.944   0.120  12.271 -1.1620  0.2737 -0.2790
18255TIP3    H176180   5.957   0.099  12.179 -1.8436  0.6326 -0.4725
18255TIP3    H276181   5.894   0.046  12.306  0.1837 -0.4707  0.1320
18256TIP3   OH276182   1.503   4.183   1.490 -0.1093  0.3981  0.1649
18256TIP3    H176183   1.527   4.142   1.406  0.1000  2.8442 -1.0483
18256TIP3    H276184   1.449   4.116   1.533 -0.3845 -0.9005 -1.9911
18257TIP3   OH276185   1.884   6.131   0.818  0.0740 -0.0805 -0.4863
18257TIP3    H176186   1.823   6.194   0.855 -1.4009 -0.1402 -2.6221
18257TIP3    H276187   1.958   6.183   0.788 -0.3509  0.4172 -0.6823
18258TIP3   OH276188   1.309   3.461  15.598  0.1548 -0.0100  0.2941
18258TIP3    H176189   1.352   3.384  15.638 -0.0307  0.0148  0.5429
18258TIP3    H276190   1.349   3.536  15.642  1.0706  0.0845 -0.6631
18259TIP3   OH276191   1.097   1.403   2.136 -0.2902  0.4617 -0.2635
18259TIP3    H176192   1.185   1.407   2.172 -0.5284 -0.3433  0.4300
18259TIP3    H276193   1.110   1.373   2.046  0.0878 -0.6726  0.1470
18260TIP3   OH276194   2.508   3.277  16.502  0.2501 -0.8719 -0.1768
18260TIP3    H176195   2.581   3.270  16.441  0.6965 -0.9367  0.3672
18260TIP3    H276196   2.523   3.359  16.549 -0.0234 -0.8875 -0.0597
18261TIP3   OH276197   2.675   6.452  12.297 -0.4153  0.0040 -0.2217
18261TIP3    H176198   2.634   6.536  12.318 -0.0485  0.0230  0.4591
18261TIP3    H276199   2.660   6.399  12.376  1.7211  0.3391  0.4674
18262TIP3   OH276200   1.880   0.411  14.827  0.1007  0.3139  0.2240
18262TIP3    H176201   1.804   0.463  14.853  0.4396  1.3420 -0.8102
18262TIP3    H276202   1.850   0.360  14.752  0.2254  0.1476  0.2835
18263TIP3   OH276203   6.604   2.542   1.479  0.2001  0.3699 -0.2350
18263TIP3    H176204   6.543   2.597   1.431 -1.1980  0.3398  1.4112
18263TIP3    H276205   6.664   2.603   1.523  1.7509  0.3878 -2.2556
18264TIP3   OH276206   2.984   1.393  16.985  0.2371  0.0470 -0.1441
18264TIP3    H176207   2.972   1.487  16.972  2.2762  0.1144 -2.3665
18264TIP3    H276208   3.074   1.384  17.015  0.5815 -1.2509 -1.4619
18265TIP3   OH276209   6.671   4.586  12.273  0.5188  0.3264  0.1866
18265TIP3    H176210   6.765   4.578  12.253  0.0874 -0.9903 -1.5676
18265TIP3    H276211   6.657   4.526  12.346  0.8875 -0.1347 -0.1141
18266TIP3   OH276212   5.085   3.515   1.437 -0.9496  0.6087  0.0831
18266TIP3    H176213   5.165   3.514   1.490 -1.6006  2.9329  1.2819
18266TIP3    H276214   5.115   3.499   1.348  0.7898  0.8883  0.5795
18267TIP3   OH276215   5.098   5.322  12.088 -0.2631  0.1721 -0.5418
18267TIP3    H176216   5.127   5.335  12.178 -0.0759  0.6979 -0.6734
18267TIP3    H276217   5.128   5.234  12.065  0.8000  0.5195 -0.5124
18268TIP3   OH276218   4.778   6.302   2.897 -0.1536  0.2170  0.4545
18268TIP3    H176219   4.821   6.240   2.956 -0.4690  0.2690  0.7468
18268TIP3    H276220   4.757   6.251   2.820  2.5553  0.7304 -0.7394
18269TIP3   OH276221   3.541   2.064  11.837  0.1282 -0.1954  0.2021
18269TIP3    H176222   3.537   2.087  11.744  0.4161 -0.8991  0.0139
18269TIP3    H276223   3.540   2.148  11.882  1.1197  0.2007 -0.4757
18270TIP3   OH276224   2.680   5.241   5.367 -0.8593 -0.5706  0.3972
18270TIP3    H176225   2.610   5.192   5.324  0.5615 -1.7694 -0.6783
18270TIP3    H276226   2.754   5.233   5.307  0.2139  0.6175  1.5153
18271TIP3   OH276227   0.897   4.909   4.660  0.0049  0.1459 -0.4545
18271TIP3    H176228   0.864   4.873   4.577 -0.2210 -0.7695  0.0174
18271TIP3    H276229   0.987   4.877   4.665  0.1837  0.6230 -0.5815
18272TIP3   OH276230   3.044   0.554  13.862 -0.1970  0.2844 -0.5734
18272TIP3    H176231   3.098   0.626  13.830  1.4255 -0.7191 -0.1969
18272TIP3    H276232   3.096   0.475  13.844 -1.3372 -0.6896  0.2369
18273TIP3   OH276233   6.382   6.576   3.911  0.5254  0.1085 -0.3596
18273TIP3    H176234   6.347   6.488   3.913 -0.1474  0.3482 -1.1826
18273TIP3    H276235   6.405   6.592   3.819 -0.6920  1.2820 -0.4983
18274TIP3   OH276236   0.050   3.917  15.059 -0.0983 -0.2345  0.3747
18274TIP3    H176237   0.036   3.823  15.068 -0.3437 -0.6148 -2.8241
18274TIP3    H276238   0.136   3.925  15.019 -0.4293  0.8398 -0.1575
18275TIP3   OH276239   3.684   5.694   5.859 -0.5078 -0.5134  0.0439
18275TIP3    H176240   3.725   5.780   5.864 -0.3146 -0.6435  0.7016
18275TIP3    H276241   3.623   5.701   5.785  0.9337 -0.4234 -1.1854
18276TIP3   OH276242   3.507   0.560   4.360 -0.4081 -0.0797 -0.0995
18276TIP3    H176243   3.421   0.552   4.401 -0.5101  1.1025 -0.0431
18276TIP3    H276244   3.559   0.491   4.400 -0.6829  0.6284  1.5835
18277TIP3   OH276245   5.613   2.030  13.806 -0.4336  0.1970  0.1228
18277TIP3    H176246   5.653   2.008  13.890  0.6579  0.5892 -0.2760
18277TIP3    H276247   5.679   2.006  13.741 -0.8535  0.8504 -0.5631
18278TIP3   OH276248   5.596   2.591  14.052 -0.3127  0.8385 -0.8485
18278TIP3    H176249   5.558   2.583  14.139 -1.6659 -0.0839 -1.4833
18278TIP3    H276250   5.562   2.673  14.018  0.4527  1.3466 -0.4197
18279TIP3   OH276251   2.031   4.586   2.599  0.2806  0.1598  0.2444
18279TIP3    H176252   2.116   4.581   2.554 -1.4607 -0.8230 -3.2820
18279TIP3    H276253   1.994   4.669   2.572 -0.6760 -0.2824  0.1513
18280TIP3   OH276254   3.278   5.835  11.214 -0.4091 -0.1621 -0.1595
18280TIP3    H176255   3.199   5.866  11.168 -1.4770 -0.5704  1.3017
18280TIP3    H276256   3.304   5.909  11.268  0.8653  0.3320 -1.4173
18281TIP3   OH276257   5.436   4.256  11.845  0.0547 -0.0816  0.2769
18281TIP3    H176258   5.483   4.232  11.765 -0.5512 -1.9969  0.4558
18281TIP3    H276259   5.367   4.316  11.815  0.5243  0.1219 -0.4487
18282TIP3   OH276260   2.552   4.920  16.032  0.0595 -0.5229  0.3578
18282TIP3    H176261   2.516   4.966  15.956 -1.0754  0.5925  1.5220
18282TIP3    H276262   2.566   4.831  16.000  0.2791  0.0733 -1.3507
18283TIP3   OH276263   5.868   1.686   5.616 -0.4962  0.6473  0.2233
18283TIP3    H176264   5.932   1.639   5.670  0.7157  0.8797 -0.9470
18283TIP3    H276265   5.876   1.646   5.529  0.9656  3.2865 -0.9699
18284TIP3   OH276266   0.164   4.598  12.195 -0.6049 -0.4182  0.3255
18284TIP3    H176267   0.181   4.579  12.288 -0.0964  0.2831  0.3847
18284TIP3    H276268   0.242   4.566  12.150  0.3903  1.6173  0.4510
18285TIP3   OH276269   3.884   2.692   0.380  0.3445  0.1826  0.2592
18285TIP3    H176270   3.853   2.628   0.317  1.5309 -0.3593  0.1925
18285TIP3    H276271   3.901   2.642   0.460  0.0715  0.6350  0.6054
18286TIP3   OH276272   0.724   4.495   3.178  0.0225  0.0927 -0.3627
18286TIP3    H176273   0.721   4.536   3.092 -0.4833 -1.1428 -0.9589
18286TIP3    H276274   0.817   4.478   3.193 -0.0324 -1.9358 -1.8277
18287TIP3   OH276275   2.211   1.222   3.862  0.2006  0.0032 -0.3992
18287TIP3    H176276   2.155   1.231   3.785  0.3538  1.0965 -0.3981
18287TIP3    H276277   2.215   1.310   3.900  1.2921 -0.2164  0.0412
18288TIP3   OH276278   2.257   1.500  11.679  0.5213  0.0725 -0.2744
18288TIP3    H176279   2.299   1.414  11.673  0.0199 -0.4757  2.5629
18288TIP3    H276280   2.325   1.557  11.713  0.4931  0.5295 -0.9658
18289TIP3   OH276281   2.962   5.985  16.568  0.0483 -0.3636 -0.4794
18289TIP3    H176282   2.876   5.968  16.529  0.9678  0.0767 -2.9348
18289TIP3    H276283   2.956   6.076  16.599  0.3437  0.6570 -3.1067
18290TIP3   OH276284   2.503   0.103  11.913  0.6825  0.6965 -0.1757
18290TIP3    H176285   2.544   0.029  11.957 -1.1848  0.1122  0.7141
18290TIP3    H276286   2.500   0.172  11.980 -0.6678  0.3718  0.1359
18291TIP3   OH276287   0.791   0.538  13.629  0.4684  0.1230 -0.4725
18291TIP3    H176288   0.735   0.615  13.620  0.7171  0.3660  0.0514
18291TIP3    H276289   0.806   0.509  13.539 -1.1798 -0.4477 -0.5918
18292TIP3   OH276290   6.544   5.994   6.367 -0.2807 -0.4789  0.2261
18292TIP3    H176291   6.500   6.072   6.401 -0.6974  0.1599 -1.6368
18292TIP3    H276292   6.490   5.968   6.292 -0.1681 -2.6154  0.8449
18293TIP3   OH276293   4.388   1.636   6.575 -0.1427  0.0105 -0.7375
18293TIP3    H176294   4.426   1.715   6.536  1.6542 -1.2800 -1.7419
18293TIP3    H276295   4.463   1.587   6.609 -1.2808 -0.9735  0.4419
18294TIP3   OH276296   0.427   0.277  16.445 -0.0270  0.7871  0.3545
18294TIP3    H176297   0.371   0.275  16.523 -1.8781 -1.7000 -0.8783
18294TIP3    H276298   0.441   0.185  16.423  3.8700  1.3167 -0.0107
18295TIP3   OH276299   0.033   3.311   0.659  0.7793 -0.6878  0.0285
18295TIP3    H176300   0.087   3.289   0.583  1.0355 -1.0747  0.3197
18295TIP3    H276301  -0.057   3.301   0.628  0.7960  1.7098 -1.0020
18296TIP3   OH276302   2.091   5.672  12.937 -0.6217  0.5654 -0.4392
18296TIP3    H176303   2.143   5.628  12.869 -1.6706 -0.9302 -0.3211
18296TIP3    H276304   2.152   5.734  12.978  0.8927 -0.7105 -0.6844
18297TIP3   OH276305   0.430   2.838   3.263 -0.4652 -0.0626 -0.1711
18297TIP3    H176306   0.337   2.836   3.284 -0.4061 -0.6108  0.0502
18297TIP3    H276307   0.457   2.928   3.284 -0.3093 -0.6589  2.6954
18298TIP3   OH276308   6.042   2.130   0.280  0.2813 -0.6173 -0.1251
18298TIP3    H176309   5.989   2.062   0.321 -0.6332  0.2673  0.1955
18298TIP3    H276310   6.113   2.147   0.342 -0.1966 -0.4137  0.3744
18299TIP3   OH276311   3.323   3.673   1.994  0.7686  0.4527  0.4566
18299TIP3    H176312   3.233   3.695   2.018  0.3489 -1.4965  0.8430
18299TIP3    H276313   3.362   3.638   2.074  1.2305 -0.5751 -0.1899
18300TIP3   OH276314   1.525   6.415   1.871  0.0585  0.5674  0.1121
18300TIP3    H176315   1.450   6.355   1.876 -0.6176  1.4695  1.4034
18300TIP3    H276316   1.570   6.403   1.955  0.0603  1.6492  0.2760
18301TIP3   OH276317   3.158   6.478   4.419 -0.2935  1.0762 -0.2096
18301TIP3    H176318   3.193   6.447   4.335 -0.0141  0.9923 -0.0612
18301TIP3    H276319   3.180   6.571   4.421  1.2146  0.7259  0.5311
18302TIP3   OH276320   2.226   2.127  14.999 -0.3580  0.7831 -0.1371
18302TIP3    H176321   2.231   2.093  14.910 -1.2931  1.2095 -0.3694
18302TIP3    H276322   2.156   2.192  14.996  0.3029  1.5590  0.6707
18303TIP3   OH276323   3.278   1.191   4.771 -0.0102  0.1103 -0.6794
18303TIP3    H176324   3.345   1.259   4.760 -1.1914  1.4922  0.4087
18303TIP3    H276325   3.198   1.230   4.736 -1.2755  0.2750  2.1341
18304TIP3   OH276326   2.783   1.491  13.876  0.2278  0.0660  0.0492
18304TIP3    H176327   2.838   1.439  13.934 -0.1129 -1.2170 -0.7503
18304TIP3    H276328   2.722   1.536  13.935 -1.4145 -2.7294  0.6426
18305TIP3   OH276329   6.625   0.489   2.062  0.5740  0.3356 -0.0416
18305TIP3    H176330   6.602   0.559   2.001  1.0300  0.1223 -0.4611
18305TIP3    H276331   6.702   0.522   2.108  0.0448  0.6334  0.6651
18306TIP3   OH276332   5.835   2.474   3.526 -0.6276 -0.5994 -0.2975
18306TIP3    H176333   5.764   2.425   3.485 -2.5309  1.4396  0.3947
18306TIP3    H276334   5.837   2.558   3.479  2.9571 -1.3735 -1.8882
18307TIP3   OH276335   6.607   2.366  12.002  0.0606  0.5561 -0.1811
18307TIP3    H176336   6.559   2.449  11.999 -0.3249  0.3458  0.0510
18307TIP3    H276337   6.600   2.332  11.913 -0.5940  0.3253 -0.0489
18308TIP3   OH276338   2.623   5.722  11.812  0.0392 -0.1754  0.0420
18308TIP3    H176339   2.704   5.709  11.763 -0.3133 -0.8921 -0.3569
18308TIP3    H276340   2.561   5.659  11.775 -1.3008  1.6325 -1.0111
18309TIP3   OH276341   2.438   0.503  11.533 -0.3189  0.2247 -0.5451
18309TIP3    H176342   2.366   0.502  11.470 -0.8169 -0.5931  0.0184
18309TIP3    H276343   2.400   0.467  11.613  0.3331  1.1418  0.1984
18310TIP3   OH276344   1.586   5.498   5.108  0.1504 -0.4155 -0.6406
18310TIP3    H176345   1.492   5.503   5.093 -0.1829 -1.9799  0.6660
18310TIP3    H276346   1.611   5.587   5.135 -0.8463  0.1130 -1.3825
18311TIP3   OH276347   6.193   3.520  12.378  0.2623 -0.2963  0.1054
18311TIP3    H176348   6.258   3.584  12.405 -0.6975  2.0696 -2.6405
18311TIP3    H276349   6.240   3.462  12.317  0.0627  0.8510 -1.1723
18312TIP3   OH276350   3.021   4.175   6.479  0.1349 -0.3807  0.0987
18312TIP3    H176351   3.058   4.152   6.564  1.3625  1.9726  0.2955
18312TIP3    H276352   3.045   4.102   6.422  1.4808 -0.8662  1.2147
18313TIP3   OH276353   6.713   4.867  14.088 -0.6158  0.1105  0.1691
18313TIP3    H176354   6.697   4.777  14.060  1.8260  0.3066 -2.3137
18313TIP3    H276355   6.649   4.919  14.039 -1.3162 -0.1703  0.7766
18314TIP3   OH276356   0.126   3.047   1.653  0.7576 -0.2187 -0.0308
18314TIP3    H176357   0.205   3.034   1.705  2.1408  1.5314 -1.5941
18314TIP3    H276358   0.157   3.057   1.563 -1.0121  2.6041 -0.4355
18315TIP3   OH276359   2.716   3.242  11.618 -0.5763 -0.7503  0.2059
18315TIP3    H176360   2.800   3.283  11.636 -0.8677  0.3913 -0.8800
18315TIP3    H276361   2.688   3.206  11.702 -0.5288  1.7143  1.3582
18316TIP3   OH276362   2.068   1.164   0.658  0.1370 -0.0770  0.3233
18316TIP3    H176363   2.090   1.093   0.599 -0.9517 -0.8609  0.8288
18316TIP3    H276364   2.044   1.121   0.740  0.2365  0.9140  0.8965
18317TIP3   OH276365   2.259   1.353  16.978  0.1588  0.1483 -0.3266
18317TIP3    H176366   2.342   1.360  17.024 -0.1977  0.5552  0.2808
18317TIP3    H276367   2.277   1.299  16.902  1.1354  0.8250 -0.5815
18318TIP3   OH276368   2.163   2.081   1.301 -0.1476 -0.4324 -0.0400
18318TIP3    H176369   2.091   2.142   1.289  0.3746  0.7625  2.2687
18318TIP3    H276370   2.122   2.001   1.335 -0.6786 -0.9696 -1.8241
18319TIP3   OH276371   1.648   6.002  16.743  0.4082 -0.5057 -0.4601
18319TIP3    H176372   1.649   6.097  16.754 -3.6111 -0.4100  0.4380
18319TIP3    H276373   1.628   5.968  16.830 -1.2404 -1.9013 -1.3289
18320TIP3   OH276374   4.335   5.946   0.270 -0.1428  0.3963  0.8007
18320TIP3    H176375   4.356   5.859   0.305 -0.5567  0.3319  0.8987
18320TIP3    H276376   4.240   5.953   0.280 -0.4891 -0.1836 -1.5439
18321TIP3   OH276377   2.006   6.749  10.990 -0.9115 -0.1080 -0.3016
18321TIP3    H176378   1.984   6.780  10.903 -0.3306  0.3382 -0.2981
18321TIP3    H276379   2.017   6.655  10.980 -1.4466 -0.1437 -0.5794
18322TIP3   OH276380   2.061   2.608   0.771 -0.2816 -0.1034  0.4210
18322TIP3    H176381   2.034   2.644   0.856  0.7746 -0.7875  1.0634
18322TIP3    H276382   2.127   2.542   0.792 -0.6199 -0.8962 -0.8854
18323TIP3   OH276383   5.052   3.766   3.049 -0.2582  0.0306 -0.1772
18323TIP3    H176384   4.973   3.744   3.099 -0.8186 -0.3126 -1.1824
18323TIP3    H276385   5.068   3.688   2.994  0.2590  0.4458 -0.6234
18324TIP3   OH276386   2.438   2.946   5.722  0.0358  0.0793  0.5149
18324TIP3    H176387   2.387   2.993   5.656  1.5493  1.2139  0.0984
18324TIP3    H276388   2.499   3.012   5.756  1.0100 -1.1412  1.1970
18325TIP3   OH276389   2.885   5.444  14.462 -0.2680 -0.4455 -0.1258
18325TIP3    H176390   2.888   5.497  14.383  0.4830 -1.1381 -0.5808
18325TIP3    H276391   2.955   5.379  14.450  1.0384  0.5035  1.8664
18326TIP3   OH276392   4.050   1.212   2.638  0.6029 -0.0450 -0.3218
18326TIP3    H176393   4.049   1.298   2.680  0.0836 -0.4230  0.4684
18326TIP3    H276394   3.986   1.218   2.568 -0.9382 -0.3864  1.0107
18327TIP3   OH276395   0.399   3.106   1.739  0.0651  0.2339 -0.5594
18327TIP3    H176396   0.442   3.047   1.677  0.1400  0.9889 -1.2407
18327TIP3    H276397   0.383   3.186   1.690 -0.0861  0.7745  0.3355
18328TIP3   OH276398   4.041   4.565   1.176 -0.6192 -0.0616  0.1069
18328TIP3    H176399   3.960   4.615   1.167  1.0515  2.4901 -1.5919
18328TIP3    H276400   4.083   4.602   1.254 -0.4620 -0.5248  0.2469
18329TIP3   OH276401   0.378   2.733   2.089  0.5467 -0.5352  0.1312
18329TIP3    H176402   0.343   2.820   2.067 -0.6815 -1.4372 -1.7415
18329TIP3    H276403   0.314   2.696   2.149  0.5124 -0.5593  0.0796
18330TIP3   OH276404   3.097   2.028   6.161  0.2354 -0.1766 -0.1299
18330TIP3    H176405   3.053   1.957   6.208 -0.7040  0.7706  0.4424
18330TIP3    H276406   3.055   2.028   6.074 -1.2629  0.9808  0.5381
18331TIP3   OH276407   6.632   6.296  15.305 -0.3771  0.2449 -0.1324
18331TIP3    H176408   6.664   6.217  15.348 -0.9630  0.2060  0.2510
18331TIP3    H276409   6.702   6.321  15.244 -0.1318 -0.4919 -0.1634
18332TIP3   OH276410   3.080   2.467  13.919 -0.3532 -0.5446  0.1911
18332TIP3    H176411   3.026   2.402  13.872 -1.9266 -0.3114  1.5834
18332TIP3    H276412   3.135   2.505  13.851 -1.8808 -0.8805 -1.3148
18333TIP3   OH276413   2.376   5.709  13.541 -0.6317 -0.0667 -0.4294
18333TIP3    H176414   2.367   5.801  13.518  1.2834  0.5374  0.9529
18333TIP3    H276415   2.420   5.670  13.466  2.0956  1.0471  0.4736
18334TIP3   OH276416   2.450   4.191  16.992 -0.1076  0.3354 -0.1604
18334TIP3    H176417   2.387   4.229  17.054  2.4928  1.4614  1.9836
18334TIP3    H276418   2.523   4.252  16.991  1.7559 -1.7670 -1.1538
18335TIP3   OH276419   4.585   2.488  13.425  0.3885 -0.2304  0.2611
18335TIP3    H176420   4.502   2.443  13.445 -0.1424  0.5399 -0.1319
18335TIP3    H276421   4.646   2.417  13.406 -0.5440 -0.7974 -0.8051
18336TIP3   OH276422   4.843   6.131  12.257  0.1020  0.0186 -0.1907
18336TIP3    H176423   4.895   6.207  12.232 -1.1335  0.1106 -2.8279
18336TIP3    H276424   4.771   6.129  12.194 -3.2567 -0.0112  3.2762
18337TIP3   OH276425   6.016   4.450  14.618  0.2922  0.1796  0.0957
18337TIP3    H176426   6.010   4.357  14.599  1.1185  0.2309 -0.4290
18337TIP3    H276427   5.928   4.474  14.648 -0.7144 -0.2017 -2.3281
18338TIP3   OH276428   0.655   3.618  13.698  0.3905 -0.0859  0.6803
18338TIP3    H176429   0.643   3.712  13.706  1.9085 -0.0337  3.2180
18338TIP3    H276430   0.741   3.607  13.657 -0.3057 -0.4155 -0.7622
18339TIP3   OH276431   5.237   6.426   4.584  0.4656  0.0346 -0.1421
18339TIP3    H176432   5.230   6.500   4.644  2.3007 -0.3564  0.6407
18339TIP3    H276433   5.264   6.464   4.501  1.7163  0.2534  0.3423
18340TIP3   OH276434   5.375   3.374  15.175 -0.5286 -0.7521 -0.2292
18340TIP3    H176435   5.311   3.426  15.224  1.2949  0.4940  0.9118
18340TIP3    H276436   5.339   3.371  15.086 -1.7756  0.5920  0.1797
18341TIP3   OH276437   4.678   6.648   2.699  0.1011 -0.3058  0.5525
18341TIP3    H176438   4.583   6.653   2.685  0.2572  1.9116 -0.1030
18341TIP3    H276439   4.713   6.621   2.614  0.1230  0.2557  0.3738
18342TIP3   OH276440   3.762   3.090   6.094  0.0281 -0.3231 -0.3498
18342TIP3    H176441   3.755   3.138   6.176 -0.8080  0.1958 -0.7122
18342TIP3    H276442   3.671   3.075   6.067  0.0790 -4.4824  1.0741
18343TIP3   OH276443   0.241   0.887   0.903  0.1438  0.1520  0.8177
18343TIP3    H176444   0.311   0.871   0.840 -1.4283 -0.3545 -0.8915
18343TIP3    H276445   0.212   0.977   0.885 -0.3650 -0.0225  0.7252
18344TIP3   OH276446   5.545   2.472  17.311  0.0022 -0.1272 -0.4990
18344TIP3    H176447   5.533   2.445  17.402 -1.0024 -0.0828 -0.6004
18344TIP3    H276448   5.591   2.555  17.316 -0.2225 -0.0272 -0.0156
18345TIP3   OH276449   4.102   1.990  14.171 -0.8759 -0.5268  0.0965
18345TIP3    H176450   4.089   2.074  14.216 -0.0498 -0.3880  0.0837
18345TIP3    H276451   4.177   1.950  14.215 -0.1119 -0.4328 -1.0726
18346TIP3   OH276452   3.030   1.106   1.584  0.5792  0.6231 -0.0830
18346TIP3    H176453   3.083   1.180   1.556  0.0999  0.3969 -1.7409
18346TIP3    H276454   2.943   1.143   1.598  1.1272  1.0244  2.7844
18347TIP3   OH276455   1.777   3.022  14.422  0.1265  0.0499  0.1303
18347TIP3    H176456   1.858   3.052  14.381  1.2782 -0.3417  1.9820
18347TIP3    H276457   1.709   3.038  14.356  1.5491  1.2874 -1.1160
18348TIP3   OH276458   3.858   6.197   0.560  0.4274 -0.2761 -0.5302
18348TIP3    H176459   3.865   6.290   0.539 -0.3494  0.3371  1.6838
18348TIP3    H276460   3.940   6.175   0.604  0.5226 -0.5953 -0.8588
18349TIP3   OH276461   0.507   1.289  14.702 -0.3633 -0.1541  0.4735
18349TIP3    H176462   0.514   1.237  14.621  0.8812  0.6051  0.0687
18349TIP3    H276463   0.570   1.250  14.762  0.5611  0.8285  0.1785
18350TIP3   OH276464   2.734   1.151  13.355 -0.4148 -0.3375 -0.1267
18350TIP3    H176465   2.780   1.231  13.331  3.6988 -2.2097  0.7460
18350TIP3    H276466   2.731   1.099  13.275 -0.6458 -0.3872 -0.0881
18351TIP3   OH276467   2.481   3.163   5.301 -0.1256  0.4331  0.0254
18351TIP3    H176468   2.536   3.095   5.263  0.2267  0.5307  0.3496
18351TIP3    H276469   2.536   3.202   5.369 -0.3916  0.9129 -0.0329
18352TIP3   OH276470   3.100   4.700  11.775 -0.5955 -0.1397  0.4260
18352TIP3    H176471   3.036   4.632  11.796  1.3985 -2.2260  0.1188
18352TIP3    H276472   3.102   4.702  11.679 -1.1882  0.9219  0.4288
18353TIP3   OH276473   0.838   3.168   2.033  0.5720  0.6114  0.6974
18353TIP3    H176474   0.785   3.232   2.081  1.2098  0.4520  1.6527
18353TIP3    H276475   0.805   3.172   1.943  0.6310  2.3262  0.7177
18354TIP3   OH276476   1.295   4.498  15.158  0.2590  0.1254  0.0604
18354TIP3    H176477   1.389   4.508  15.141 -0.0713  0.9786 -1.5124
18354TIP3    H276478   1.253   4.532  15.079 -1.3903 -0.0059  0.8361
18355TIP3   OH276479   4.924   5.377  10.733 -0.2483 -0.1010 -0.5829
18355TIP3    H176480   4.857   5.430  10.690 -1.4025  0.9250  2.2522
18355TIP3    H276481   5.000   5.435  10.738 -1.2605  1.1903  1.8060
18356TIP3   OH276482   5.416   1.685  13.475 -0.4604  0.8521 -0.0623
18356TIP3    H176483   5.424   1.762  13.533 -1.4538 -0.1590  1.4872
18356TIP3    H276484   5.400   1.612  13.535  2.5284 -0.9994 -1.2650
18357TIP3   OH276485   2.899   5.148   3.055  0.0256 -0.0026 -0.3839
18357TIP3    H176486   2.878   5.054   3.056 -0.8461  0.1765 -0.9401
18357TIP3    H276487   2.833   5.188   3.112  0.2803  0.2914 -0.2940
18358TIP3   OH276488   6.624   0.661   1.088  0.2745  0.0684 -0.4227
18358TIP3    H176489   6.666   0.604   1.152 -1.0583 -0.1444  0.2917
18358TIP3    H276490   6.692   0.678   1.022  1.3305 -0.5895  0.4752
18359TIP3   OH276491   1.390   2.155  17.079  0.2570  0.0235 -0.9623
18359TIP3    H176492   1.409   2.112  16.996  1.2989  0.4769 -0.9820
18359TIP3    H276493   1.474   2.157  17.124  0.0303  1.1797 -0.5630
18360TIP3   OH276494   4.438   2.305  17.198 -0.0644  0.3715  0.1624
18360TIP3    H176495   4.508   2.363  17.167 -1.8739  1.5642 -1.9936
18360TIP3    H276496   4.371   2.364  17.232 -1.3435 -0.5041 -0.7405
18361TIP3   OH276497   4.744   6.241   2.403  0.3305 -0.0679  0.1685
18361TIP3    H176498   4.659   6.283   2.391  1.2283  1.6243 -0.5888
18361TIP3    H276499   4.743   6.166   2.344  0.0985  1.1161 -1.3951
18362TIP3   OH276500   4.835   4.908   0.891 -0.4499 -0.3565 -0.3310
18362TIP3    H176501   4.768   4.933   0.955 -0.6230  0.5409 -0.8337
18362TIP3    H276502   4.786   4.865   0.821 -0.2456 -1.4488  0.1817
18363TIP3   OH276503   6.333   3.079   3.478 -0.0046 -0.1263 -0.3500
18363TIP3    H176504   6.366   2.989   3.489 -2.2310 -1.0529 -0.6833
18363TIP3    H276505   6.404   3.125   3.433  0.5820 -2.1796 -1.6934
18364TIP3   OH276506   4.979   0.980  15.583  0.6823 -0.9094  0.6160
18364TIP3    H176507   4.940   0.893  15.586  1.2752 -1.2088 -0.1723
18364TIP3    H276508   5.019   0.986  15.497  1.0640 -0.0322  0.8379
18365TIP3   OH276509   3.516   4.375   3.211  0.1512  0.7951  0.2511
18365TIP3    H176510   3.577   4.441   3.178 -1.1985  2.3391  0.7383
18365TIP3    H276511   3.446   4.425   3.253 -0.6477 -0.9703  1.1392
18366TIP3   OH276512   4.668   4.167   4.117 -0.1592  0.1374  0.1774
18366TIP3    H176513   4.738   4.225   4.088 -1.2157  0.7368 -1.2828
18366TIP3    H276514   4.700   4.130   4.199  2.3636 -0.4839 -0.9750
18367TIP3   OH276515   6.613   5.890   5.885 -0.2226 -0.1192  0.4879
18367TIP3    H176516   6.593   5.849   5.801 -1.2122 -0.1938  0.7502
18367TIP3    H276517   6.668   5.827   5.930  3.2934  1.2859 -1.4029
18368TIP3   OH276518   4.752   1.766  15.624 -0.2433  0.5326  0.2939
18368TIP3    H176519   4.802   1.848  15.618  0.4190  0.1041 -0.1123
18368TIP3    H276520   4.703   1.774  15.706  0.0071  1.2291  0.3849
18369TIP3   OH276521   6.072   0.352  14.303 -0.7559 -0.1239  0.2852
18369TIP3    H176522   6.150   0.329  14.354 -0.4696 -0.5086 -0.3176
18369TIP3    H276523   6.104   0.359  14.213 -1.3051  0.3150  0.1244
18370TIP3   OH276524   4.569   2.759  15.841 -0.5493 -0.2610  0.1229
18370TIP3    H176525   4.548   2.852  15.843  1.1864  0.1755 -0.0137
18370TIP3    H276526   4.516   2.724  15.769 -1.8402  0.4399  0.7131
18371TIP3   OH276527   0.224   3.318   5.466  0.1134 -0.1031  0.2226
18371TIP3    H176528   0.258   3.328   5.555 -0.2039 -1.5120  0.5145
18371TIP3    H276529   0.139   3.275   5.477 -0.1673  0.1699 -0.7386
18372TIP3   OH276530   0.285   1.305  13.088 -0.2347  0.1527 -0.4854
18372TIP3    H176531   0.286   1.227  13.032 -0.5137  0.5534 -1.0653
18372TIP3    H276532   0.276   1.378  13.027  1.1259  0.7282 -0.0395
18373TIP3   OH276533   0.456   6.541  16.112  0.7731 -0.2780 -0.1805
18373TIP3    H176534   0.455   6.553  16.017 -1.9169  0.5139 -0.1099
18373TIP3    H276535   0.389   6.601  16.145  0.7526 -1.4600  2.1035
18374TIP3   OH276536   0.314   2.846   3.608 -0.2759 -0.4191 -0.1577
18374TIP3    H176537   0.399   2.806   3.593  0.0243 -0.6446  1.8845
18374TIP3    H276538   0.258   2.774   3.635 -0.0152  0.2673  2.4795
18375TIP3   OH276539   0.610   2.021  14.959  0.0661  0.0252  0.4164
18375TIP3    H176540   0.612   1.937  15.005  0.9513 -1.3469 -1.9525
18375TIP3    H276541   0.685   2.069  14.994 -0.6179 -0.0016  2.0036
18376TIP3   OH276542   0.561   1.572  17.024 -0.8252 -0.1629 -0.2207
18376TIP3    H176543   0.562   1.598  16.932 -1.0043 -1.6606 -0.6898
18376TIP3    H276544   0.653   1.575  17.051 -0.9196  1.5505 -0.0451
18377TIP3   OH276545   0.329   5.253  13.735 -0.1040  0.2933 -0.4385
18377TIP3    H176546   0.371   5.211  13.661 -0.9543  0.4694 -1.0398
18377TIP3    H276547   0.245   5.207  13.745 -0.5382  1.0743 -0.3813
18378TIP3   OH276548   1.530   6.469  11.452 -0.0912  0.0932 -0.2295
18378TIP3    H176549   1.565   6.478  11.363  0.2990  1.7157  0.0572
18378TIP3    H276550   1.436   6.463  11.441 -0.0756  0.6756 -0.7479
18379TIP3   OH276551   3.533   1.820  12.797  0.2071 -0.1517 -0.0986
18379TIP3    H176552   3.532   1.864  12.882  1.4910  0.7120 -0.4968
18379TIP3    H276553   3.516   1.891  12.734  2.0859 -0.2106 -0.7390
18380TIP3   OH276554   5.885   0.136  11.370  0.0769  0.2371 -0.4374
18380TIP3    H176555   5.796   0.171  11.374  0.0310  0.2209 -1.1532
18380TIP3    H276556   5.939   0.206  11.408 -0.2727  0.1069  0.3092
18381TIP3   OH276557   4.923   1.979  15.633 -0.0226  0.0458 -0.1007
18381TIP3    H176558   5.000   1.925  15.617 -0.2928 -0.6167  0.7149
18381TIP3    H276559   4.952   2.044  15.697 -0.4361 -1.0449  1.2752
18382TIP3   OH276560   0.824   0.310   5.119 -0.6703  0.1153 -0.7699
18382TIP3    H176561   0.918   0.325   5.126 -0.9122  1.2354  0.5397
18382TIP3    H276562   0.816   0.220   5.090  0.8123  0.1202 -1.2580
18383TIP3   OH276563   5.347   2.029  12.541 -0.1013 -0.3866 -0.0292
18383TIP3    H176564   5.423   1.978  12.568 -0.4623 -0.6939  0.4277
18383TIP3    H276565   5.282   1.964  12.514 -1.0489 -0.2840  1.8098
18384TIP3   OH276566   3.884   1.251  11.219 -0.1343  0.7173 -0.5187
18384TIP3    H176567   3.901   1.237  11.312 -1.7613  0.7853 -0.1898
18384TIP3    H276568   3.908   1.343  11.204  0.3111  0.6525 -0.2332
18385TIP3   OH276569   4.918   1.996  14.249  0.0360  0.2225  0.0168
18385TIP3    H176570   4.981   1.924  14.253  0.7489  0.8156 -0.2527
18385TIP3    H276571   4.846   1.962  14.195 -0.2621 -0.7366  0.9912
18386TIP3   OH276572   5.278   5.118   5.083  0.4975  0.2152 -0.0376
18386TIP3    H176573   5.195   5.166   5.092 -0.8806 -1.8199 -1.0530
18386TIP3    H276574   5.327   5.166   5.016 -0.2543  0.9585 -0.0629
18387TIP3   OH276575   5.476   1.461  14.456  0.0314 -0.4221 -0.2321
18387TIP3    H176576   5.519   1.381  14.426  0.6325 -0.0899 -0.2514
18387TIP3    H276577   5.418   1.432  14.526  1.6625 -0.6164  1.0921
18388TIP3   OH276578   2.070   1.985  16.388  0.4576 -0.4828  0.1403
18388TIP3    H176579   2.049   1.896  16.414 -0.2022 -0.3880 -0.0723
18388TIP3    H276580   2.160   1.998  16.419  0.8053 -1.4459 -0.4274
18389TIP3   OH276581   6.561   4.815   3.662  0.4457  0.4234  0.0817
18389TIP3    H176582   6.481   4.768   3.641  0.6126 -0.3997  1.1834
18389TIP3    H276583   6.564   4.887   3.599  0.4087 -1.2761 -1.9522
18390TIP3   OH276584   0.630   0.032  13.916 -0.0271  0.0167  0.5290
18390TIP3    H176585   0.579  -0.045  13.940 -0.2910 -0.4796 -1.4034
18390TIP3    H276586   0.720  -0.000  13.911 -0.1417 -0.2026 -0.3100
18391TIP3   OH276587   6.605   5.360  17.058 -0.0964 -0.1545 -0.0966
18391TIP3    H176588   6.681   5.313  17.093  0.0960 -1.7244 -2.3868
18391TIP3    H276589   6.638   5.448  17.040  0.8811 -0.4867  0.0045
18392TIP3   OH276590   1.843   3.393  16.952  0.0547  0.0768  0.7445
18392TIP3    H176591   1.830   3.310  16.999  0.2148  0.8593  2.2403
18392TIP3    H276592   1.819   3.460  17.016  1.3740  1.2251  0.0767
18393TIP3   OH276593   1.024   2.118   1.230  0.4405  0.1715  0.5399
18393TIP3    H176594   1.061   2.049   1.175 -0.4832 -0.2723  0.4603
18393TIP3    H276595   1.100   2.164   1.266  1.1213 -2.0300  2.0806
18394TIP3   OH276596   5.117   2.568   2.772  0.1530 -0.1057  0.3000
18394TIP3    H176597   5.168   2.527   2.842  1.1812  0.7404  0.0806
18394TIP3    H276598   5.111   2.502   2.704  1.2706 -0.1137  0.1930
18395TIP3   OH276599   0.045   6.752  12.426 -0.0784 -0.0359  0.2679
18395TIP3    H176600   0.087   6.807  12.493 -1.9149  1.4528  0.2768
18395TIP3    H276601   0.028   6.812  12.354 -0.9540 -0.9133 -0.2669
18396TIP3   OH276602   1.071   0.326  14.842 -0.4239  0.6042  0.2157
18396TIP3    H176603   1.141   0.388  14.860 -0.0816  0.0520  0.8279
18396TIP3    H276604   1.022   0.321  14.924  0.1105 -0.6224  0.4932
18397TIP3   OH276605   3.563   1.860  12.410 -0.2464 -0.2198 -0.2394
18397TIP3    H176606   3.539   1.925  12.344 -1.3584 -0.7795 -0.4046
18397TIP3    H276607   3.480   1.823  12.439  0.2249 -0.1135  1.3647
18398TIP3   OH276608   5.672   0.778  13.518 -0.4817 -0.0485 -0.0224
18398TIP3    H176609   5.641   0.853  13.468 -0.4288 -0.4983 -0.7526
18398TIP3    H276610   5.727   0.816  13.586 -2.0308  0.7025  0.8579
18399TIP3   OH276611   1.864   4.817  12.076 -0.3979  0.4101 -0.0675
18399TIP3    H176612   1.786   4.873  12.069  1.0394  2.3723 -1.2944
18399TIP3    H276613   1.917   4.859  12.144  0.2707 -0.0565 -0.2961
18400TIP3   OH276614   6.309   3.113   2.972  0.1266  0.4077  0.5070
18400TIP3    H176615   6.250   3.062   3.027  0.8793  0.9486  1.8517
18400TIP3    H276616   6.384   3.056   2.957 -1.0459 -0.6523 -1.9998
18401TIP3   OH276617   1.642   6.242   3.096  0.4787 -0.2564 -0.1825
18401TIP3    H176618   1.589   6.306   3.143 -0.2294  0.0213 -1.2976
18401TIP3    H276619   1.701   6.295   3.041  1.6343 -0.5657  0.7142
18402TIP3   OH276620   6.725   4.784   1.549  0.4199 -0.0223  0.2601
18402TIP3    H176621   6.765   4.703   1.517  2.2465  1.1183 -0.4542
18402TIP3    H276622   6.656   4.804   1.485 -0.7947 -1.5359  1.0269
18403TIP3   OH276623   1.583   4.387  15.625 -0.1891  0.3033 -0.1744
18403TIP3    H176624   1.548   4.436  15.699 -1.2699  2.6691 -2.1066
18403TIP3    H276625   1.525   4.312  15.616  0.2088 -0.2556  1.5640
18404TIP3   OH276626   1.649   6.505  12.990  0.3450  0.5650 -0.4649
18404TIP3    H176627   1.695   6.571  13.042  1.2412 -0.1536 -0.3266
18404TIP3    H276628   1.638   6.431  13.049 -0.8559  0.6635 -0.5560
18405TIP3   OH276629   1.179   6.739   1.688  0.2988  0.6387 -0.4993
18405TIP3    H176630   1.238   6.802   1.647 -0.7166  2.8586  1.2977
18405TIP3    H276631   1.094   6.756   1.649  0.6523 -2.8607 -3.4285
18406TIP3   OH276632   6.530   3.950  15.221 -0.0481  0.1188 -1.1357
18406TIP3    H176633   6.508   3.865  15.183  0.9694 -0.6258 -0.1228
18406TIP3    H276634   6.446   3.994  15.233 -0.5323 -0.4289 -2.3562
18407TIP3   OH276635   0.805   5.815  13.258 -0.2841  0.4556  0.0607
18407TIP3    H176636   0.758   5.815  13.342 -0.6517  2.9308 -0.0702
18407TIP3    H276637   0.814   5.907  13.235 -1.0969 -0.1303 -3.1448
18408TIP3   OH276638   5.995   3.908   1.456  0.2978  0.1414  0.1167
18408TIP3    H176639   6.061   3.847   1.422  0.4662  0.6764 -0.5365
18408TIP3    H276640   5.924   3.851   1.486 -0.6391 -0.3616 -2.7408
18409TIP3   OH276641   0.724   3.049  12.170  0.0712 -0.3553  0.3382
18409TIP3    H176642   0.730   3.040  12.075  1.1239 -3.1099  0.5648
18409TIP3    H276643   0.815   3.042  12.201 -0.4763 -3.5670  1.6781
18410TIP3   OH276644   0.899   1.232   5.609  0.1186 -0.5590  0.5482
18410TIP3    H176645   0.982   1.241   5.655 -0.2793 -0.8808  1.3472
18410TIP3    H276646   0.919   1.177   5.533  0.2976 -2.1429  1.6921
18411TIP3   OH276647   4.522   3.621   0.038  0.3814  0.1653  0.4208
18411TIP3    H176648   4.613   3.651   0.029  0.0953  1.1467  0.6813
18411TIP3    H276649   4.480   3.689   0.091  0.0146 -1.3565  2.1942
18412TIP3   OH276650   4.192   4.972  16.032  0.3012  0.1211 -0.4034
18412TIP3    H176651   4.159   5.005  15.949  1.4319 -0.2352 -1.0129
18412TIP3    H276652   4.235   4.889  16.010  0.1612 -0.2408  0.6196
18413TIP3   OH276653   0.001   3.919   5.041 -0.4704 -0.3535 -0.1747
18413TIP3    H176654  -0.032   3.931   4.952 -2.3668  1.5802  0.7208
18413TIP3    H276655  -0.066   3.958   5.098  1.5537  0.2022  1.9970
18414TIP3   OH276656   3.269   1.009  15.856 -0.2049 -0.4855  0.1115
18414TIP3    H176657   3.290   0.985  15.946 -1.7969 -0.4514  0.5236
18414TIP3    H276658   3.332   0.961  15.803  0.5663 -0.7446  1.2237
18415TIP3   OH276659   2.361   3.774   4.542 -0.4305 -0.1177  0.0227
18415TIP3    H176660   2.332   3.692   4.581 -0.0435  0.2562  1.1373
18415TIP3    H276661   2.357   3.838   4.614 -0.9914  0.9054 -0.8876
18416TIP3   OH276662   6.190   5.991  11.057  0.0154 -0.4729  0.2123
18416TIP3    H176663   6.186   5.996  10.962  1.2540 -2.1049  0.0370
18416TIP3    H276664   6.185   6.082  11.086  2.8340  0.3866 -1.6028
18417TIP3   OH276665   4.531   1.502  17.304  0.1753  0.6831 -0.1043
18417TIP3    H176666   4.506   1.569  17.368 -0.7609  0.0048  0.2546
18417TIP3    H276667   4.613   1.466  17.338 -0.4006  0.2118  0.8117
18418TIP3   OH276668   3.464   6.565  16.045  0.0393 -0.0644  0.2111
18418TIP3    H176669   3.376   6.580  16.013  0.5554 -0.6073 -1.5867
18418TIP3    H276670   3.453   6.507  16.120 -1.2805  1.9056  1.6370
18419TIP3   OH276671   5.687   3.078  14.768  0.3607 -0.3082  0.3873
18419TIP3    H176672   5.647   2.991  14.772  0.2739 -0.4456 -1.8244
18419TIP3    H276673   5.691   3.108  14.859 -1.0950 -1.9433  1.0424
18420TIP3   OH276674   5.515   5.606   0.457 -0.4934  0.9311 -0.2309
18420TIP3    H176675   5.589   5.590   0.516  0.0411  1.3923 -0.7613
18420TIP3    H276676   5.446   5.548   0.489  1.1993 -2.2379 -1.8724
18421TIP3   OH276677   0.022   5.028   0.549 -0.3769 -0.5502 -0.2673
18421TIP3    H176678   0.022   5.033   0.454 -0.7367  0.4439 -0.2209
18421TIP3    H276679   0.078   4.952   0.569  0.2318 -0.3716 -1.2402
18422TIP3   OH276680   5.449   0.214   0.175 -0.4069 -0.3137  0.6379
18422TIP3    H176681   5.409   0.236   0.091 -0.0133  0.3861  0.6251
18422TIP3    H276682   5.437   0.120   0.184 -1.2204 -0.2554  0.2008
18423TIP3   OH276683   1.684   1.708   2.784 -0.0231  0.4519  1.0701
18423TIP3    H176684   1.658   1.694   2.693  1.2734  2.8916  0.2258
18423TIP3    H276685   1.620   1.769   2.819  1.2841  2.1442  0.6793
18424TIP3   OH276686   2.513   2.422  14.645  0.0851  0.1013 -0.2563
18424TIP3    H176687   2.595   2.460  14.613  0.5208 -1.2924 -0.8799
18424TIP3    H276688   2.454   2.425  14.570  0.0973 -0.3731 -0.2865
18425TIP3   OH276689   3.935   5.207  13.562  0.2432  0.4080  0.2267
18425TIP3    H176690   3.974   5.279  13.512  1.6209  0.0545  0.7569
18425TIP3    H276691   4.009   5.152  13.588 -0.8570 -2.0797 -1.4588
18426TIP3   OH276692   1.805   5.378  11.534 -0.7651  0.5286  0.1789
18426TIP3    H176693   1.720   5.365  11.575 -0.0499  1.1562  2.0028
18426TIP3    H276694   1.822   5.472  11.545 -0.0162  0.4827 -0.5206
18427TIP3   OH276695   2.243   6.187  15.613  0.1890 -0.7382  0.2265
18427TIP3    H176696   2.229   6.123  15.543  0.4778 -0.6065  0.0444
18427TIP3    H276697   2.326   6.229  15.590  1.5290 -2.3215  1.8682
18428TIP3   OH276698   0.900   0.434  13.398  0.1580  0.3201 -0.1213
18428TIP3    H176699   0.892   0.339  13.397  0.6394  0.2826 -0.2467
18428TIP3    H276700   0.955   0.455  13.323  0.6292  0.6425  0.3058
18429TIP3   OH276701   0.316   4.201  13.246  0.2228  0.5540  0.1649
18429TIP3    H176702   0.300   4.279  13.192 -0.2077 -0.4839 -1.2752
18429TIP3    H276703   0.316   4.234  13.336 -0.4434  2.1369 -0.3702
18430TIP3   OH276704   5.038   0.541  11.555 -0.5650 -0.1101 -0.4155
18430TIP3    H176705   4.991   0.459  11.567  0.4689 -0.4390  2.0258
18430TIP3    H276706   5.051   0.575  11.644 -0.3832  2.3810 -1.3068
18431TIP3   OH276707   5.474   1.863  11.700 -0.4988 -0.1753 -0.2040
18431TIP3    H176708   5.399   1.900  11.654 -1.2504  0.6810  1.5768
18431TIP3    H276709   5.496   1.784  11.652 -1.1274  0.7195 -2.0588
18432TIP3   OH276710   1.859   1.633   4.439 -0.4866 -0.0010  0.0833
18432TIP3    H176711   1.809   1.712   4.459  0.8260  1.0905 -0.7809
18432TIP3    H276712   1.942   1.665   4.405  0.5417 -1.7623  0.8031
18433TIP3   OH276713   6.119   0.793  15.815 -0.2759  0.0354 -0.0669
18433TIP3    H176714   6.041   0.819  15.864 -0.9232 -0.3936 -0.8377
18433TIP3    H276715   6.087   0.731  15.750  1.1901 -2.7194  1.6511
18434TIP3   OH276716   0.136   0.323  17.205  0.0179  0.2884  0.0117
18434TIP3    H176717   0.199   0.279  17.262  0.0485 -1.7399 -1.4727
18434TIP3    H276718   0.080   0.252  17.173 -0.4225  1.4526 -1.9270
18435TIP3   OH276719   4.159   5.378  12.643  0.1240  0.0436 -0.1204
18435TIP3    H176720   4.090   5.313  12.627  0.3082 -0.0230 -0.6765
18435TIP3    H276721   4.240   5.326  12.647  0.2619  0.2203 -0.4884
18436TIP3   OH276722   1.446   4.821  12.210 -0.0078  0.0007  0.0778
18436TIP3    H176723   1.414   4.865  12.289  0.6342 -0.7504  0.7718
18436TIP3    H276724   1.512   4.881  12.175 -0.2296  0.2940  0.1538
18437TIP3   OH276725   3.149   5.839   1.122 -0.3806  0.6648 -0.1013
18437TIP3    H176726   3.067   5.883   1.098 -0.5102  0.4496 -0.0582
18437TIP3    H276727   3.217   5.892   1.081 -0.5425  0.8299 -0.1618
18438TIP3   OH276728   2.867   3.985  14.399 -0.1318 -0.5499 -0.0253
18438TIP3    H176729   2.797   3.932  14.360  0.0798 -0.7384 -0.1547
18438TIP3    H276730   2.874   4.061  14.341 -1.4940  0.4274  1.0088
18439TIP3   OH276731   6.161   5.115   4.324  0.4087 -0.0056 -0.0485
18439TIP3    H176732   6.131   5.107   4.234  1.3910  0.4487 -0.4321
18439TIP3    H276733   6.189   5.207   4.332  1.1751 -0.2662  0.4339
18440TIP3   OH276734   0.963   2.838  12.909  0.7463  0.3915  0.1895
18440TIP3    H176735   0.932   2.815  12.997 -1.6928  1.4053 -0.3095
18440TIP3    H276736   1.001   2.925  12.919 -0.0163  0.7379  0.1909
18441TIP3   OH276737   2.817   0.049  12.379  0.2691 -0.3558 -1.1602
18441TIP3    H176738   2.860   0.027  12.296  0.1256 -0.3165 -1.2471
18441TIP3    H276739   2.879   0.022  12.446  0.5240 -0.0939 -1.2858
18442TIP3   OH276740   4.976   5.790   0.998 -0.0104 -0.3985  0.1901
18442TIP3    H176741   4.910   5.775   0.929  0.7975 -0.1363 -0.6523
18442TIP3    H276742   4.939   5.860   1.051 -1.5098 -1.8404  1.1775
18443TIP3   OH276743   1.280   1.346  17.168  0.3178 -0.7305 -0.2522
18443TIP3    H176744   1.326   1.374  17.088 -0.7318 -0.4147 -0.7590
18443TIP3    H276745   1.239   1.426  17.201  0.3519 -0.9590  0.3536
18444TIP3   OH276746   0.006   6.450  16.337 -0.4395  0.3188 -0.2547
18444TIP3    H176747  -0.009   6.442  16.431  0.4537  0.0084 -0.1281
18444TIP3    H276748  -0.081   6.467  16.300 -0.7332  0.8903  0.6666
18445TIP3   OH276749   6.430   0.714  13.759 -0.9514  0.2226 -0.7458
18445TIP3    H176750   6.407   0.648  13.824  0.4700  0.7916  0.4007
18445TIP3    H276751   6.500   0.673  13.708  0.4862  1.0350  0.4665
18446TIP3   OH276752   0.950   1.010  16.978 -0.4082 -0.1616 -0.1553
18446TIP3    H176753   0.975   1.102  16.989 -1.3639  0.4168 -2.1664
18446TIP3    H276754   0.980   0.967  17.057  1.4307  1.5936  0.1837
18447TIP3   OH276755   4.558   2.086  16.167  0.2954 -0.1565 -0.3739
18447TIP3    H176756   4.551   2.063  16.074  1.0978 -2.5821  0.0932
18447TIP3    H276757   4.651   2.083  16.185  0.2571  1.6478  0.2424
18448TIP3   OH276758   2.794   5.135  14.923  0.3418  0.0454  0.1962
18448TIP3    H176759   2.811   5.064  14.860  2.2641  1.2218 -0.7416
18448TIP3    H276760   2.844   5.109  15.001  0.4331  0.0093  0.1272
18449TIP3   OH276761   6.392   0.525   2.973 -0.0269 -0.3024 -0.0084
18449TIP3    H176762   6.325   0.592   2.989 -0.6242 -1.1292  1.0484
18449TIP3    H276763   6.432   0.510   3.058  2.7258  1.3733 -0.8883
18450TIP3   OH276764   5.139   0.118   2.812 -0.5179  0.0447  0.0375
18450TIP3    H176765   5.181   0.074   2.886 -0.9957  1.2250  1.0410
18450TIP3    H276766   5.113   0.046   2.753  2.0649 -0.7970 -0.2274
18451TIP3   OH276767   0.769   6.250  16.037  0.6606 -0.1368 -0.3621
18451TIP3    H176768   0.789   6.306  16.112 -1.6168  0.1071  0.1428
18451TIP3    H276769   0.714   6.304  15.981 -1.0005 -1.5855 -0.2096
18452TIP3   OH276770   0.564   0.064   4.596 -0.0189  0.4784  0.1645
18452TIP3    H176771   0.548  -0.029   4.610  0.3211  0.4499  0.3678
18452TIP3    H276772   0.568   0.074   4.501 -0.3877  0.3423  0.1344
18453TIP3   OH276773   5.774   0.863  14.364  0.1903  0.2988 -0.3764
18453TIP3    H176774   5.804   0.772  14.366  0.9183  0.5392  0.1753
18453TIP3    H276775   5.843   0.912  14.409  0.4555  1.3152 -1.8304
18454TIP3   OH276776   3.988   5.365   1.254 -0.0657  0.2968 -0.4476
18454TIP3    H176777   3.928   5.436   1.232  0.7241  1.6784  1.5508
18454TIP3    H276778   3.946   5.286   1.219 -2.2993  1.3989 -0.4143
18455TIP3   OH276779   3.391   0.335  12.047 -0.1532 -0.1155  0.1831
18455TIP3    H176780   3.429   0.275  11.983  1.1789  1.9615 -1.0983
18455TIP3    H276781   3.426   0.306  12.131  2.1764  0.0662 -0.6591
18456TIP3   OH276782   4.126   3.609  12.956  0.1732  0.4587 -0.0551
18456TIP3    H176783   4.207   3.642  12.916 -0.9745  1.2649 -1.8683
18456TIP3    H276784   4.088   3.553  12.889  0.5468 -2.2372  1.8413
18457TIP3   OH276785   5.598   0.652  12.115 -0.0676 -0.2253  0.1478
18457TIP3    H176786   5.667   0.586  12.125 -0.5012 -0.7480 -0.2338
18457TIP3    H276787   5.600   0.702  12.196  1.7106  0.6910 -0.4148
18458TIP3   OH276788   2.995   3.071  14.993  0.0373 -0.4972 -0.0518
18458TIP3    H176789   2.972   3.032  15.077 -0.8889 -2.4542 -1.1316
18458TIP3    H276790   3.080   3.031  14.971  0.3136  0.0631 -0.0225
18459TIP3   OH276791   3.428   1.958   4.770 -0.3709 -0.4412 -0.1846
18459TIP3    H176792   3.340   1.932   4.796  0.4286 -0.1068  3.3369
18459TIP3    H276793   3.415   2.034   4.713 -2.3569  0.2764  1.1369
18460TIP3   OH276794   5.552   3.540   5.287 -0.2162 -0.5663  0.2206
18460TIP3    H176795   5.570   3.491   5.367  0.6729  1.4823  1.3629
18460TIP3    H276796   5.566   3.632   5.311 -1.6047  0.2666 -1.8507
18461TIP3   OH276797   4.298   5.532   2.454 -0.7402  0.4049  0.0487
18461TIP3    H176798   4.265   5.608   2.406  1.4751  2.7133  1.9170
18461TIP3    H276799   4.368   5.497   2.400 -0.3941  1.0091  0.0959
18462TIP3   OH276800   0.693   3.400  16.454 -0.4171 -0.2865  0.1241
18462TIP3    H176801   0.758   3.357  16.398  0.9255  0.5218  0.9857
18462TIP3    H276802   0.696   3.349  16.536 -3.0512 -2.0573 -0.7541
18463TIP3   OH276803   2.228   6.393  15.113 -0.1558 -0.2454  0.1439
18463TIP3    H176804   2.255   6.479  15.080  0.1171 -0.2148  0.4407
18463TIP3    H276805   2.291   6.373  15.182 -0.9278 -0.1404  0.8959
18464TIP3   OH276806   0.999   3.132   2.677 -0.4872 -0.4844  0.1824
18464TIP3    H176807   1.009   3.184   2.756 -1.1601 -0.8843  0.5362
18464TIP3    H276808   1.060   3.059   2.689  2.3480  1.4023 -1.3940
18465TIP3   OH276809   2.805   5.222   1.137  0.3355  0.1608 -0.2364
18465TIP3    H176810   2.755   5.140   1.138  0.9223 -0.2402  1.8008
18465TIP3    H276811   2.802   5.253   1.228  1.0764  1.8106 -0.7389
18466TIP3   OH276812   3.235   1.551  17.221 -0.1410 -1.0001 -0.3181
18466TIP3    H176813   3.156   1.605  17.225 -0.0684 -0.9661  2.1276
18466TIP3    H276814   3.295   1.601  17.165 -0.6442  0.7215  0.5967
18467TIP3   OH276815   6.219   2.250   0.831  0.5305 -0.1034 -0.2384
18467TIP3    H176816   6.171   2.170   0.852  0.9209 -0.1116  0.6840
18467TIP3    H276817   6.169   2.291   0.761 -0.7510 -0.1970  0.5822
18468TIP3   OH276818   2.341   6.328  12.991  0.3447 -0.5614  0.2203
18468TIP3    H176819   2.396   6.278  12.931 -0.0964 -1.5983  0.6654
18468TIP3    H276820   2.251   6.307  12.965  0.1417 -1.3790  1.5097
18469TIP3   OH276821   3.505   4.764  15.554  0.1342 -0.4199  0.1139
18469TIP3    H176822   3.449   4.686  15.558 -1.6915  0.8443  0.7610
18469TIP3    H276823   3.569   4.751  15.624  1.3932 -2.3578 -1.2840
18470TIP3   OH276824   2.895   6.432   0.368 -0.3651 -0.8536 -0.2472
18470TIP3    H176825   2.950   6.509   0.352 -0.2551 -0.4176  1.9763
18470TIP3    H276826   2.942   6.381   0.433 -2.6411 -0.3252  1.9814
18471TIP3   OH276827   4.061   6.143   4.478 -0.3175  0.4443  0.2623
18471TIP3    H176828   4.015   6.215   4.435  1.8055  1.3168 -0.6881
18471TIP3    H276829   4.122   6.185   4.539  0.8247 -0.5254 -0.1621
18472TIP3   OH276830   3.079   6.126  13.086  0.0613 -0.4497 -0.4447
18472TIP3    H176831   3.009   6.063  13.097 -0.4786  0.2877  0.5199
18472TIP3    H276832   3.062   6.167  13.001 -0.1746 -0.8781 -0.6043
18473TIP3   OH276833   6.233   4.266  13.378  0.0011  0.2790 -0.1459
18473TIP3    H176834   6.156   4.299  13.423 -0.0698  0.8423 -0.6639
18473TIP3    H276835   6.299   4.334  13.390  0.8113 -0.6936  1.2720
18474TIP3   OH276836   4.102   1.613  12.996 -0.2048 -0.1006  0.2227
18474TIP3    H176837   4.073   1.524  13.017 -1.0380  0.0425 -0.2752
18474TIP3    H276838   4.131   1.608  12.905 -1.9810  0.5184 -0.4167
18475TIP3   OH276839   3.736   5.290   5.075 -0.0245  0.1048 -0.2993
18475TIP3    H176840   3.708   5.362   5.018  0.3091  0.3807 -0.1203
18475TIP3    H276841   3.800   5.330   5.133  0.6096 -0.4706 -0.5926
18476TIP3   OH276842   6.694   0.988  14.617  0.1685  0.0246  0.7749
18476TIP3    H176843   6.647   0.909  14.643  0.6540 -0.7030 -0.4245
18476TIP3    H276844   6.752   0.958  14.546 -0.7743  1.7410 -0.8076
18477TIP3   OH276845   6.041   1.633   0.997  0.4900 -0.3243 -0.6804
18477TIP3    H176846   6.005   1.570   1.060 -0.1612 -0.9094 -1.6079
18477TIP3    H276847   5.965   1.677   0.961  0.8743  0.1883 -0.8803
18478TIP3   OH276848   3.722   6.655   2.845  0.3022  0.0002  0.5614
18478TIP3    H176849   3.720   6.634   2.752 -0.7960 -0.0422  0.5827
18478TIP3    H276850   3.756   6.576   2.887 -0.7369 -0.5995  0.3339
18479TIP3   OH276851   0.036   3.797  12.859  0.0998  0.2193  0.5433
18479TIP3    H176852   0.089   3.815  12.782 -0.8071 -2.4774 -0.8473
18479TIP3    H276853   0.069   3.714  12.892 -0.3500  0.7114  2.3424
18480TIP3   OH276854   3.941   0.665  13.098  0.0249 -0.1892 -0.0098
18480TIP3    H176855   4.028   0.702  13.087 -0.1816  0.2726 -0.1029
18480TIP3    H276856   3.885   0.718  13.042 -0.2992 -0.5526 -0.0345
18481TIP3   OH276857   2.014   4.918   3.837  0.2269 -0.6140  0.2282
18481TIP3    H176858   1.978   4.942   3.752  1.9886  0.9363 -0.1554
18481TIP3    H276859   2.094   4.869   3.816 -0.0806 -1.4752  1.0165
18482TIP3   OH276860   0.356   6.740  14.612 -0.1671 -0.0025 -0.3665
18482TIP3    H176861   0.326   6.820  14.568 -0.0959 -0.2629 -0.8890
18482TIP3    H276862   0.426   6.770  14.669 -0.7407  0.4548  0.1220
18483TIP3   OH276863   6.704   5.328   4.643 -0.9075  0.1021  0.4462
18483TIP3    H176864   6.798   5.312   4.634 -0.5528  1.8154  0.7750
18483TIP3    H276865   6.695   5.423   4.633 -2.6023 -0.0393  0.4518
18484TIP3   OH276866   1.336   1.621   2.325 -0.0003  0.2942  0.7780
18484TIP3    H176867   1.376   1.558   2.384 -2.2201  0.8203  3.0257
18484TIP3    H276868   1.313   1.695   2.381 -2.5425  0.6937 -0.6360
18485TIP3   OH276869   2.647   1.375   3.251  0.5805 -0.2444 -0.2881
18485TIP3    H176870   2.604   1.375   3.337 -0.8526  1.0201 -0.9385
18485TIP3    H276871   2.676   1.466   3.239 -2.0644  0.4951 -2.3669
18486TIP3   OH276872   4.602   2.900  15.292  0.0795 -0.4439  0.5787
18486TIP3    H176873   4.527   2.857  15.335 -1.8464  0.3831 -1.7259
18486TIP3    H276874   4.599   2.868  15.202 -0.3470  3.0085 -0.7692
18487TIP3   OH276875   4.460   0.186  13.450  0.0274  0.1105  0.1434
18487TIP3    H176876   4.516   0.111  13.429  1.4547  0.6714  1.7530
18487TIP3    H276877   4.478   0.204  13.542 -0.5910  2.1668 -0.0957
18488TIP3   OH276878   3.659   6.514   0.858  0.1754 -0.4913 -0.0942
18488TIP3    H176879   3.650   6.546   0.948 -0.3974 -0.8482 -0.0160
18488TIP3    H276880   3.725   6.446   0.864  2.4219  1.5139 -0.4973
18489TIP3   OH276881   0.822   0.523   5.679 -0.3934  0.5179  0.4030
18489TIP3    H176882   0.751   0.474   5.721 -0.5282  0.5966  0.2687
18489TIP3    H276883   0.859   0.575   5.750 -1.2857  1.4251  0.2392
18490TIP3   OH276884   3.323   5.937  14.354  0.0574 -0.3408  0.6350
18490TIP3    H176885   3.401   5.971  14.399 -0.3694  1.8501 -0.1258
18490TIP3    H276886   3.323   5.843  14.373  2.2333 -0.2110  1.6043
18491TIP3   OH276887   4.991   4.623  13.443  0.4785 -0.1362 -0.0051
18491TIP3    H176888   4.999   4.699  13.386 -0.4641  0.5577  0.7657
18491TIP3    H276889   5.062   4.633  13.507  2.2907 -1.5192 -1.6583
18492TIP3   OH276890   0.624   5.431   4.810  0.5527 -0.0349 -0.3193
18492TIP3    H176891   0.569   5.433   4.888  0.4526 -0.7253 -0.3634
18492TIP3    H276892   0.614   5.342   4.776  1.1260  0.0540 -0.7384
18493TIP3   OH276893   0.912   4.989  12.995 -0.6614  0.7387 -0.9122
18493TIP3    H176894   0.839   5.029  13.042 -0.7262  1.5630 -1.6928
18493TIP3    H276895   0.884   4.898  12.980 -0.6222  0.4369  0.6355
18494TIP3   OH276896   5.826   6.305  16.280  0.3210  0.3414  0.0830
18494TIP3    H176897   5.842   6.335  16.191 -0.3594 -0.4188 -0.2948
18494TIP3    H276898   5.835   6.210  16.276 -0.4550  0.2346  0.6645
18495TIP3   OH276899   5.156   5.593   5.057  0.1077  0.0201  0.4765
18495TIP3    H176900   5.149   5.677   5.012  1.9229 -0.5671 -1.0318
18495TIP3    H276901   5.250   5.573   5.056 -0.3071 -2.2444  0.3562
18496TIP3   OH276902   4.357   5.271  16.187 -0.3287  0.2318  0.1341
18496TIP3    H176903   4.348   5.297  16.279  0.7966 -1.9227  0.9246
18496TIP3    H276904   4.295   5.328  16.140 -0.4125  1.8874  2.0974
18497TIP3   OH276905   4.875   5.056  15.596 -0.0492  0.2035 -0.1462
18497TIP3    H176906   4.937   4.983  15.585 -0.7994 -0.4267 -0.2778
18497TIP3    H276907   4.795   5.026  15.552 -0.6917  0.6957  0.6715
18498TIP3   OH276908   4.476   4.166   0.514 -0.4330 -0.0610 -0.3189
18498TIP3    H176909   4.429   4.124   0.443 -2.6483  0.5346  0.7065
18498TIP3    H276910   4.569   4.149   0.496 -1.0752 -2.2870 -1.7977
18499TIP3   OH276911   4.779   5.835  12.474  0.0459 -0.4928  0.9554
18499TIP3    H176912   4.691   5.866  12.495  0.6944  1.1101  1.4622
18499TIP3    H276913   4.783   5.837  12.378  0.3350  2.0127  0.9405
18500TIP3   OH276914   0.778   4.881  14.445 -0.1600 -0.5400 -0.9361
18500TIP3    H176915   0.702   4.854  14.497 -1.8145  2.7883 -1.3377
18500TIP3    H276916   0.745   4.884  14.355  0.5789  0.4006 -1.1934
18501TIP3   OH276917   0.922   0.215   1.960  0.0235 -0.1366  0.6745
18501TIP3    H176918   0.882   0.129   1.966  0.0192 -0.0995  1.2170
18501TIP3    H276919   0.960   0.218   1.873 -0.8492 -0.3085  0.2706
18502TIP3   OH276920   3.014   0.801  15.120  0.3676  0.0534 -0.0161
18502TIP3    H176921   3.059   0.812  15.036 -0.1929 -1.9535 -0.6530
18502TIP3    H276922   2.927   0.768  15.096  0.0710 -0.1873  1.3348
18503TIP3   OH276923   5.327   1.704   3.958  0.2234 -0.3801  0.1152
18503TIP3    H176924   5.397   1.762   3.989 -0.3599  1.6766 -2.1679
18503TIP3    H276925   5.354   1.617   3.988  3.1324  0.5038  0.3818
18504TIP3   OH276926   5.237   2.433   4.410 -0.4205 -0.0143  0.2640
18504TIP3    H176927   5.262   2.507   4.353 -1.8969 -1.5786 -2.6656
18504TIP3    H276928   5.291   2.360   4.380 -1.7657 -1.0761  0.3257
18505TIP3   OH276929   1.611   1.397   3.528 -0.0398  0.6737  0.1804
18505TIP3    H176930   1.607   1.459   3.455  1.6643  0.2486 -0.3262
18505TIP3    H276931   1.651   1.318   3.490 -2.0469 -0.7335  0.8324
18506TIP3   OH276932   1.132   0.157  12.884  0.3541 -0.5079 -0.5263
18506TIP3    H176933   1.196   0.087  12.882  1.0020  0.0665 -0.3880
18506TIP3    H276934   1.091   0.156  12.797 -0.7865 -2.0654 -0.0165
18507TIP3   OH276935   5.319   6.433   6.809 -0.1406  0.1161  0.0277
18507TIP3    H176936   5.382   6.435   6.881 -2.6269  3.9389  2.4722
18507TIP3    H276937   5.345   6.506   6.753 -2.7135  2.5101  1.6877
18508TIP3   OH276938   3.319   4.577  12.534 -0.1491 -0.2184 -0.0946
18508TIP3    H176939   3.270   4.642  12.484 -0.0453  0.0961  0.2002
18508TIP3    H276940   3.346   4.624  12.613  2.8739  0.4931 -1.3730
18509TIP3   OH276941   3.921   6.523   4.965  0.2970  0.3103 -0.0563
18509TIP3    H176942   3.948   6.508   4.875  0.2793  1.1982 -0.2212
18509TIP3    H276943   3.941   6.615   4.981  1.6223 -0.1715  1.3017
18510TIP3   OH276944   6.496   0.009   1.117  1.1648 -0.0377 -0.1155
18510TIP3    H176945   6.477   0.032   1.026  0.3807  1.7505  0.4666
18510TIP3    H276946   6.421  -0.045   1.144  1.7636 -1.2204 -0.7178
18511TIP3   OH276947   0.553   4.781  13.463 -0.0917  0.0151  0.1264
18511TIP3    H176948   0.620   4.836  13.422 -0.8430  2.4887  1.9588
18511TIP3    H276949   0.601   4.729  13.528  0.3059  0.4663  0.2044
18512TIP3   OH276950   2.549   0.613   6.175 -0.1320 -0.1798 -0.0104
18512TIP3    H176951   2.614   0.545   6.193 -1.1009 -1.2492 -0.3715
18512TIP3    H276952   2.504   0.625   6.259 -1.5593 -1.7811 -0.4916
18513TIP3   OH276953   4.873   1.558   3.940  0.3765 -0.5297  0.0715
18513TIP3    H176954   4.871   1.525   3.850  0.7658 -1.8669  0.5335
18513TIP3    H276955   4.792   1.527   3.980  0.4450 -0.3800  0.3301
18514TIP3   OH276956   0.310   6.357  12.193 -0.3733  0.0990  0.2063
18514TIP3    H176957   0.318   6.428  12.129  1.3608  0.2784  0.5692
18514TIP3    H276958   0.321   6.277  12.141 -1.4141  0.1098 -0.0620
18515TIP3   OH276959   3.322   5.705   2.652 -0.2172 -0.1708  0.0230
18515TIP3    H176960   3.356   5.629   2.700 -0.8566  1.0012  2.4648
18515TIP3    H276961   3.236   5.721   2.691 -0.9610  0.6118 -1.8382
18516TIP3   OH276962   5.869   2.018   2.010  0.0902  0.0556 -0.7981
18516TIP3    H176963   5.833   1.932   2.031 -2.7309  0.6141 -2.7718
18516TIP3    H276964   5.807   2.056   1.948  1.2644  3.4798 -0.1304
18517TIP3   OH276965   3.680   2.727  16.981 -0.4322  0.7604  0.1251
18517TIP3    H176966   3.615   2.675  16.933  1.0453 -1.6835  0.6081
18517TIP3    H276967   3.630   2.764  17.054 -1.6161  0.2619 -0.3915
18518TIP3   OH276968   4.249   3.185   2.551 -0.1552  0.0397 -0.4113
18518TIP3    H176969   4.167   3.225   2.583 -0.3047  0.0928 -0.8469
18518TIP3    H276970   4.311   3.197   2.623 -0.6945 -0.5404  0.1614
18519TIP3   OH276971   3.375   2.122   2.957  0.2023  0.2473  0.1480
18519TIP3    H176972   3.429   2.086   3.028  2.1586 -1.4229 -2.0200
18519TIP3    H276973   3.417   2.205   2.935  0.5822 -0.0049 -0.0941
18520TIP3   OH276974   2.863   5.286  15.779 -0.2646  0.1526 -0.3003
18520TIP3    H176975   2.784   5.326  15.815  0.0338 -0.6157  1.3241
18520TIP3    H276976   2.894   5.227  15.849  3.4506  2.6989  0.5124
18521TIP3   OH276977   2.260   4.790   0.302 -0.3005  0.2451  0.2401
18521TIP3    H176978   2.291   4.880   0.304  1.0787 -0.2136  0.5317
18521TIP3    H276979   2.205   4.782   0.380 -0.7899  0.9445 -0.0247
18522TIP3   OH276980   5.248   4.641  17.121 -0.0266  0.4046 -0.5576
18522TIP3    H176981   5.320   4.579  17.136 -0.3025 -0.4649 -2.5240
18522TIP3    H276982   5.283   4.725  17.150  1.1486 -0.2876  0.1449
18523TIP3   OH276983   3.781   3.567   3.595 -0.6550 -0.3939 -0.5611
18523TIP3    H176984   3.830   3.637   3.551 -1.1605 -0.8647 -1.9584
18523TIP3    H276985   3.831   3.548   3.674  1.0953 -0.4621 -1.6268
18524TIP3   OH276986   4.426   3.147  11.573  0.2755 -0.1531  0.0780
18524TIP3    H176987   4.410   3.229  11.526  0.0304 -1.5267 -2.4140
18524TIP3    H276988   4.509   3.115  11.537  1.5077 -0.0011  2.5938
18525TIP3   OH276989   5.028   4.934  17.150 -0.4021 -0.1846  0.1246
18525TIP3    H176990   4.974   4.945  17.072  0.0294  0.1066 -0.1362
18525TIP3    H276991   5.074   5.017  17.160 -1.1373  0.1195  1.2243
18526TIP3   OH276992   2.926   3.041  11.034 -0.0800 -0.6574 -0.3809
18526TIP3    H176993   2.913   3.013  11.125  1.7144  0.9699  0.4587
18526TIP3    H276994   2.992   3.110  11.040 -0.8905  0.4310 -2.7968
18527TIP3   OH276995   3.064   4.258  17.132 -0.2714  0.0898 -0.3695
18527TIP3    H176996   2.994   4.251  17.067 -0.6981  1.3292 -0.0530
18527TIP3    H276997   3.097   4.168  17.140 -2.8954 -0.8966  0.6896
18528TIP3   OH276998   4.208   0.230  15.950  0.0009  0.2159 -0.0798
18528TIP3    H176999   4.287   0.197  15.907 -0.0601 -0.7044  0.4722
18528TIP3    H277000   4.137   0.185  15.904 -0.0979 -0.2531  0.5181
18529TIP3   OH277001   2.696   4.581   5.966  0.7688  0.4096 -0.1476
18529TIP3    H177002   2.630   4.530   6.013  0.1063  0.3207 -1.1398
18529TIP3    H277003   2.761   4.517   5.938 -0.0598  0.0708 -1.3886
18530TIP3   OH277004   3.027   3.141   3.231 -0.7832 -0.1728  0.5767
18530TIP3    H177005   3.030   3.104   3.142  0.4837 -0.9438  0.9194
18530TIP3    H277006   2.940   3.180   3.237 -0.6432  0.5473 -1.2684
18531TIP3   OH277007   0.819   5.286   1.621 -0.2240  0.4095 -0.0200
18531TIP3    H177008   0.881   5.357   1.604 -0.4764  0.6708  0.1417
18531TIP3    H277009   0.752   5.295   1.553 -0.2899  0.3697  0.0386
18532TIP3   OH277010   0.674   0.101  16.572  0.4666  0.2994 -0.0922
18532TIP3    H177011   0.687   0.158  16.648 -0.3366 -1.2077  1.2372
18532TIP3    H277012   0.653   0.161  16.501 -1.0362  1.6614  1.4042
18533TIP3   OH277013   2.874   0.556  12.765  0.0688 -0.1075  0.7492
18533TIP3    H177014   2.928   0.584  12.691 -0.6683  0.6680  0.5028
18533TIP3    H277015   2.784   0.571  12.737 -0.3568 -2.1839  0.8298
18534TIP3   OH277016   3.908   3.426   5.447 -0.4808  0.1652  0.7794
18534TIP3    H177017   3.882   3.494   5.385  1.7337  0.4229  0.0506
18534TIP3    H277018   3.855   3.443   5.525 -0.2738  2.4888  0.4880
18535TIP3   OH277019   3.460   2.180   5.545  0.3329 -0.1235  0.1279
18535TIP3    H177020   3.462   2.188   5.449  0.4148 -2.4411 -0.1152
18535TIP3    H277021   3.515   2.252   5.576 -0.0196  0.9198 -1.5266
18536TIP3   OH277022   3.270   1.840  12.415 -0.4108  0.0406  0.1747
18536TIP3    H177023   3.209   1.834  12.341 -0.4125 -0.0853  0.1866
18536TIP3    H277024   3.231   1.907  12.472 -0.0899  0.5819 -0.2365
18537TIP3   OH277025   4.714   3.596   1.789 -0.3280  0.4768  0.0094
18537TIP3    H177026   4.803   3.632   1.793 -0.5859  1.1194  0.0905
18537TIP3    H277027   4.724   3.512   1.745  0.0932  1.3176 -1.5793
18538TIP3   OH277028   0.754   3.409   3.593 -0.0858 -0.1464 -0.1858
18538TIP3    H177029   0.713   3.486   3.633 -0.7760 -0.2131 -0.7397
18538TIP3    H277030   0.706   3.334   3.630 -0.7235 -0.2107 -1.0865
18539TIP3   OH277031   3.715   2.255   2.475 -0.4955 -0.6724 -0.2836
18539TIP3    H177032   3.774   2.324   2.444 -1.0417 -0.2725 -0.4559
18539TIP3    H277033   3.748   2.175   2.435 -0.5624 -0.3264 -1.0538
18540TIP3   OH277034   5.632   2.030   5.217 -0.0837 -0.1416  0.3506
18540TIP3    H177035   5.724   2.006   5.206  0.2013  0.8706  0.4743
18540TIP3    H277036   5.631   2.089   5.292 -0.8940 -0.4404  0.5901
18541TIP3   OH277037   4.676   1.990  13.052 -0.1789  0.8071 -0.2671
18541TIP3    H177038   4.639   2.014  12.967  0.6135  2.5823 -0.1547
18541TIP3    H277039   4.696   2.074  13.094 -0.6633 -0.0165  1.7403
18542TIP3   OH277040   2.537   6.106   5.021  0.2707 -0.1051  0.3754
18542TIP3    H177041   2.489   6.028   4.992 -1.4581  1.5997 -1.6742
18542TIP3    H277042   2.625   6.094   4.987 -0.3174 -0.6184 -1.0604
18543TIP3   OH277043   6.457   1.081   1.442  0.4997 -0.0160  0.3753
18543TIP3    H177044   6.483   0.989   1.443 -1.1206 -0.4969  0.7700
18543TIP3    H277045   6.367   1.081   1.474  0.1725  1.6184 -0.4506
18544TIP3   OH277046   5.638   1.984   4.425 -0.3871 -0.9775 -0.5020
18544TIP3    H177047   5.610   1.986   4.333 -0.2114 -1.6256 -0.5773
18544TIP3    H277048   5.569   2.031   4.472 -0.9835 -1.4966 -0.8391
18545TIP3   OH277049   5.089   1.766   5.594 -0.6513  0.6375  0.0416
18545TIP3    H177050   5.087   1.829   5.522  2.4259  0.2401 -0.5354
18545TIP3    H277051   5.087   1.680   5.551 -2.5770  0.3038  0.7047
18546TIP3   OH277052   0.684   5.998   1.405 -0.2721 -0.2243 -0.3102
18546TIP3    H177053   0.778   5.989   1.422 -0.1971  0.2624 -0.4356
18546TIP3    H277054   0.666   5.938   1.333 -0.1376 -0.6251 -0.0080
18547TIP3   OH277055   5.542   2.905   2.034  0.4311 -0.4773  0.1224
18547TIP3    H177056   5.549   2.828   1.977  0.7420  0.3635 -0.9941
18547TIP3    H277057   5.540   2.868   2.123  1.5344 -1.7284 -0.3392
18548TIP3   OH277058   6.449   1.793   3.998 -0.7096  0.2206 -0.3718
18548TIP3    H177059   6.436   1.722   4.061  0.3372 -0.4242 -0.8511
18548TIP3    H277060   6.361   1.815   3.968 -1.0532 -0.8604 -0.1909
18549TIP3   OH277061   5.953   4.099   5.514 -0.1084  0.2767 -0.1680
18549TIP3    H177062   6.014   4.083   5.586 -1.4904 -2.0762  0.5838
18549TIP3    H277063   5.996   4.064   5.437 -0.7922 -2.3717  0.5352
18550TIP3   OH277064   3.966   1.868   0.418  0.5091  0.1825  0.0595
18550TIP3    H177065   3.945   1.853   0.326  0.7555  0.1225  0.0134
18550TIP3    H277066   4.057   1.840   0.427  0.4217 -0.0083  0.3665
18551TIP3   OH277067   4.209   4.466  14.885 -0.3171  0.1880  0.1206
18551TIP3    H177068   4.270   4.423  14.824 -1.5092  0.4598 -1.3123
18551TIP3    H277069   4.141   4.503  14.829 -1.6356  0.1881  1.6525
18552TIP3   OH277070   5.361   3.530   4.320 -0.0641  0.0646 -0.0409
18552TIP3    H177071   5.267   3.542   4.332 -0.4242 -1.6527 -0.8152
18552TIP3    H277072   5.368   3.470   4.245  1.5490 -1.4265  1.2215
18553TIP3   OH277073   2.637   3.084  12.393 -0.2911  0.5333  0.2792
18553TIP3    H177074   2.674   3.059  12.478 -0.3534  0.0408  0.1619
18553TIP3    H277075   2.698   3.048  12.329 -1.8291 -1.7900  0.0231
18554TIP3   OH277076   5.056   6.379  13.709  0.7419 -0.1438  0.3033
18554TIP3    H177077   5.097   6.331  13.781 -0.2303 -0.2487  0.8118
18554TIP3    H277078   4.988   6.321  13.676 -0.1105  0.6557  0.5898
18555TIP3   OH277079   3.833   6.420   2.937  0.0399 -0.3045 -0.3918
18555TIP3    H177080   3.766   6.352   2.942 -1.0020  0.7296  0.5644
18555TIP3    H277081   3.893   6.391   2.869 -0.1939 -2.3134  0.2179
18556TIP3   OH277082   0.016   0.466  12.238  0.5751 -0.0942 -0.0344
18556TIP3    H177083   0.006   0.417  12.319  0.9146  0.5483  0.4040
18556TIP3    H277084  -0.047   0.426  12.177 -1.8476  1.3091  1.4119
18557TIP3   OH277085   1.496   4.334   0.538  0.1356 -0.6161  0.4325
18557TIP3    H177086   1.535   4.421   0.531 -0.5558 -0.3984 -1.0860
18557TIP3    H277087   1.568   4.273   0.523  0.0134 -0.2310 -2.0709
18558TIP3   OH277088   3.145   2.309   5.947  0.1626  0.2623  0.0861
18558TIP3    H177089   3.102   2.394   5.941 -2.1510 -0.7772  0.9349
18558TIP3    H277090   3.193   2.313   6.030 -0.1577  0.6418  0.2596
18559TIP3   OH277091   2.300   2.116  15.812 -0.4412 -0.2421 -0.3233
18559TIP3    H177092   2.252   2.035  15.794 -2.1775  0.4434  0.8349
18559TIP3    H277093   2.233   2.175  15.847  1.0537  1.2228  0.1823
18560TIP3   OH277094   2.653   3.593   3.599 -0.0076 -0.0766  0.3311
18560TIP3    H177095   2.594   3.550   3.661  0.5697 -1.8093 -0.2666
18560TIP3    H277096   2.731   3.614   3.651 -0.1129 -0.1655  0.5247
18561TIP3   OH277097   4.088   0.285  11.790  0.3125  0.2828 -0.6226
18561TIP3    H177098   4.154   0.323  11.732  1.4749  2.3448  1.8565
18561TIP3    H277099   4.138   0.227  11.848  0.3917  2.8767  2.1608
18562TIP3   OH277100   4.958   3.937  13.715  0.0037  0.8640 -0.0985
18562TIP3    H177101   4.950   3.975  13.628 -1.9881  2.1485  0.5564
18562TIP3    H277102   4.914   3.853  13.709 -0.4187  1.0948 -0.2802
18563TIP3   OH277103   5.488   6.364   4.703 -0.7650  0.4950  0.1231
18563TIP3    H177104   5.396   6.374   4.679 -0.9192  0.1499  0.5710
18563TIP3    H277105   5.487   6.316   4.785 -0.2006  0.8682  0.3563
18564TIP3   OH277106   6.724   1.077  16.015  0.1616 -0.7889  0.0480
18564TIP3    H177107   6.700   1.068  15.923  0.0493  1.3200 -0.1819
18564TIP3    H277108   6.750   0.989  16.042 -0.8220 -1.6717 -1.6938
18565TIP3   OH277109   6.237   2.542   3.221  0.1940  0.3365 -0.0405
18565TIP3    H177110   6.211   2.594   3.297  1.2535 -0.0709  0.6243
18565TIP3    H277111   6.267   2.607   3.157 -1.5102  0.7452 -0.4832
18566TIP3   OH277112   2.665   5.150   0.847  0.2582 -0.4292 -0.1413
18566TIP3    H177113   2.641   5.102   0.926 -0.5600 -2.4310 -1.5246
18566TIP3    H277114   2.611   5.229   0.849 -0.2161 -0.7640  0.9520
18567TIP3   OH277115   2.598   2.491   2.366 -0.4979  0.3062 -0.6145
18567TIP3    H177116   2.608   2.483   2.461  1.2659 -0.8864 -0.8494
18567TIP3    H277117   2.569   2.581   2.352 -0.3266  0.6419  1.0155
18568TIP3   OH277118   6.561   0.854  14.882 -0.1553  0.2745 -0.3373
18568TIP3    H177119   6.602   0.793  14.821 -0.0825 -0.4030  0.3604
18568TIP3    H277120   6.602   0.835  14.967 -0.8727  0.5742  0.0933
18569TIP3   OH277121   5.399   2.991   6.266  0.2833  0.4547 -0.1223
18569TIP3    H177122   5.474   3.047   6.244 -0.2393  1.2665  0.1388
18569TIP3    H277123   5.360   3.033   6.343 -0.8809  0.4558 -0.7003
18570TIP3   OH277124   6.440   5.066  13.026  0.2193 -0.2567 -0.6445
18570TIP3    H177125   6.381   5.111  12.965  0.0636 -0.4540 -0.6407
18570TIP3    H277126   6.383   5.041  13.099  1.0252  3.1500  1.3307
18571TIP3   OH277127   1.553   3.879  11.967 -0.1099 -0.0627 -0.2148
18571TIP3    H177128   1.581   3.888  12.058 -1.1384  1.2876  0.0058
18571TIP3    H277129   1.611   3.812  11.930  0.3533 -0.5994  1.4103
18572TIP3   OH277130   5.681   4.108   2.403 -0.0275 -1.4205 -0.0804
18572TIP3    H177131   5.751   4.131   2.464 -1.6952  0.1081  1.3923
18572TIP3    H277132   5.677   4.013   2.405  0.3792 -1.4367  1.7814
18573TIP3   OH277133   2.473   6.513   0.821 -0.0611  0.3581  0.2863
18573TIP3    H177134   2.470   6.458   0.743  2.4074 -1.6151  1.4520
18573TIP3    H277135   2.434   6.460   0.890  0.2626  0.9968  0.9787
18574TIP3   OH277136   0.652   6.353  11.891 -0.0045 -0.8269  0.4489
18574TIP3    H177137   0.580   6.373  11.832 -0.2248 -0.6395  0.7766
18574TIP3    H277138   0.718   6.311  11.836  0.0049 -0.1974 -0.0264
18575TIP3   OH277139   4.480   6.672  16.741  0.0051  0.3440 -0.0034
18575TIP3    H177140   4.448   6.698  16.655 -3.0133  1.6906  1.4029
18575TIP3    H277141   4.566   6.714  16.749 -0.3134  1.3998 -1.7577
18576TIP3   OH277142   6.446   1.819  16.043 -0.7975  0.6377 -0.0319
18576TIP3    H177143   6.401   1.892  16.086  0.3838  0.2782  1.9634
18576TIP3    H277144   6.526   1.806  16.095 -0.2245 -1.1002 -1.2402
18577TIP3   OH277145   0.524   0.444   2.111 -0.5071  0.0786  0.4492
18577TIP3    H177146   0.463   0.517   2.099  0.8729  1.1925 -0.1470
18577TIP3    H277147   0.500   0.405   2.194 -1.1608  1.3625  0.8816
18578TIP3   OH277148   6.134   5.937  14.675 -0.1672 -0.0224 -0.1277
18578TIP3    H177149   6.123   6.030  14.654 -2.4172 -0.4050 -0.9455
18578TIP3    H277150   6.210   5.935  14.733 -0.2555  2.3714  0.2018
18579TIP3   OH277151   2.039   3.480  15.986 -0.4784 -0.5945  0.6448
18579TIP3    H177152   2.102   3.532  15.936 -0.4379 -0.8176  0.4598
18579TIP3    H277153   2.046   3.392  15.948 -3.2578  0.0390 -1.7057
18580TIP3   OH277154   0.765   6.455  15.345 -0.2130 -0.1935  0.2174
18580TIP3    H177155   0.744   6.529  15.288  1.1039  2.2975  2.7254
18580TIP3    H277156   0.680   6.415  15.366 -1.2347  2.0261  0.5207
18581TIP3   OH277157   6.392   4.971   4.525 -0.3110 -0.3173 -0.1497
18581TIP3    H177158   6.360   4.898   4.579  1.6280 -1.9266 -1.0616
18581TIP3    H277159   6.417   4.931   4.442 -0.8654  1.7154 -1.3725
18582TIP3   OH277160   2.425   3.843   2.019 -0.6108  0.0028 -0.2036
18582TIP3    H177161   2.404   3.751   2.011 -0.0228 -0.1687  0.1169
18582TIP3    H277162   2.465   3.851   2.106 -2.0452  0.8399  0.4129
18583TIP3   OH277163   2.712   4.006  10.772 -0.1695 -0.6039  0.2999
18583TIP3    H177164   2.802   3.977  10.758  0.2455  0.7923 -0.1524
18583TIP3    H277165   2.700   4.077  10.709 -1.1133  0.1642  1.3016
18584TIP3   OH277166   2.799   0.431  10.258  0.5373 -0.1367  0.5214
18584TIP3    H177167   2.713   0.474  10.260  0.6119  0.0632 -0.2084
18584TIP3    H277168   2.845   0.475  10.187  0.8035 -1.0933  0.0935
18585TIP3   OH277169   3.459   1.737   0.046 -0.0222  0.3833  0.3169
18585TIP3    H177170   3.364   1.735   0.034  0.2398 -0.1206 -2.3049
18585TIP3    H277171   3.474   1.680   0.121 -1.7786  0.2499  0.6198
18586TIP3   OH277172   2.882   2.042  14.173 -0.1823 -0.1513  0.4602
18586TIP3    H177173   2.922   2.031  14.087 -1.3912  0.8274 -0.2669
18586TIP3    H277174   2.883   2.136  14.189  0.1364 -0.3262  1.5815
18587TIP3   OH277175   2.182   2.271  16.840  0.2973 -0.3658  0.9842
18587TIP3    H177176   2.088   2.279  16.822  0.0827  0.0170  2.1971
18587TIP3    H277177   2.223   2.337  16.784 -0.0946 -0.9519 -0.0015
18588TIP3   OH277178   1.364   2.852  11.346  0.0106  0.2016  0.4932
18588TIP3    H177179   1.444   2.801  11.357  0.9093  0.2662 -3.9234
18588TIP3    H277180   1.297   2.787  11.325 -0.2229  0.4197  0.5567
18589TIP3   OH277181   6.724   1.757  16.583  0.5040  1.2599  0.3042
18589TIP3    H177182   6.634   1.785  16.599 -0.1416 -0.4161 -0.2724
18589TIP3    H277183   6.764   1.831  16.538 -1.1427  1.3187 -1.1646
18590TIP3   OH277184   1.070   1.742  10.998  0.6676 -0.3054  0.0996
18590TIP3    H177185   1.057   1.650  10.977  0.2013 -0.1171 -0.4590
18590TIP3    H277186   1.118   1.778  10.924 -2.4920  0.7595 -1.6380
18591TIP3   OH277187   3.380   4.599  11.781  0.0934 -0.2214  0.3855
18591TIP3    H177188   3.326   4.668  11.820 -0.0298 -1.3979  2.4643
18591TIP3    H277189   3.339   4.518  11.810  0.7117 -1.1872 -1.3294
18592TIP3   OH277190   3.152   5.185   2.619 -0.4231  0.4598  0.1770
18592TIP3    H177191   3.218   5.210   2.555 -2.9441  0.0584 -2.7888
18592TIP3    H277192   3.191   5.112   2.667  1.1711  0.0222 -1.6815
18593TIP3   OH277193   6.404   0.502  17.346  0.0812  0.3061 -0.3157
18593TIP3    H177194   6.465   0.573  17.364 -0.1207  0.5029 -0.4026
18593TIP3    H277195   6.455   0.440  17.293  0.2460  0.4042 -0.2736
18594TIP3   OH277196   6.320   4.178  15.785  0.0014 -0.3473  0.1286
18594TIP3    H177197   6.327   4.086  15.810 -1.3199 -0.2038  1.0897
18594TIP3    H277198   6.259   4.178  15.710  2.1579 -0.5160 -1.7457
18595TIP3   OH277199   6.701   5.591  15.915  0.4105 -0.3054  0.3175
18595TIP3    H177200   6.664   5.649  15.849  0.4016  0.6275  1.1182
18595TIP3    H277201   6.690   5.639  15.998  1.3197 -1.0147  0.8632
18596TIP3   OH277202   1.402   4.185  15.685 -0.0055  0.1345 -0.2294
18596TIP3    H177203   1.345   4.261  15.698  0.4099  0.5838 -0.9885
18596TIP3    H277204   1.341   4.111  15.678 -0.4620  0.5188 -0.4082
18597TIP3   OH277205   3.568   4.418  11.269  0.0724 -0.4292  0.4277
18597TIP3    H177206   3.538   4.465  11.347  2.2693  0.9182  0.5853
18597TIP3    H277207   3.609   4.338  11.302  0.2641 -0.2604  0.6024
18598TIP3   OH277208   2.320   2.758   0.059 -0.5268 -0.1780 -0.4593
18598TIP3    H177209   2.371   2.690   0.016 -0.3530 -0.0683 -0.4301
18598TIP3    H277210   2.314   2.829  -0.006 -1.0127 -0.3642 -0.6191
18599TIP3   OH277211   4.304   1.055   4.088  0.4440  0.1714  0.3537
18599TIP3    H177212   4.394   1.029   4.067  0.3037  0.8370 -1.2123
18599TIP3    H277213   4.311   1.095   4.175  1.6149  0.0375  0.3506
18600TIP3   OH277214   3.231   2.915  11.603 -0.1603  0.4195 -0.2086
18600TIP3    H177215   3.172   2.974  11.651  1.1598  1.8166 -0.2256
18600TIP3    H277216   3.274   2.972  11.539 -0.3062 -0.9941 -1.6274
18601TIP3   OH277217   0.608   1.398  12.795  0.5621 -0.5227 -0.4946
18601TIP3    H177218   0.610   1.490  12.769  2.0729 -0.5009 -0.3807
18601TIP3    H277219   0.524   1.387  12.839  0.6656  0.9872  0.1181
18602TIP3   OH277220   5.499   0.964  14.458 -0.4702 -0.0716  0.7804
18602TIP3    H177221   5.525   0.881  14.496 -1.5916 -1.5930 -1.4817
18602TIP3    H277222   5.570   0.986  14.398 -1.4617 -1.0788 -0.8750
18603TIP3   OH277223   2.764   2.729  12.539 -0.0003 -0.6253  0.5760
18603TIP3    H177224   2.799   2.645  12.567  0.4392 -0.4816  0.4655
18603TIP3    H277225   2.701   2.707  12.470  0.3527 -0.8427  0.3195
18604TIP3   OH277226   2.724   2.852   0.450  0.0106  0.2064 -0.4831
18604TIP3    H177227   2.772   2.934   0.452  0.1575  0.1056  0.5568
18604TIP3    H277228   2.767   2.797   0.515 -1.0131 -0.1586 -0.0925
18605TIP3   OH277229   1.923   5.606  13.751  0.1567  0.6241  0.3134
18605TIP3    H177230   1.965   5.595  13.836  0.1605 -0.2006  0.2180
18605TIP3    H277231   1.941   5.697  13.727  1.6685  0.3743  0.3861
18606TIP3   OH277232   5.958   1.576  16.547 -0.1030  0.7677 -0.1014
18606TIP3    H177233   6.007   1.655  16.524  1.3732 -0.2128 -0.4391
18606TIP3    H277234   5.962   1.521  16.469  0.8323 -0.5692  0.8276
18607TIP3   OH277235   0.242   2.154  13.537  0.5464 -0.3945  0.2795
18607TIP3    H177236   0.314   2.124  13.593  1.1071 -2.1487 -1.2852
18607TIP3    H277237   0.193   2.216  13.592  1.7192 -1.1557  2.2869
18608TIP3   OH277238   1.500   1.521  16.360 -0.1776  0.6883 -0.1598
18608TIP3    H177239   1.534   1.589  16.302  0.9730 -1.3852 -2.0817
18608TIP3    H277240   1.518   1.439  16.314 -2.8187 -0.8906  1.3613
18609TIP3   OH277241   3.861   4.343   1.376 -0.3483 -0.1911  0.0155
18609TIP3    H177242   3.846   4.393   1.456 -1.1306 -0.9759  0.3805
18609TIP3    H277243   3.884   4.409   1.310  1.4966  0.3661  1.1359
18610TIP3   OH277244   3.533   5.164  14.349  0.0207  0.6721 -0.5314
18610TIP3    H177245   3.588   5.188  14.274 -1.0319 -0.2318 -1.6323
18610TIP3    H277246   3.554   5.072  14.365  0.0440  0.7911  0.1202
18611TIP3   OH277247   4.310   1.773   5.074  0.0127 -0.0303  0.2851
18611TIP3    H177248   4.393   1.800   5.033  0.2673 -2.2171 -0.8655
18611TIP3    H277249   4.252   1.757   5.000 -0.4271 -1.4140  0.8906
18612TIP3   OH277250   5.866   5.667  12.712  0.2269  0.1176  0.1789
18612TIP3    H177251   5.829   5.584  12.740  0.3795 -0.0802 -0.2002
18612TIP3    H277252   5.904   5.649  12.626 -0.3940  0.7521 -0.2477
18613TIP3   OH277253   1.431   6.487  11.789  0.2075 -0.4655 -0.0148
18613TIP3    H177254   1.376   6.409  11.798  0.8856 -0.7602  2.3718
18613TIP3    H277255   1.500   6.462  11.728 -0.2868 -1.2987 -0.2453
18614TIP3   OH277256   0.033   6.184  13.614 -0.4884 -0.1496 -0.2669
18614TIP3    H177257   0.082   6.107  13.587 -0.6265 -0.4463  0.3300
18614TIP3    H277258   0.067   6.206  13.701  0.8478  1.5525 -1.1480
18615TIP3   OH277259   1.527   1.103  14.288 -1.1011 -0.0984 -0.3205
18615TIP3    H177260   1.574   1.175  14.331  0.1650 -0.6786 -0.6839
18615TIP3    H277261   1.558   1.105  14.197 -0.1975 -1.7671 -0.0831
18616TIP3   OH277262   5.449   6.249   1.099  0.7870  0.2775  0.3115
18616TIP3    H177263   5.399   6.303   1.159  2.4716  0.7652  1.3408
18616TIP3    H277264   5.470   6.170   1.149  0.1934 -0.3977 -0.4607
18617TIP3   OH277265   0.501   1.546   3.150 -0.3649  0.0076 -0.2315
18617TIP3    H177266   0.444   1.479   3.111 -0.8823  0.7234 -0.7312
18617TIP3    H277267   0.571   1.557   3.086  0.8705 -1.4974  0.7683
18618TIP3   OH277268   4.891   0.222  10.659 -0.0520 -0.5435  0.2583
18618TIP3    H177269   4.796   0.230  10.661 -0.1083  0.6165 -2.6732
18618TIP3    H277270   4.913   0.176  10.741 -3.1614 -1.5706  0.6442
18619TIP3   OH277271   5.588   0.160   3.352  0.8851 -0.3157  0.2609
18619TIP3    H177272   5.615   0.086   3.298  0.2365 -0.6879  0.4249
18619TIP3    H277273   5.599   0.236   3.296  0.6178 -0.6529 -0.2612
18620TIP3   OH277274   1.899   1.965   3.785  0.5424 -0.5834 -0.2845
18620TIP3    H177275   1.833   1.986   3.718  0.0478  1.0089  0.6388
18620TIP3    H277276   1.855   1.904   3.844  0.2145 -0.3041 -0.2310
18621TIP3   OH277277   3.763   4.637  13.134 -0.0007  0.5116  0.5813
18621TIP3    H177278   3.714   4.717  13.112  2.4302  1.7893 -0.6253
18621TIP3    H277279   3.731   4.572  13.072 -0.8767  1.0014  0.4983
18622TIP3   OH277280   5.468   4.287  12.388 -0.1126  0.2888 -0.5266
18622TIP3    H177281   5.546   4.305  12.441 -1.4022  2.0152  0.8866
18622TIP3    H277282   5.503   4.250  12.307  1.9276 -3.0129  1.5995
18623TIP3   OH277283   3.545   0.378   0.724  0.3279 -0.0773 -0.1022
18623TIP3    H177284   3.606   0.317   0.682 -0.6386  0.1325 -1.9541
18623TIP3    H277285   3.459   0.336   0.714 -0.3235  1.4126 -1.1890
18624TIP3   OH277286   1.226   0.912   5.378  0.4848 -0.4120  0.0658
18624TIP3    H177287   1.201   0.998   5.412  1.0735  0.3158 -1.2711
18624TIP3    H277288   1.225   0.923   5.283  1.4875 -1.6182 -0.1067
18625TIP3   OH277289   3.412   0.569   4.888  0.0903  0.3994 -0.4076
18625TIP3    H177290   3.378   0.504   4.950  0.0571  0.5982 -0.2184
18625TIP3    H277291   3.501   0.537   4.867  0.2368  0.5255  0.0203
18626TIP3   OH277292   6.043   6.663   6.014 -0.6820  0.4058 -0.0212
18626TIP3    H177293   6.077   6.647   5.926 -1.1454  0.3068 -0.1825
18626TIP3    H277294   5.948   6.657   6.005 -0.6996 -0.4496  0.6617
18627TIP3   OH277295   3.030   0.612  12.519  0.0794 -0.1299 -0.2554
18627TIP3    H177296   3.093   0.643  12.454 -0.3330  1.7375  0.1578
18627TIP3    H277297   2.955   0.582  12.468  0.5898 -0.6908 -0.6883
18628TIP3   OH277298   0.949   3.455  10.799  0.2868  0.0813 -0.1457
18628TIP3    H177299   0.933   3.378  10.853 -1.6295  0.6742  0.2014
18628TIP3    H277300   0.915   3.431  10.713  4.0846 -1.1783 -1.5035
18629TIP3   OH277301   2.269   5.743   5.276 -0.1210  0.4097  0.1843
18629TIP3    H177302   2.317   5.671   5.236  0.2299 -0.5556  2.2118
18629TIP3    H277303   2.314   5.759   5.359 -1.5438  1.4618  0.8055
18630TIP3   OH277304   0.237   0.876  17.234  0.1948 -0.2419 -0.6629
18630TIP3    H177305   0.175   0.864  17.307 -0.1329  0.5415 -0.8067
18630TIP3    H277306   0.240   0.791  17.191 -0.2192 -0.4910 -0.2056
18631TIP3   OH277307   3.994   0.157  13.249 -0.1891 -0.0516  0.0140
18631TIP3    H177308   3.961   0.079  13.293 -1.0009 -0.6585 -1.5617
18631TIP3    H277309   4.089   0.147  13.250 -0.2978 -2.3319 -2.2030
18632TIP3   OH277310   3.862   2.519  11.472  0.2299  0.0416 -0.4706
18632TIP3    H177311   3.793   2.505  11.408  0.6400  0.1055 -0.9297
18632TIP3    H277312   3.889   2.610  11.458  3.5389 -1.1732 -3.4608
18633TIP3   OH277313   2.182   6.014   3.868  0.2483  1.0458 -0.5371
18633TIP3    H177314   2.268   5.992   3.831  1.4993  0.2896  2.5181
18633TIP3    H277315   2.150   6.086   3.814  1.4365 -0.5081 -3.5449
18634TIP3   OH277316   2.245   6.057   1.765 -0.3478  0.0145  0.6175
18634TIP3    H177317   2.340   6.056   1.754 -0.4594 -0.4478 -0.3894
18634TIP3    H277318   2.210   6.053   1.676 -1.3149  0.3053  0.9707
18635TIP3   OH277319   2.116   1.460  11.333  0.0369  0.0024 -0.2048
18635TIP3    H177320   2.155   1.490  11.251  0.7557 -0.5553 -0.0865
18635TIP3    H277321   2.180   1.397  11.368 -0.3617  0.0663  0.6701
18636TIP3   OH277322   4.471   1.953  10.771 -0.1042 -0.1386 -0.4908
18636TIP3    H177323   4.492   1.921  10.683  2.5197 -0.7448  0.2642
18636TIP3    H277324   4.546   2.008  10.795  0.2093 -1.5282  2.0602
18637TIP3   OH277325   4.799   2.590   1.600 -0.0366  0.3639 -0.3519
18637TIP3    H177326   4.784   2.667   1.544  0.2789  1.4749  1.0447
18637TIP3    H277327   4.735   2.599   1.671 -0.6545 -1.2061 -0.6696
18638TIP3   OH277328   3.559   2.897   3.891  0.3982 -0.0741  0.0470
18638TIP3    H177329   3.620   2.959   3.930  0.9409 -0.5690  0.0044
18638TIP3    H277330   3.476   2.943   3.889  1.0065  1.0660 -0.9664
18639TIP3   OH277331   4.114   2.348   5.682 -0.2537 -0.1659  0.3171
18639TIP3    H177332   4.152   2.334   5.769  0.2969 -0.7084 -0.0069
18639TIP3    H277333   4.126   2.442   5.666  0.7236 -0.2873  0.3199
18640TIP3   OH277334   3.657   0.397   4.028  0.6984  0.3405 -0.2059
18640TIP3    H177335   3.700   0.408   4.113  0.8528 -0.9245 -0.0989
18640TIP3    H277336   3.615   0.481   4.011 -0.0733  0.3509  1.5349
18641TIP3   OH277337   4.472   3.795  16.509  0.1011 -0.0187  0.0603
18641TIP3    H177338   4.532   3.721  16.515 -0.2455 -0.2590  0.7304
18641TIP3    H277339   4.496   3.852  16.583 -2.3308 -1.5503  2.2248
18642TIP3   OH277340   4.701   0.148  12.934  0.8017 -0.0969 -0.0015
18642TIP3    H177341   4.773   0.191  12.888  0.6103 -1.4415 -1.6492
18642TIP3    H277342   4.669   0.214  12.995  0.4856  2.1517 -2.4336
18643TIP3   OH277343   6.604   6.192  10.285 -0.2601 -0.0178  0.0536
18643TIP3    H177344   6.658   6.215  10.209  0.1340 -0.8532  0.0695
18643TIP3    H277345   6.555   6.272  10.305 -0.5206  0.1603 -1.2059
18644TIP3   OH277346   5.956   4.689   3.705  0.3471 -0.2355  0.1631
18644TIP3    H177347   5.915   4.724   3.626  0.0828 -0.1571  0.3340
18644TIP3    H277348   6.020   4.625   3.672  0.1807 -0.2657 -0.1095
18645TIP3   OH277349   3.192   3.824   6.465  0.0176  0.2616 -0.4949
18645TIP3    H177350   3.209   3.869   6.548 -0.8608 -0.5820  0.1742
18645TIP3    H277351   3.136   3.885   6.416 -0.0308  0.4722 -0.1795
18646TIP3   OH277352   1.188   3.923  12.674 -0.1150  0.9815 -0.0318
18646TIP3    H177353   1.277   3.896  12.698 -0.6144  0.6981  1.6289
18646TIP3    H277354   1.200   4.007  12.630  1.0034  0.7486 -0.2077
18647TIP3   OH277355   4.120   0.520  14.443  0.3681  0.3255  0.0428
18647TIP3    H177356   4.126   0.455  14.372 -0.7721  0.3660 -0.0981
18647TIP3    H277357   4.028   0.521  14.467  0.3898  1.8019  0.1495
18648TIP3   OH277358   1.225   1.767  13.844 -0.4756  0.0980  0.2424
18648TIP3    H177359   1.158   1.835  13.842  0.1908  0.7708  0.3855
18648TIP3    H277360   1.194   1.701  13.782 -0.2180  1.4121 -1.3414
18649TIP3   OH277361   6.706   1.619   2.054  0.0767  0.0110  0.0235
18649TIP3    H177362   6.796   1.602   2.082  0.3919  0.4564 -0.7071
18649TIP3    H277363   6.683   1.702   2.096  1.0454  1.4234 -2.0883
18650TIP3   OH277364   1.042   1.137   3.403  0.2158 -0.1915  0.1753
18650TIP3    H177365   1.117   1.139   3.463  0.6711  0.3303 -0.4050
18650TIP3    H277366   0.983   1.072   3.442  0.7324 -0.2375  0.9153
18651TIP3   OH277367   2.696   3.289   4.766 -0.3600 -0.1279 -0.6412
18651TIP3    H177368   2.791   3.281   4.781 -0.5611 -1.2113  0.1828
18651TIP3    H277369   2.680   3.383   4.760  0.1467  0.3988  3.5759
18652TIP3   OH277370   3.896   4.875   4.780  0.1902  0.6979  0.6468
18652TIP3    H177371   3.877   4.928   4.857  1.0231 -0.2027  1.4844
18652TIP3    H277372   3.957   4.929   4.729  1.8795  0.1752  2.0137
18653TIP3   OH277373   6.142   1.647  15.202  0.1062  0.2583  0.2561
18653TIP3    H177374   6.225   1.600  15.209  0.3502  0.6275 -0.0974
18653TIP3    H277375   6.126   1.682  15.290 -0.9421 -1.8917  0.9778
18654TIP3   OH277376   6.201   3.704  11.560  0.4237 -0.4690 -0.1456
18654TIP3    H177377   6.194   3.698  11.655 -0.2624  1.3110 -0.0623
18654TIP3    H277378   6.204   3.612  11.531 -0.3778 -1.0590  1.5011
18655TIP3   OH277379   5.141   4.566  16.666 -0.4947  0.2203  0.6015
18655TIP3    H177380   5.162   4.637  16.726  0.5158 -0.8049  1.5208
18655TIP3    H277381   5.158   4.486  16.717 -0.1260 -0.6755 -0.8661
18656TIP3   OH277382   4.490   5.561  13.262 -0.1012 -0.2530  0.2983
18656TIP3    H177383   4.547   5.636  13.277 -0.5000  0.0857  0.1381
18656TIP3    H277384   4.541   5.502  13.207  0.1225  0.0168  0.2169
18657TIP3   OH277385   1.236   2.638  12.658 -0.4958 -0.3105  0.1163
18657TIP3    H177386   1.264   2.675  12.574 -0.1750 -1.0139 -0.0896
18657TIP3    H277387   1.278   2.552  12.662  1.6884  0.7389  2.2050
18658TIP3   OH277388   1.882   0.504  15.581 -0.0992  0.1031 -0.3544
18658TIP3    H177389   1.793   0.531  15.605 -0.5184 -2.2984  1.0825
18658TIP3    H277390   1.932   0.512  15.662  0.1476 -1.6971 -0.2982
18659TIP3   OH277391   3.337   5.744   4.427  0.0512  0.4349 -0.1263
18659TIP3    H177392   3.391   5.746   4.506  1.0965 -0.8261 -0.7611
18659TIP3    H277393   3.398   5.762   4.356 -1.2640  3.8124 -0.5545
18660TIP3   OH277394   1.575   4.854   5.552  0.5567 -0.1046 -0.1105
18660TIP3    H177395   1.651   4.906   5.527  1.2915 -0.7063  0.7921
18660TIP3    H277396   1.540   4.898   5.630  0.1976 -0.0322 -0.3107
18661TIP3   OH277397   0.486   5.508   0.514  0.1894  0.2042  0.3288
18661TIP3    H177398   0.408   5.552   0.480 -0.0284 -0.1295  0.3851
18661TIP3    H277399   0.532   5.476   0.436 -0.6053 -1.0603  0.3437
18662TIP3   OH277400   2.261   4.753   5.046 -0.0518  0.2877  0.1941
18662TIP3    H177401   2.180   4.804   5.055 -0.1903  0.0985  0.0184
18662TIP3    H277402   2.273   4.712   5.131  0.0895  0.6613  0.3530
18663TIP3   OH277403   4.920   4.723   3.356 -0.0745 -0.4694  0.3600
18663TIP3    H177404   4.996   4.673   3.325 -0.8128 -1.1900 -0.3499
18663TIP3    H277405   4.881   4.759   3.276  2.2015  4.0528  0.9442
18664TIP3   OH277406   4.458   3.206  12.052 -0.1763 -0.2798 -0.8438
18664TIP3    H177407   4.526   3.141  12.070 -2.1351 -2.2619 -0.1084
18664TIP3    H277408   4.439   3.246  12.137  1.6624  2.0565 -1.4356
18665TIP3   OH277409   2.088   1.437   2.567  0.0980 -0.4626 -0.0339
18665TIP3    H177410   2.181   1.452   2.586 -0.4834  1.0209  2.0803
18665TIP3    H277411   2.047   1.521   2.584 -1.7867 -1.3820  0.1764
18666TIP3   OH277412   1.723   3.516   0.377  0.7414 -0.1205  0.3802
18666TIP3    H177413   1.797   3.568   0.408  0.6178  1.6357 -2.0294
18666TIP3    H277414   1.647   3.573   0.388  0.5966  0.3344 -2.2608
18667TIP3   OH277415   5.589   1.700   4.740  0.5995 -0.6137  0.1004
18667TIP3    H177416   5.573   1.696   4.834 -0.5335  1.3759  0.0572
18667TIP3    H277417   5.507   1.671   4.700  0.9459 -1.0858 -0.2853
18668TIP3   OH277418   0.662   3.537  16.939  0.4814  0.5556 -0.3487
18668TIP3    H177419   0.749   3.574  16.955 -0.5529  2.5390  1.0952
18668TIP3    H277420   0.638   3.497  17.023  0.2358 -0.5796 -0.9376
18669TIP3   OH277421   2.891   5.678   2.977 -0.4399 -0.1016  0.2083
18669TIP3    H177422   2.952   5.606   2.993 -0.9356 -0.7247 -0.6275
18669TIP3    H277423   2.833   5.646   2.908 -0.8139  1.0190 -0.0228
18670TIP3   OH277424   2.489   4.997   4.835 -0.3583  0.6385 -0.1517
18670TIP3    H177425   2.483   5.079   4.787 -1.8641  0.5455 -0.1701
18670TIP3    H277426   2.470   5.021   4.926  0.6535  0.5273  0.0996
18671TIP3   OH277427   2.346   4.059   6.025 -0.1393 -0.0056  0.0682
18671TIP3    H177428   2.358   4.127   6.091 -0.7154  1.0937 -0.9131
18671TIP3    H277429   2.362   3.977   6.071  1.7055  0.8456  1.0234
18672TIP3   OH277430   4.017   3.686  16.385  0.5490 -0.0059 -0.5290
18672TIP3    H177431   3.966   3.686  16.303  1.6950  0.1065 -1.2657
18672TIP3    H277432   3.959   3.644  16.449 -0.4134 -0.0022 -1.3665
18673TIP3   OH277433   6.674   2.662   0.282  0.2991  0.4582 -0.0028
18673TIP3    H177434   6.601   2.685   0.224 -0.3607 -1.6852 -0.1113
18673TIP3    H277435   6.635   2.604   0.348  1.5507  0.7859  1.0590
18674TIP3   OH277436   2.550   0.963  15.979  0.5390 -0.1729 -0.6102
18674TIP3    H177437   2.507   0.882  15.952 -1.2380  0.7249 -0.5699
18674TIP3    H277438   2.641   0.951  15.952  0.0153 -1.5936 -1.9035
18675TIP3   OH277439   2.500   4.115  13.808 -0.3230  0.0752  0.5890
18675TIP3    H177440   2.568   4.154  13.863  0.3241 -0.6716  0.3568
18675TIP3    H277441   2.498   4.170  13.730  0.4038 -0.1832  0.3703
18676TIP3   OH277442   5.321   5.347  13.575 -0.1040  0.3936 -0.0377
18676TIP3    H177443   5.279   5.262  13.566  1.8906 -0.5729 -0.6586
18676TIP3    H277444   5.357   5.347  13.664  0.9330  0.0681 -0.4442
18677TIP3   OH277445   3.535   6.533   5.507 -0.2560 -0.2397 -0.2202
18677TIP3    H177446   3.468   6.472   5.536 -0.9370  0.9299  0.8036
18677TIP3    H277447   3.607   6.478   5.476 -1.4379 -1.5251 -0.7593
18678TIP3   OH277448   0.870   5.933   5.713  0.1751  0.1417 -0.3693
18678TIP3    H177449   0.881   5.850   5.761 -1.1417 -0.2542 -0.7056
18678TIP3    H277450   0.887   6.001   5.778 -1.7708 -0.3806  0.7752
18679TIP3   OH277451   2.044   6.748  13.876 -0.2374  0.0625 -1.0213
18679TIP3    H177452   2.041   6.740  13.781  3.0412 -0.3551 -1.1951
18679TIP3    H277453   2.013   6.663  13.908 -0.2569 -0.2182 -1.7651
18680TIP3   OH277454   1.630   4.731  12.657 -0.5855  0.4783 -0.0725
18680TIP3    H177455   1.693   4.803  12.652  1.0298 -0.8097  0.7538
18680TIP3    H277456   1.683   4.652  12.646 -2.1065 -0.6489  0.3870
18681TIP3   OH277457   3.578   2.089  12.689 -0.4465  0.6390  0.1033
18681TIP3    H177458   3.646   2.063  12.626 -0.2555  2.4149 -0.4788
18681TIP3    H277459   3.558   2.180  12.666 -1.0983  1.0015  1.9820
18682TIP3   OH277460   1.727   2.627  16.462  0.6127  0.2692 -0.2929
18682TIP3    H177461   1.770   2.541  16.460  0.2773  0.1123 -1.5452
18682TIP3    H277462   1.707   2.641  16.554 -0.6278 -1.6608 -0.1998
18683TIP3   OH277463   5.698   2.007  11.748  0.7407  0.1819  0.1640
18683TIP3    H177464   5.753   2.001  11.670  0.5082  1.1583 -0.0804
18683TIP3    H277465   5.625   1.947  11.731  0.7703  0.2817 -0.3052
18684TIP3   OH277466   2.257   4.209   4.280 -0.0185 -0.1092  0.0036
18684TIP3    H177467   2.320   4.251   4.221 -0.7009  1.4729  0.3464
18684TIP3    H277468   2.285   4.118   4.284  2.1333  0.4997  0.0115
18685TIP3   OH277469   3.868   3.829   0.623 -0.2856 -0.2108  0.0316
18685TIP3    H177470   3.802   3.768   0.656 -0.7981 -0.4210 -1.3101
18685TIP3    H277471   3.950   3.802   0.665 -1.0693  0.2519  1.9745
18686TIP3   OH277472   2.059   0.269   0.011 -0.0811 -0.1457  0.1553
18686TIP3    H177473   2.013   0.321  -0.056 -0.5273 -0.2586  0.3670
18686TIP3    H277474   2.013   0.184   0.010  0.8972 -0.6834 -0.4738
18687TIP3   OH277475   5.420   2.310   5.214  0.4865 -0.3978 -0.0922
18687TIP3    H177476   5.343   2.328   5.159  0.9525  0.9680 -0.3383
18687TIP3    H277477   5.465   2.238   5.170 -0.0181 -0.4118 -0.5993
18688TIP3   OH277478   2.187   6.309  13.343  0.0975 -0.2842 -0.3276
18688TIP3    H177479   2.129   6.384  13.336  0.3969 -0.0701 -0.5679
18688TIP3    H277480   2.172   6.274  13.431  0.7086  0.6828  0.1722
18689TIP3   OH277481   0.533   0.184  13.173 -0.1122 -0.1373  0.0551
18689TIP3    H177482   0.519   0.161  13.265 -0.8860 -0.6410 -0.1814
18689TIP3    H277483   0.550   0.101  13.130  1.5939  0.2344 -0.0462
18690TIP3   OH277484   1.409   5.976  14.943 -0.3430  0.1912 -0.3425
18690TIP3    H177485   1.503   5.994  14.938 -0.1192  0.2259  2.3023
18690TIP3    H277486   1.367   6.057  14.915  0.4717  0.7469 -0.0079
18691TIP3   OH277487   2.902   5.160   0.592  0.2165  0.4613  0.1856
18691TIP3    H177488   2.949   5.078   0.611 -0.4661 -0.1699 -0.7295
18691TIP3    H277489   2.903   5.208   0.675 -0.7004 -1.1485  1.1771
18692TIP3   OH277490   0.153   0.870   3.673  0.1152 -0.6782 -0.1083
18692TIP3    H177491   0.158   0.774   3.671 -1.9965 -0.9050  1.7632
18692TIP3    H277492   0.242   0.898   3.695  0.1590 -2.4559  2.5292
18693TIP3   OH277493   1.502   6.475  14.949 -0.6544  0.3937 -0.5656
18693TIP3    H177494   1.556   6.519  14.884 -0.1567  0.9610  0.2153
18693TIP3    H277495   1.430   6.536  14.967 -1.6532 -0.4027 -1.6813
18694TIP3   OH277496   5.491   6.438  15.349 -0.6913 -0.9215  0.6277
18694TIP3    H177497   5.415   6.489  15.320  0.4164  0.8151  0.6407
18694TIP3    H277498   5.469   6.411  15.438 -0.1993  2.0911  1.7878
18695TIP3   OH277499   3.377   6.425  11.890 -0.7313 -0.0172 -0.6794
18695TIP3    H177500   3.413   6.338  11.871  0.3092  0.7795 -2.6659
18695TIP3    H277501   3.401   6.478  11.814 -0.9083  2.1642  0.6941
18696TIP3   OH277502   3.097   2.479  10.489  0.4238  0.2506 -0.2188
18696TIP3    H177503   3.136   2.514  10.410 -0.7624  1.2586 -0.3902
18696TIP3    H277504   3.035   2.413  10.458  1.9561 -1.3844  0.0512
18697TIP3   OH277505   0.696   5.281   2.495  0.0081  0.2590  0.4483
18697TIP3    H177506   0.767   5.299   2.433  1.0980  1.2055  1.8953
18697TIP3    H277507   0.639   5.219   2.449  2.5757 -1.7823 -0.2442
18698TIP3   OH277508   3.144   2.159   4.287 -0.5106  0.2220 -0.3268
18698TIP3    H177509   3.053   2.172   4.261 -0.4494  1.5111  0.0198
18698TIP3    H277510   3.173   2.082   4.237 -1.8349 -0.3248 -0.2878
18699TIP3   OH277511   1.924   5.390  14.475  0.1358 -0.0428 -0.2495
18699TIP3    H177512   1.937   5.459  14.411 -0.4433  1.7317  1.4449
18699TIP3    H277513   1.840   5.350  14.451  0.4160 -0.0979 -1.1761
18700TIP3   OH277514   3.627   6.287   1.986  0.0139  0.1113 -0.5836
18700TIP3    H177515   3.655   6.319   2.072  0.0852 -0.0684 -0.5382
18700TIP3    H277516   3.538   6.321   1.975  0.1899  0.5521 -0.6577
18701TIP3   OH277517   4.915   2.194   2.893 -0.3839 -0.1168  0.3778
18701TIP3    H177518   4.914   2.289   2.877 -1.1546 -0.0982  0.4980
18701TIP3    H277519   4.843   2.179   2.955 -0.8291 -0.8842 -0.3000
18702TIP3   OH277520   2.048   0.393   1.038 -0.0344  0.0654  0.2305
18702TIP3    H177521   2.038   0.460   0.970 -1.3832  1.5943  1.8403
18702TIP3    H277522   2.091   0.320   0.993  0.7914  1.6847 -1.7919
18703TIP3   OH277523   0.035   3.826   4.634  0.2534 -0.1445  0.8395
18703TIP3    H177524  -0.047   3.786   4.605  0.1850  0.6783 -0.1561
18703TIP3    H277525   0.013   3.919   4.645  1.0961  0.1197  0.3446
18704TIP3   OH277526   6.439   2.358   5.872  0.5058 -0.5749  0.1025
18704TIP3    H177527   6.362   2.354   5.930  0.6059  0.3483  0.3076
18704TIP3    H277528   6.493   2.427   5.910 -0.8024  2.2573 -2.7657
18705TIP3   OH277529   0.568   5.890   5.133 -0.4380 -0.7337 -0.0416
18705TIP3    H177530   0.518   5.813   5.162 -1.2027  0.2650  1.4288
18705TIP3    H277531   0.643   5.894   5.193 -0.2430 -0.4972 -0.2985
18706TIP3   OH277532   3.099   3.167  14.452 -0.0966  0.8349 -1.0432
18706TIP3    H177533   3.055   3.214  14.523  1.8693  2.8722 -1.0299
18706TIP3    H277534   3.074   3.076  14.464 -0.4743  1.2080  1.8203
18707TIP3   OH277535   5.941   6.687   2.861  0.7118 -0.0034  0.3308
18707TIP3    H177536   5.933   6.778   2.889  0.3384  0.3480 -0.8794
18707TIP3    H277537   5.873   6.641   2.911 -0.0610  0.6447 -0.0961
18708TIP3   OH277538   4.258   5.855  14.282 -0.3112 -0.1062  0.7417
18708TIP3    H177539   4.287   5.767  14.305 -0.3738 -0.9065 -1.8811
18708TIP3    H277540   4.330   5.912  14.308  0.1817 -1.0676  1.5410
18709TIP3   OH277541   6.119   4.172  15.596 -0.1518  0.7507 -0.2854
18709TIP3    H177542   6.131   4.095  15.541 -0.5103  0.7312 -0.3393
18709TIP3    H277543   6.039   4.154  15.645 -0.8636  1.5624 -1.1096
18710TIP3   OH277544   5.806   6.253  14.993 -0.4788 -0.3692  0.6408
18710TIP3    H177545   5.780   6.298  14.913 -0.0282  0.8168  1.1460
18710TIP3    H277546   5.859   6.179  14.962 -0.9383 -0.3634 -0.1850
18711TIP3   OH277547   0.259   5.266  12.834  0.5646 -0.2323  0.5043
18711TIP3    H177548   0.238   5.228  12.919  0.0453 -2.7511 -0.6585
18711TIP3    H277549   0.229   5.201  12.771  0.0180  1.9814 -1.6711
18712TIP3   OH277550   2.042   6.262  10.718 -0.0199 -0.0761 -0.1287
18712TIP3    H177551   2.039   6.307  10.634  0.2864 -1.4089 -0.8795
18712TIP3    H277552   1.957   6.219  10.725 -1.2281  2.3599  1.6360
18713TIP3   OH277553   2.042   4.505  11.417  0.4129  0.4410 -0.2208
18713TIP3    H177554   2.049   4.498  11.321 -1.1490  0.1730 -0.3358
18713TIP3    H277555   1.965   4.453  11.439  1.9697 -1.3373  1.4358
18714TIP3   OH277556   1.740   4.098   6.047  0.4237 -0.0842 -0.0229
18714TIP3    H177557   1.834   4.088   6.065  0.4762 -2.4800 -1.2860
18714TIP3    H277558   1.697   4.033   6.103 -0.4627  0.6666  0.1973
18715TIP3   OH277559   1.080   3.391   4.811  0.4882 -0.2652  0.1443
18715TIP3    H177560   1.076   3.302   4.846 -1.0871 -0.1331  0.3429
18715TIP3    H277561   1.004   3.398   4.754 -1.3848  1.9648  2.6401
18716TIP3   OH277562   2.094   3.564  15.547 -0.1205 -0.0463  0.0852
18716TIP3    H177563   2.042   3.616  15.485  1.2116  0.1460 -0.9051
18716TIP3    H277564   2.071   3.473  15.527 -0.7602  0.0613  0.2950
18717TIP3   OH277565   5.711   6.281  15.283  0.0949 -0.1219 -0.1811
18717TIP3    H177566   5.737   6.273  15.191  0.3555  2.2594 -0.3695
18717TIP3    H277567   5.631   6.334  15.281 -0.0021 -0.1970  0.9610
18718TIP3   OH277568   1.719   4.289  16.412 -0.2380 -0.8433 -0.0251
18718TIP3    H177569   1.744   4.322  16.326  0.2365 -1.4256 -0.1121
18718TIP3    H277570   1.798   4.247  16.446 -0.0338  0.4727  1.2278
18719TIP3   OH277571   4.224   0.665   4.684 -0.0624  0.2298  0.0247
18719TIP3    H177572   4.221   0.687   4.591 -0.6768 -1.0306 -0.2880
18719TIP3    H277573   4.258   0.575   4.686 -0.1195  0.2225  1.0090
18720TIP3   OH277574   0.635   0.370   5.445  0.0168  0.1322  0.2820
18720TIP3    H177575   0.693   0.419   5.387  0.1913  1.2926  1.4036
18720TIP3    H277576   0.598   0.301   5.390 -0.0823  1.4013 -1.2829
18721TIP3   OH277577   5.970   6.550   3.372  0.3147 -0.0316 -0.1294
18721TIP3    H177578   5.940   6.485   3.308 -0.1883  1.4585 -1.4482
18721TIP3    H277579   6.052   6.584   3.336  0.4880  0.2100  0.4706
18722TIP3   OH277580   0.938   0.486   3.224 -0.1964 -0.2039  0.6835
18722TIP3    H177581   1.014   0.494   3.282  1.1322 -0.0363 -1.0037
18722TIP3    H277582   0.971   0.511   3.138 -1.9701 -0.9555 -0.2653
18723TIP3   OH277583   1.771   3.377  12.022 -0.5811 -0.8952 -0.3828
18723TIP3    H177584   1.734   3.289  12.017 -0.4578 -1.0216  0.7668
18723TIP3    H277585   1.866   3.364  12.026 -0.5901 -1.0088  3.7265
18724TIP3   OH277586   1.406   0.099   5.684  0.0998 -0.3169  0.3168
18724TIP3    H177587   1.462   0.152   5.627  0.5987 -2.5175 -1.3729
18724TIP3    H277588   1.345   0.162   5.723  0.5739  1.4841 -1.6588
18725TIP3   OH277589   1.084   5.800   5.228  0.0515  0.3280 -0.0894
18725TIP3    H177590   1.022   5.834   5.293 -1.3670  0.4793 -1.4619
18725TIP3    H277591   1.146   5.871   5.215  1.0312 -0.1074  1.8800
18726TIP3   OH277592   0.027   5.155  17.112  0.0180 -0.4073  0.5961
18726TIP3    H177593  -0.020   5.093  17.167 -1.2865 -0.4795 -0.5482
18726TIP3    H277594   0.119   5.143  17.135 -0.1743 -2.8969  0.3021
18727TIP3   OH277595   2.376   3.698   5.235 -0.4565 -0.1426 -0.0362
18727TIP3    H177596   2.432   3.629   5.271  0.5659  0.1885 -0.9325
18727TIP3    H277597   2.288   3.661   5.235  0.0546 -1.3948 -0.3716
18728TIP3   OH277598   1.909   4.657   0.754  0.1690  0.1188 -0.1456
18728TIP3    H177599   2.002   4.643   0.738 -0.0894 -0.8320 -0.9650
18728TIP3    H277600   1.870   4.569   0.745 -0.8878  0.6085 -0.5247
18729TIP3   OH277601   4.605   4.707  17.163 -0.1575  0.2298  0.9858
18729TIP3    H177602   4.599   4.613  17.145  0.3791 -0.3340  3.4750
18729TIP3    H277603   4.545   4.722  17.235 -1.1984  2.0921 -0.1842
18730TIP3   OH277604   2.865   5.506   1.095  0.1959  0.0228 -0.0917
18730TIP3    H177605   2.842   5.414   1.113 -2.2993  0.8423  1.3874
18730TIP3    H277606   2.948   5.519   1.143  0.5013 -1.3919 -0.1828
18731TIP3   OH277607   2.759   1.372  11.595 -0.7156  0.1358  0.1611
18731TIP3    H177608   2.824   1.303  11.606 -0.7245  0.3826  2.2852
18731TIP3    H277609   2.810   1.453  11.593 -0.9005  0.3414  1.9828
18732TIP3   OH277610   0.023   1.637  17.099  0.0727  0.0551  0.0419
18732TIP3    H177611   0.088   1.588  17.149  0.8383 -2.5116 -3.0694
18732TIP3    H277612   0.075   1.692  17.040 -0.7093  0.9262  0.1508
18733TIP3   OH277613   3.529   2.052  14.183  0.3755  0.3166  0.2123
18733TIP3    H177614   3.472   2.125  14.207  0.7519  0.2541  1.3565
18733TIP3    H277615   3.618   2.084  14.202  0.8811  0.8308 -2.5902
18734TIP3   OH277616   2.900   3.975  13.128 -0.4451 -0.2824  0.1793
18734TIP3    H177617   2.950   3.907  13.082 -1.5706 -0.8973 -0.1969
18734TIP3    H277618   2.961   4.013  13.190  0.0984 -1.9871  0.7446
18735TIP3   OH277619   4.447   5.290   1.918  0.4022 -0.4798  0.2014
18735TIP3    H177620   4.382   5.324   1.979  0.0844  0.8976 -0.8456
18735TIP3    H277621   4.407   5.300   1.832  2.5734  2.1349 -0.6847
18736TIP3   OH277622   5.046   2.169  16.128 -0.4295 -0.7127 -0.2020
18736TIP3    H177623   4.998   2.135  16.052 -1.1418 -2.1520  0.8503
18736TIP3    H277624   4.978   2.187  16.193  0.1304  0.9446 -0.0152
18737TIP3   OH277625   5.915   1.342   2.496 -0.0258  0.1086  0.2884
18737TIP3    H177626   5.953   1.265   2.538  0.8058  0.7946  0.8170
18737TIP3    H277627   5.820   1.329   2.503  0.0764 -1.5747 -0.9625
18738TIP3   OH277628   5.891   4.288   3.106 -0.2674 -0.2335  0.0075
18738TIP3    H177629   5.982   4.268   3.128  0.0590  0.5584 -0.5596
18738TIP3    H277630   5.897   4.362   3.046 -1.3613  0.6775  0.9997
18739TIP3   OH277631   1.724   4.337   2.777  0.6238  0.0931 -0.1835
18739TIP3    H177632   1.763   4.398   2.840  1.3398  0.9150 -1.3534
18739TIP3    H277633   1.799   4.305   2.726  0.1475 -1.1117 -0.1606
18740TIP3   OH277634   4.281   5.945   2.455 -0.2873 -0.3808 -0.1557
18740TIP3    H177635   4.320   5.885   2.518  0.7433  0.1365 -0.2850
18740TIP3    H277636   4.290   5.899   2.371 -0.2223 -0.3877 -0.1454
18741TIP3   OH277637   5.990   4.943  14.456 -0.3247 -0.7762 -0.4042
18741TIP3    H177638   6.080   4.916  14.440 -0.5285 -1.6475 -0.1285
18741TIP3    H277639   5.978   5.020  14.400  1.0397  0.2684  0.6677
18742TIP3   OH277640   2.051   6.698  12.073 -0.0884 -0.0503 -0.2210
18742TIP3    H177641   1.971   6.750  12.065  0.6292  1.0655 -0.4147
18742TIP3    H277642   2.098   6.736  12.147  0.1802 -0.8038  0.0032
18743TIP3   OH277643   1.458   1.576  17.091  0.2452  0.0604 -0.3118
18743TIP3    H177644   1.544   1.584  17.049  0.2931  1.8071  0.0191
18743TIP3    H277645   1.396   1.606  17.024  0.1607  1.1848  0.2379
18744TIP3   OH277646   3.782   5.083  11.219  0.4180  0.2065  0.4457
18744TIP3    H177647   3.846   5.096  11.149 -1.9073  1.2692 -1.6248
18744TIP3    H277648   3.714   5.028  11.180 -1.3942  1.5628  1.5446
18745TIP3   OH277649   4.499   4.344  11.910  0.2817  0.5918 -0.5666
18745TIP3    H177650   4.464   4.405  11.844  0.2114  1.9209  0.6422
18745TIP3    H277651   4.423   4.291  11.935 -0.0855  1.1653 -0.4216
18746TIP3   OH277652   6.117   0.505   0.859  0.0777 -0.4132 -0.2999
18746TIP3    H177653   6.203   0.502   0.902  0.3216 -2.5460 -0.8340
18746TIP3    H277654   6.133   0.552   0.777  0.6091 -0.3086 -0.1420
18747TIP3   OH277655   4.751   0.737  14.430  0.0721 -0.2801  0.1658
18747TIP3    H177656   4.837   0.761  14.465 -1.2775  2.3498  2.0314
18747TIP3    H277657   4.768   0.710  14.340  2.9485 -0.9020  0.8057
18748TIP3   OH277658   4.319   3.393   0.310 -0.0961  0.2969  0.6493
18748TIP3    H177659   4.402   3.439   0.300 -1.1161  2.2337  0.6667
18748TIP3    H277660   4.252   3.459   0.291 -1.6763 -0.7130  2.3348
18749TIP3   OH277661   5.333   1.031   3.050  0.0631 -0.5469 -0.0366
18749TIP3    H177662   5.337   1.111   2.999  1.1723 -0.6111 -0.0814
18749TIP3    H277663   5.291   1.057   3.132  0.6769  0.1523  0.0675
18750TIP3   OH277664   3.107   4.178  13.555  0.0555  0.3735  0.1980
18750TIP3    H177665   3.190   4.142  13.585 -0.0542  1.2573  1.6178
18750TIP3    H277666   3.087   4.249  13.616 -1.5487  0.4383 -0.3472
18751TIP3   OH277667   0.008   2.692  17.216  0.5038 -0.4107  0.2824
18751TIP3    H177668   0.086   2.743  17.194  2.5463 -2.4742  2.2718
18751TIP3    H277669   0.020   2.608  17.171 -0.8906 -0.5854  0.1757
18752TIP3   OH277670   1.620   3.041  11.571  0.1390  0.0439  0.0105
18752TIP3    H177671   1.631   3.136  11.569  2.3070 -0.1437 -3.0491
18752TIP3    H277672   1.644   3.011  11.483  1.5349 -3.5391  1.3978
18753TIP3   OH277673   5.987   4.625   1.579  0.0583 -0.2551  0.1280
18753TIP3    H177674   5.996   4.530   1.584  1.8695 -0.0963  0.9262
18753TIP3    H277675   5.923   4.647   1.646 -0.5137 -0.9308 -0.1916
18754TIP3   OH277676   0.309   0.760   4.994 -0.2961  0.4370  0.0648
18754TIP3    H177677   0.393   0.766   4.948 -0.0010  2.0952  0.7371
18754TIP3    H277678   0.243   0.777   4.926 -0.1699 -1.5423 -0.6043
18755TIP3   OH277679   0.062   6.250  12.971  0.0992 -0.0716 -0.2904
18755TIP3    H177680  -0.029   6.254  12.943  0.2644 -1.1204 -1.0057
18755TIP3    H277681   0.111   6.223  12.894  0.8633 -0.7089  0.3902
18756TIP3   OH277682   0.781   6.543  12.348  0.0740  0.0467 -0.2873
18756TIP3    H177683   0.747   6.629  12.370  1.5025  0.7854 -0.8214
18756TIP3    H277684   0.784   6.495  12.431 -0.6665  0.5270  0.0187
18757TIP3   OH277685   2.281   5.432  14.473  0.0688  0.8959  0.1425
18757TIP3    H177686   2.200   5.468  14.437  0.4346  2.6886  0.9750
18757TIP3    H277687   2.349   5.465  14.415  0.2566 -0.2313 -0.2901
18758TIP3   OH277688   3.492   1.349  15.479  0.1185  0.1758 -0.6064
18758TIP3    H177689   3.430   1.307  15.539  0.0211  0.1044 -0.7567
18758TIP3    H277690   3.463   1.321  15.392 -0.7789  1.6233 -0.8025
18759TIP3   OH277691   1.681   2.949   4.178 -0.3080  0.0279  0.3903
18759TIP3    H177692   1.615   2.882   4.159 -2.5165  2.1475  0.0676
18759TIP3    H277693   1.636   3.012   4.234  0.9199  2.3766 -1.1141
18760TIP3   OH277694   6.238   5.261  13.112 -0.1701  0.2441 -0.2599
18760TIP3    H177695   6.221   5.332  13.173  0.1686 -0.1502  0.3037
18760TIP3    H277696   6.299   5.298  13.048  1.1705  0.0591  0.8621
18761TIP3   OH277697   6.373   4.980  17.085  0.6245 -0.1165 -0.0114
18761TIP3    H177698   6.392   5.049  17.023 -1.6098  1.7489  1.2053
18761TIP3    H277699   6.425   4.905  17.056  2.1434  1.6641 -2.1313
18762TIP3   OH277700   2.424   2.292   2.644 -0.5752  0.0575 -0.1227
18762TIP3    H177701   2.376   2.369   2.614 -0.2191  0.7781  1.1073
18762TIP3    H277702   2.452   2.314   2.733  2.3338 -0.1767 -0.8801
18763TIP3   OH277703   1.670   5.628  12.126 -0.5075 -0.0598 -0.2692
18763TIP3    H177704   1.695   5.718  12.150 -1.7972  0.6924 -1.5880
18763TIP3    H277705   1.682   5.624  12.031 -0.0858 -1.4269 -0.1760
18764TIP3   OH277706   1.766   6.439   0.684 -0.4245  0.1947  0.5495
18764TIP3    H177707   1.693   6.489   0.649 -1.4373 -0.5222  1.5861
18764TIP3    H277708   1.844   6.478   0.643 -1.3556  1.1234 -0.3751
18765TIP3   OH277709   5.022   4.138  15.667  0.2242  0.0616 -0.1232
18765TIP3    H177710   4.989   4.120  15.579  0.1619 -0.2919 -0.0291
18765TIP3    H277711   4.986   4.068  15.721 -2.5896  2.0696  0.8726
18766TIP3   OH277712   4.902   3.957   2.729 -0.5311 -0.2114 -0.4040
18766TIP3    H177713   4.974   3.963   2.666  0.6482 -0.4529  0.8663
18766TIP3    H277714   4.892   3.862   2.743  0.5303 -0.1223  1.1757
18767TIP3   OH277715   6.213   0.712  16.412  0.0525 -0.0702 -0.1441
18767TIP3    H177716   6.307   0.722  16.397  0.2960 -0.4650  1.0536
18767TIP3    H277717   6.206   0.639  16.474 -1.0321  0.1267 -0.0195
18768TIP3   OH277718   4.626   1.510  14.066  0.2048 -0.1858  0.1087
18768TIP3    H177719   4.577   1.438  14.106 -0.0851  0.0762  0.2355
18768TIP3    H277720   4.564   1.548  14.002 -0.0022  0.5637  0.7382
18769TIP3   OH277721   0.056   6.220   1.033  0.7479  0.3932 -0.1950
18769TIP3    H177722   0.075   6.142   1.085  1.6146 -0.4814 -1.7699
18769TIP3    H277723  -0.039   6.224   1.028  0.7020 -0.7419 -0.3540
18770TIP3   OH277724   4.321   4.499  12.255 -0.1730  0.2275 -0.1583
18770TIP3    H177725   4.317   4.421  12.311  1.6796  0.2431  0.0816
18770TIP3    H277726   4.277   4.474  12.174  1.2796 -1.4466 -0.4775
18771TIP3   OH277727   5.593   0.823  12.340 -0.0999 -0.1560 -0.0846
18771TIP3    H177728   5.531   0.838  12.412  0.1069 -1.1305  0.3118
18771TIP3    H277729   5.586   0.902  12.286  0.0216  0.7826  1.2007
18772TIP3   OH277730   3.654   5.769  14.794  0.4067 -0.2500  0.5170
18772TIP3    H177731   3.623   5.757  14.704 -0.7204  2.2240  0.4909
18772TIP3    H277732   3.749   5.760  14.788  0.4480  0.8665 -1.1210
18773TIP3   OH277733   0.004   1.693   6.654 -0.1604 -0.0455  0.2056
18773TIP3    H177734  -0.054   1.621   6.682 -0.8492  0.1801 -0.5758
18773TIP3    H277735   0.060   1.654   6.587  2.1979 -0.8603  2.4814
18774TIP3   OH277736   3.264   3.115   1.035  0.0542 -0.3206  0.3486
18774TIP3    H177737   3.352   3.152   1.035 -0.6690  1.6309 -2.0949
18774TIP3    H277738   3.226   3.145   1.117  1.7176 -1.5641  1.6606
18775TIP3   OH277739   0.108   1.039  16.830  0.0418 -0.3948 -0.5316
18775TIP3    H177740   0.128   0.957  16.873  0.9380 -0.4554 -1.0405
18775TIP3    H277741   0.181   1.097  16.853 -0.6850  0.3373  0.0047
18776TIP3   OH277742   5.630   0.232  15.750 -0.4508 -0.3850  0.2103
18776TIP3    H177743   5.608   0.168  15.817  0.7382 -1.2238 -0.1563
18776TIP3    H277744   5.610   0.317  15.790 -1.8920 -0.9537  0.7663
18777TIP3   OH277745   5.841   6.401   2.319 -0.7617 -0.1220 -0.0891
18777TIP3    H177746   5.907   6.469   2.329  0.8742 -1.7112  0.4389
18777TIP3    H277747   5.785   6.431   2.247  0.6362  1.1931 -0.6561
18778TIP3   OH277748   2.450   2.739   0.387 -0.2886  0.0902 -0.0070
18778TIP3    H177749   2.499   2.716   0.308 -1.5099  0.0868 -0.7725
18778TIP3    H277750   2.404   2.659   0.411 -0.4089  0.2656  0.3622
18779TIP3   OH277751   2.253   1.641   1.910 -0.5549 -0.4366 -1.1227
18779TIP3    H177752   2.186   1.691   1.957  0.0452 -0.5502 -0.1026
18779TIP3    H277753   2.317   1.618   1.978 -0.4185 -1.9122 -1.7230
18780TIP3   OH277754   5.970   3.562   5.335  0.1456  0.0285  0.1972
18780TIP3    H177755   5.996   3.552   5.244  1.0784  0.3032  0.4188
18780TIP3    H277756   6.047   3.533   5.385 -0.4555 -0.3862  0.8948
18781TIP3   OH277757   3.579   3.582   5.791 -0.2555  0.1345  0.3480
18781TIP3    H177758   3.636   3.505   5.793 -0.8026 -0.2570  1.5254
18781TIP3    H277759   3.549   3.593   5.881  0.7356  2.4455  0.4482
18782TIP3   OH277760   2.680   0.070  15.925 -0.2065 -0.5998  0.2389
18782TIP3    H177761   2.712   0.140  15.982 -1.0510  0.7591 -0.8785
18782TIP3    H277762   2.757   0.019  15.904  0.3533 -0.2937  1.4754
18783TIP3   OH277763   0.004   0.083   5.180  0.5529  0.5944 -0.0745
18783TIP3    H177764   0.092   0.105   5.212  0.5575  1.1696 -0.4710
18783TIP3    H277765  -0.000   0.122   5.093 -0.0067  0.3403 -0.1655
18784TIP3   OH277766   1.406   3.532   1.319  0.2933  0.1510  0.1261
18784TIP3    H177767   1.330   3.474   1.313  1.0434 -0.7236 -1.5774
18784TIP3    H277768   1.381   3.597   1.384 -0.6557 -1.9624  2.0162
18785TIP3   OH277769   0.916   2.598  15.221 -0.1601  0.4408  0.0410
18785TIP3    H177770   0.902   2.670  15.160  0.2570 -0.6918 -1.4465
18785TIP3    H277771   0.980   2.541  15.178  2.1666  0.8649  2.6469
18786TIP3   OH277772   3.596   2.803   2.020 -0.2066  0.1838  0.1275
18786TIP3    H177773   3.522   2.852   1.985  1.8829  3.2759 -0.4481
18786TIP3    H277774   3.604   2.832   2.110 -0.1111 -0.6809  0.4062
18787TIP3   OH277775   1.651   6.262  16.760  0.3604  0.2346  0.1358
18787TIP3    H177776   1.727   6.299  16.805  1.5562 -0.3129 -1.3474
18787TIP3    H277777   1.637   6.321  16.685  2.0801 -2.0038 -2.0770
18788TIP3   OH277778   2.648   5.242  13.391  0.8188 -0.0300  0.3930
18788TIP3    H177779   2.624   5.186  13.317  1.7129 -0.4915  0.4353
18788TIP3    H277780   2.738   5.271  13.371  0.7974  0.4355  0.9421
18789TIP3   OH277781   4.231   6.071   3.821 -0.4849 -0.1572  0.3147
18789TIP3    H177782   4.160   6.029   3.870 -2.1820  1.4469 -0.6244
18789TIP3    H277783   4.197   6.079   3.732  1.7380 -1.1984 -0.7076
18790TIP3   OH277784   5.259   2.073  15.668  0.4904  0.3978 -0.2470
18790TIP3    H177785   5.233   2.008  15.733  0.7977 -0.9545 -1.4131
18790TIP3    H277786   5.208   2.151  15.689 -1.5465 -0.9076 -0.1070
18791TIP3   OH277787   5.898   1.408  11.704 -0.1264 -0.4725 -0.3376
18791TIP3    H177788   5.979   1.396  11.754 -0.0101  0.3833 -0.3079
18791TIP3    H277789   5.859   1.320  11.701 -0.5592 -0.4209  1.9565
18792TIP3   OH277790   2.316   2.923  10.549  0.8150  0.1385  0.1269
18792TIP3    H177791   2.387   2.862  10.569 -0.4864 -1.9159 -1.1186
18792TIP3    H277792   2.299   2.969  10.631  1.7680 -1.2858  1.1589
18793TIP3   OH277793   4.883   0.695   4.556  0.1000 -0.8050  0.2984
18793TIP3    H177794   4.931   0.641   4.619  0.3270 -1.1243 -0.1410
18793TIP3    H277795   4.897   0.785   4.586  1.7455 -0.8140 -0.3177
18794TIP3   OH277796   0.400   1.463  11.454  0.1634  0.1415 -0.2620
18794TIP3    H177797   0.414   1.395  11.389 -0.9178 -0.8241  0.4722
18794TIP3    H277798   0.313   1.499  11.434  0.3702  0.7170 -0.1395
18795TIP3   OH277799   6.210   1.579   2.175  0.2010 -0.3240 -0.1957
18795TIP3    H177800   6.143   1.564   2.241  0.3513  0.1782  0.0816
18795TIP3    H277801   6.233   1.492   2.144  0.2909 -0.5917  0.5832
18796TIP3   OH277802   4.984   4.777   1.935  0.1882 -0.7729 -0.3468
18796TIP3    H177803   5.028   4.698   1.904  0.8141  0.4349 -2.7738
18796TIP3    H277804   4.901   4.779   1.887 -0.2224 -0.3765  0.3510
18797TIP3   OH277805   5.679   5.183   2.261  0.0626 -0.0387 -0.3151
18797TIP3    H177806   5.622   5.169   2.186  2.2593 -3.7674 -1.5830
18797TIP3    H277807   5.718   5.269   2.246 -3.0598  1.4028 -0.8006
18798TIP3   OH277808   5.770   3.188  12.441 -0.1697 -0.7390  0.1971
18798TIP3    H177809   5.713   3.248  12.488 -1.0076  0.0527 -1.7502
18798TIP3    H277810   5.858   3.222  12.455 -0.2619 -1.1894  2.1031
18799TIP3   OH277811   6.743   0.223   5.553  0.2145 -0.4506 -0.7624
18799TIP3    H177812   6.828   0.218   5.511  0.0109 -0.4094 -1.1871
18799TIP3    H277813   6.750   0.297   5.614  0.3575 -0.2010 -1.0807
18800TIP3   OH277814   0.914   4.966  13.703  0.1032  0.7584  0.8750
18800TIP3    H177815   0.845   4.904  13.729  1.1724 -1.0615 -0.4047
18800TIP3    H277816   0.904   4.974  13.608  1.7574  0.2726  0.6270
18801TIP3   OH277817   5.280   4.161  16.079 -0.1726  0.1413 -0.2803
18801TIP3    H177818   5.364   4.122  16.056  1.1006  2.3146  0.4110
18801TIP3    H277819   5.281   4.247  16.037 -2.7855 -0.3835 -1.6150
18802TIP3   OH277820   4.192   2.013   1.730 -0.6351  0.2176 -0.2323
18802TIP3    H177821   4.156   1.978   1.649 -0.1890  2.3681 -1.4345
18802TIP3    H277822   4.128   2.078   1.759  0.3333  1.1914 -0.1985
18803TIP3   OH277823   2.609   1.199  15.658 -0.0025 -0.5711 -0.2555
18803TIP3    H177824   2.568   1.113  15.652  1.5404 -1.2610 -1.8718
18803TIP3    H277825   2.690   1.190  15.607 -0.7366  2.3900 -2.1454
18804TIP3   OH277826   2.387   2.995   3.638  0.5426  0.3290  0.2146
18804TIP3    H177827   2.307   2.994   3.585  0.4456 -2.1399  0.2836
18804TIP3    H277828   2.363   3.044   3.716 -0.8696 -0.2357  0.1590
18805TIP3   OH277829   2.971   3.356   4.647  0.2314 -0.3554  0.2724
18805TIP3    H177830   2.937   3.286   4.591 -0.0586  0.4966 -0.6321
18805TIP3    H277831   2.985   3.313   4.732 -0.7390 -1.3165 -0.0232
18806TIP3   OH277832   5.426   3.358   0.519 -0.2784  0.3954  0.6804
18806TIP3    H177833   5.361   3.301   0.559 -0.3994 -0.8359 -1.1540
18806TIP3    H277834   5.498   3.299   0.494 -0.9065  0.7454 -2.3224
18807TIP3   OH277835   4.232   3.152  11.847  0.1660  0.0479  0.3270
18807TIP3    H177836   4.279   3.155  11.930  0.6273 -1.6601  0.1491
18807TIP3    H277837   4.251   3.237  11.806  0.5813  0.5903  1.6002
18808TIP3   OH277838   3.095   2.684   0.743 -1.0060 -0.0371  0.7072
18808TIP3    H177839   3.154   2.608   0.742 -1.1868 -0.1773 -0.2036
18808TIP3    H277840   3.121   2.733   0.821  0.5137  0.0472  0.1893
18809TIP3   OH277841   4.019   6.669  13.668  0.2602  0.8456 -0.0767
18809TIP3    H177842   3.939   6.621  13.649  0.8982 -0.7266  0.9500
18809TIP3    H277843   4.088   6.621  13.621  0.5765  2.4489 -1.3408
18810TIP3   OH277844   5.986   2.468   3.270  0.1352 -0.2043 -0.2096
18810TIP3    H177845   5.979   2.420   3.353 -2.0308 -0.4264 -0.4489
18810TIP3    H277846   6.079   2.464   3.248  0.4621 -1.9124  1.1714
18811TIP3   OH277847   6.212   4.341  16.478 -0.3810 -0.8151 -0.4099
18811TIP3    H177848   6.229   4.350  16.572  0.7579 -1.0881 -0.5678
18811TIP3    H277849   6.250   4.419  16.439 -0.2090 -1.0426 -0.7041
18812TIP3   OH277850   0.915   0.240  15.054  0.3527  0.6347 -0.5309
18812TIP3    H177851   0.966   0.164  15.083  1.7399  1.6454 -0.1925
18812TIP3    H277852   0.824   0.209  15.052  0.6984 -0.6266  1.0166
18813TIP3   OH277853   2.969   0.434  17.142 -0.0225  0.2266  0.2808
18813TIP3    H177854   2.916   0.394  17.074 -0.7679 -0.3502  1.1787
18813TIP3    H277855   2.905   0.478  17.199  0.3832 -0.9199  1.6741
18814TIP3   OH277856   2.214   3.757  15.092 -0.2898  0.6847  0.7489
18814TIP3    H177857   2.145   3.823  15.082 -0.7944 -0.0440 -0.9363
18814TIP3    H277858   2.206   3.702  15.014  0.7185 -0.8155  1.6534
18815TIP3   OH277859   1.883   4.713  12.406  0.3928  0.5508  0.0054
18815TIP3    H177860   1.917   4.709  12.317  1.2384  1.9879  0.2466
18815TIP3    H277861   1.960   4.718  12.462  0.0482 -3.2147  1.1117
18816TIP3   OH277862   1.895   4.297   6.204 -0.3339  0.0351 -0.0197
18816TIP3    H177863   1.937   4.237   6.267 -1.1392 -1.4276 -0.8166
18816TIP3    H277864   1.816   4.327   6.249 -0.9870 -1.1240 -0.3327
18817TIP3   OH277865   1.339   6.333  10.203 -0.2613  0.4853  0.1689
18817TIP3    H177866   1.418   6.290  10.169 -0.6965 -0.4240  0.2806
18817TIP3    H277867   1.331   6.300  10.293 -0.3667  1.1365  0.4014
18818TIP3   OH277868   0.115   0.898   1.647  0.3146  0.0356  0.2272
18818TIP3    H177869   0.073   0.834   1.589  3.3531 -2.1582  0.2473
18818TIP3    H277870   0.122   0.977   1.594 -3.0638  0.3732  0.0259
18819TIP3   OH277871   4.292   6.164  15.546  0.1330  0.0432  0.1267
18819TIP3    H177872   4.383   6.136  15.548  0.0303 -0.3229 -0.2573
18819TIP3    H277873   4.293   6.243  15.491  0.1590 -0.1860 -0.2042
18820TIP3   OH277874   5.064   3.473  12.688 -0.0539 -0.2882  0.1172
18820TIP3    H177875   5.102   3.391  12.718  2.2462  0.3198 -0.8552
18820TIP3    H277876   5.136   3.537  12.696 -1.2618  1.2519 -0.6848
18821TIP3   OH277877   5.613   0.318   4.677  0.8904 -0.0425  0.0953
18821TIP3    H177878   5.520   0.337   4.662  0.9516  1.2125  1.1432
18821TIP3    H277879   5.656   0.404   4.672  1.8907 -0.5152  0.3352
18822TIP3   OH277880   3.437   0.115  14.707 -0.3443  0.2149 -0.2906
18822TIP3    H177881   3.376   0.163  14.650 -0.4900 -0.7554 -0.9776
18822TIP3    H277882   3.511   0.095  14.650  0.0436  0.2550  0.1938
18823TIP3   OH277883   0.750   2.114  15.789  0.0398 -0.0733  0.5830
18823TIP3    H177884   0.735   2.158  15.705  3.1667  0.6929  0.3081
18823TIP3    H277885   0.691   2.159  15.850 -1.4192  0.1642 -0.9253
18824TIP3   OH277886   4.866   0.497  15.142  0.1873  0.1584 -0.0956
18824TIP3    H177887   4.843   0.433  15.075 -0.1897 -0.2979  0.4584
18824TIP3    H277888   4.814   0.575  15.119  0.1252  0.0349 -0.3788
18825TIP3   OH277889   2.502   0.772   4.192  0.1535 -0.0493 -0.2801
18825TIP3    H177890   2.435   0.794   4.257  1.0959  0.6392  0.4838
18825TIP3    H277891   2.479   0.683   4.163 -1.4098  0.3814 -0.4658
18826TIP3   OH277892   1.045   5.891   2.489 -0.4462 -0.4019 -0.3061
18826TIP3    H177893   1.008   5.884   2.402  0.8896  0.1209 -0.9410
18826TIP3    H277894   1.013   5.813   2.535 -1.1285 -0.6995 -1.2562
18827TIP3   OH277895   1.629   3.974  16.121  0.3313  0.5587 -0.0448
18827TIP3    H177896   1.652   3.925  16.200  0.0216  2.4168  1.2720
18827TIP3    H277897   1.557   4.031  16.149  0.4652  1.5331 -1.5668
18828TIP3   OH277898   2.898   4.302  11.684 -0.6632 -0.3336 -0.2944
18828TIP3    H177899   2.929   4.234  11.744  0.5742 -1.0277 -1.6511
18828TIP3    H277900   2.818   4.265  11.646 -1.5104  0.1533  0.9659
18829TIP3   OH277901   3.948   6.572   0.975  0.1560 -0.1181 -0.3231
18829TIP3    H177902   3.911   6.501   1.027  0.8525 -1.5328 -1.6806
18829TIP3    H277903   3.901   6.650   1.004 -1.9784 -1.4093 -0.1274
18830TIP3   OH277904   3.664   5.249   1.731  0.0329 -0.1725 -0.2571
18830TIP3    H177905   3.598   5.253   1.801  2.0867 -2.4217  1.9797
18830TIP3    H277906   3.737   5.301   1.764  1.3031 -1.8142 -0.3885
18831TIP3   OH277907   6.073   5.001  11.549  0.7370  0.7513 -0.0374
18831TIP3    H177908   6.053   4.939  11.620  1.9702  0.6475  0.2517
18831TIP3    H277909   6.106   4.946  11.478 -0.3630  0.8723 -0.6547
18832TIP3   OH277910   2.706   5.997  12.121  0.3135 -0.3068  0.3625
18832TIP3    H177911   2.641   6.066  12.135 -0.3734 -0.6015 -1.1785
18832TIP3    H277912   2.669   5.921  12.166 -3.0620 -1.9292 -4.3434
18833TIP3   OH277913   3.470   4.238   2.392  0.2007 -0.5356  0.6754
18833TIP3    H177914   3.497   4.304   2.456 -0.4541 -1.4495  1.9476
18833TIP3    H277915   3.375   4.242   2.393  0.1780  0.4330 -1.3659
18834TIP3   OH277916   3.569   6.138  16.188 -0.4875  0.8783 -0.1788
18834TIP3    H177917   3.575   6.156  16.094  1.0590  0.1914 -0.2424
18834TIP3    H277918   3.639   6.074  16.204 -1.7806 -0.2660  1.1453
18835TIP3   OH277919   0.180   5.415  14.084 -0.0415  0.2402  0.2145
18835TIP3    H177920   0.251   5.463  14.126  1.3537  0.0314 -1.7912
18835TIP3    H277921   0.212   5.397  13.996 -2.9365  0.9179 -1.0899
18836TIP3   OH277922   6.323   3.738   0.346 -0.7259  0.2878 -0.1716
18836TIP3    H177923   6.245   3.780   0.382 -0.2608 -0.3268  1.6577
18836TIP3    H277924   6.393   3.762   0.407 -0.3515 -2.7271  0.7206
18837TIP3   OH277925   2.410   6.243   3.171 -0.3379  0.2434 -0.3117
18837TIP3    H177926   2.438   6.266   3.260  1.8942 -2.7900 -0.0715
18837TIP3    H277927   2.346   6.173   3.184  0.1612 -0.3648 -1.0539
18838TIP3   OH277928   6.689   3.726   2.613 -0.0682  0.1747 -0.0466
18838TIP3    H177929   6.773   3.719   2.567 -0.5426  1.1630 -1.1020
18838TIP3    H277930   6.692   3.655   2.678  1.8832  0.6531  0.4574
18839TIP3   OH277931   4.282   0.001   3.696  0.7722  0.0945  0.6231
18839TIP3    H177932   4.225  -0.010   3.773  1.7744 -0.5069  1.3101
18839TIP3    H277933   4.317   0.090   3.705 -1.0307  0.9597 -0.5094
18840TIP3   OH277934   4.570   1.814   3.858  0.1708 -0.4131 -0.6325
18840TIP3    H177935   4.621   1.762   3.920  0.2419  1.0080  0.5716
18840TIP3    H277936   4.485   1.772   3.855  0.7237 -1.5333 -0.9562
18841TIP3   OH277937   1.381   5.516   5.350  0.0781 -0.0100 -0.2297
18841TIP3    H177938   1.385   5.451   5.421 -0.6377  1.1032  0.8586
18841TIP3    H277939   1.288   5.539   5.344  0.2872  0.6982 -0.8084
18842TIP3   OH277940   6.172   0.571  12.960 -0.5444 -0.2632 -0.3537
18842TIP3    H177941   6.235   0.598  13.026  0.5097 -0.4549 -1.2689
18842TIP3    H277942   6.131   0.653  12.931 -0.8571 -0.1568  0.3614
18843TIP3   OH277943   3.062   0.114  17.033  0.0754 -0.3871 -0.5229
18843TIP3    H177944   3.150   0.125  16.996 -0.1276  0.1439 -0.8590
18843TIP3    H277945   3.075   0.116  17.127  0.5768 -1.5377 -0.5376
18844TIP3   OH277946   2.963   0.016  12.120  0.4387 -0.1402  0.1610
18844TIP3    H177947   3.003  -0.067  12.094 -0.1782 -0.3259 -0.1940
18844TIP3    H277948   3.011   0.082  12.070  2.2355 -0.0726  1.8478
18845TIP3   OH277949   1.783   0.385  14.193  0.5362 -0.5084 -0.4992
18845TIP3    H177950   1.718   0.331  14.239 -1.2171  0.6693 -1.4887
18845TIP3    H277951   1.763   0.474  14.221  2.6481 -0.2096  0.2179
18846TIP3   OH277952   2.118   5.284   4.319 -0.3762 -0.0189 -0.3127
18846TIP3    H177953   2.205   5.247   4.335 -0.0985  1.2409  1.3902
18846TIP3    H277954   2.067   5.258   4.396 -0.7913  1.2509 -0.1369
18847TIP3   OH277955   4.667   2.960  12.269  0.3063  0.1018 -0.4466
18847TIP3    H177956   4.631   2.913  12.194 -0.6725  0.5835 -0.2975
18847TIP3    H277957   4.705   3.040  12.232  1.4466 -0.4941 -0.6276
18848TIP3   OH277958   0.504   4.691   0.377 -0.3819  0.7834  0.0065
18848TIP3    H177959   0.499   4.635   0.455 -0.3314  1.0075  0.1734
18848TIP3    H277960   0.464   4.639   0.307  0.2454  0.2895  0.0102
18849TIP3   OH277961   2.183   5.188   3.595  0.4195 -0.4608 -0.5061
18849TIP3    H177962   2.268   5.211   3.559 -0.4873 -0.7352 -3.0305
18849TIP3    H277963   2.124   5.256   3.563 -0.2346  0.2189  1.9072
18850TIP3   OH277964   0.226   6.558   0.187  0.3536  0.6459 -0.1719
18850TIP3    H177965   0.231   6.532   0.279  0.6020 -0.7512 -0.5603
18850TIP3    H277966   0.300   6.617   0.174  1.1833 -0.3023  0.1738
18851TIP3   OH277967   1.666   0.141   0.150 -0.3325 -0.2422 -0.4168
18851TIP3    H177968   1.620   0.225   0.158 -1.6090 -0.8066 -1.4006
18851TIP3    H277969   1.596   0.077   0.134  0.7233 -1.2929 -0.9841
18852TIP3   OH277970   5.078   2.462  17.347 -0.5385  0.2954  0.6813
18852TIP3    H177971   5.150   2.427  17.399  1.1409  0.9488 -1.0832
18852TIP3    H277972   5.014   2.392  17.344  0.6251 -0.8295  1.1818
18853TIP3   OH277973   0.988   2.608   3.168 -0.6475  0.5893 -0.4050
18853TIP3    H177974   0.930   2.667   3.121  0.4577  0.0245 -2.5826
18853TIP3    H277975   0.929   2.548   3.215 -1.7618  1.9097 -0.0718
18854TIP3   OH277976   6.672   0.635  14.334  0.1773  0.2248 -0.3839
18854TIP3    H177977   6.698   0.664  14.421 -0.6058 -0.4535  0.0984
18854TIP3    H277978   6.639   0.714  14.290  0.5005  0.5525 -0.0331
18855TIP3   OH277979   5.090   0.869  12.558 -0.1619 -0.0701  0.1910
18855TIP3    H177980   5.098   0.887  12.652  0.4609  0.5817  0.0240
18855TIP3    H277981   5.004   0.902  12.534  0.1791  0.9427  0.2921
18856TIP3   OH277982   5.891   4.953  14.045 -0.5109 -0.0909 -0.6550
18856TIP3    H177983   5.924   4.864  14.029 -3.9091 -1.4387 -0.9546
18856TIP3    H277984   5.955   4.991  14.105  1.0899 -2.7069 -0.5101
18857TIP3   OH277985   0.351   6.070  10.291  0.3653 -0.5533 -0.3427
18857TIP3    H177986   0.431   6.019  10.295 -0.1571 -1.3298  0.5471
18857TIP3    H277987   0.281   6.006  10.307 -0.3685  0.2788 -0.1506
18858TIP3   OH277988   5.534   3.658  14.923  0.2478  0.1918 -0.7706
18858TIP3    H177989   5.620   3.641  14.885 -0.6888 -0.1111 -2.8636
18858TIP3    H277990   5.496   3.726  14.867 -1.1160 -0.1145 -0.2468
18859TIP3   OH277991   6.292   1.695   1.264  0.2302  0.0293  0.4884
18859TIP3    H177992   6.201   1.724   1.269  0.1942 -0.0687  0.3922
18859TIP3    H277993   6.342   1.767   1.304  0.2581  0.7528 -0.8076
18860TIP3   OH277994   5.227   0.794   5.376 -0.1086 -0.2198  0.1074
18860TIP3    H177995   5.308   0.779   5.327 -0.2723  1.5637 -0.8141
18860TIP3    H277996   5.253   0.788   5.468  0.5162 -2.1580 -0.1420
18861TIP3   OH277997   2.667   3.877  15.494 -0.0831 -0.2392 -0.0529
18861TIP3    H177998   2.616   3.891  15.574 -0.5770  1.3913 -0.6193
18861TIP3    H277999   2.611   3.910  15.424  1.3248  0.6435 -0.8070
18862TIP3   OH278000   3.333   3.794  12.011 -0.8725 -0.0753 -0.2645
18862TIP3    H178001   3.262   3.856  11.991 -0.5259  0.6880  0.7822
18862TIP3    H278002   3.398   3.810  11.943 -1.3938 -0.3023 -0.8316
18863TIP3   OH278003   4.667   3.504   4.116 -0.1317 -0.3974  0.4990
18863TIP3    H178004   4.644   3.588   4.156  0.4899 -0.4518  0.9952
18863TIP3    H278005   4.599   3.488   4.051 -1.6546 -0.7196  2.1256
18864TIP3   OH278006   5.025   2.545   3.214 -0.0562  0.6649 -0.1992
18864TIP3    H178007   4.929   2.551   3.214 -0.0488  0.9474  0.8715
18864TIP3    H278008   5.053   2.614   3.273  0.8488  0.9202 -0.9112
18865TIP3   OH278009   0.438   3.802   3.611 -0.6866 -0.6888  0.1880
18865TIP3    H178010   0.399   3.727   3.566 -0.8461 -0.4777 -0.0295
18865TIP3    H278011   0.450   3.868   3.542 -2.1601  0.1387  0.6603
18866TIP3   OH278012   1.186   5.046  13.362 -0.5900  0.1656  0.6302
18866TIP3    H178013   1.274   5.025  13.392 -0.4380 -0.9877 -0.5266
18866TIP3    H278014   1.176   5.139  13.382  0.6406  0.1642  1.3724
18867TIP3   OH278015   6.248   0.178  17.356  0.5311  0.1518 -0.0382
18867TIP3    H178016   6.214   0.267  17.355 -1.2131 -0.4794 -1.3412
18867TIP3    H278017   6.290   0.167  17.270  0.0482 -0.5125 -0.2010
18868TIP3   OH278018   2.056   2.739  12.589 -0.3787  0.3721 -0.4079
18868TIP3    H178019   2.124   2.789  12.544  0.3871  0.1674  0.4782
18868TIP3    H278020   2.030   2.796  12.662  0.5256 -0.4953  0.6295
18869TIP3   OH278021   3.980   6.461  12.137  0.2580  0.3078 -0.2100
18869TIP3    H178022   3.932   6.505  12.207  0.1945 -0.2307  0.0901
18869TIP3    H278023   4.046   6.408  12.183 -0.3621 -0.7466 -0.5067
18870TIP3   OH278024   3.127   6.300  11.366  0.1401  0.4535 -0.2095
18870TIP3    H178025   3.197   6.348  11.323  0.1713 -0.3156 -1.0498
18870TIP3    H278026   3.069   6.367  11.400 -0.4081  1.1163 -2.3297
18871TIP3   OH278027   3.269   5.770  13.377 -0.3511  1.2321  0.1712
18871TIP3    H178028   3.207   5.800  13.310 -1.1721  1.4132  0.9833
18871TIP3    H278029   3.309   5.692  13.339 -1.5017  0.7760 -0.1730
18872TIP3   OH278030   4.437   4.800  16.910 -0.5289  0.1477  0.1229
18872TIP3    H178031   4.435   4.896  16.915 -0.4755  0.1784 -0.3872
18872TIP3    H278032   4.463   4.773  16.998 -1.3863  0.5655  0.5140
18873TIP3   OH278033   3.689   2.087  14.728 -0.0046 -0.3270 -0.4584
18873TIP3    H178034   3.624   2.073  14.796  0.4975 -0.5235 -0.0132
18873TIP3    H278035   3.664   2.169  14.686 -1.2504 -1.0119 -1.1135
18874TIP3   OH278036   5.015   2.146   4.552 -0.1461  0.3027 -0.7423
18874TIP3    H178037   5.049   2.195   4.628 -1.9214 -0.4443  0.6045
18874TIP3    H278038   4.978   2.214   4.496  0.8629  0.8380 -0.7972
18875TIP3   OH278039   5.244   6.576  13.546  0.4987  0.0110  0.5785
18875TIP3    H178040   5.175   6.543  13.603 -1.6843  0.2821 -1.7666
18875TIP3    H278041   5.247   6.670  13.564 -2.2570  0.6629 -1.6048
18876TIP3   OH278042   2.768   6.463  10.640 -0.3475  0.6234 -0.0198
18876TIP3    H178043   2.700   6.497  10.582 -0.6480 -0.4621 -0.3193
18876TIP3    H278044   2.846   6.514  10.617  0.2248 -1.4616 -3.2502
18877TIP3   OH278045   3.784   3.826   1.800  0.1479 -0.5900 -0.0820
18877TIP3    H178046   3.789   3.734   1.772 -1.5414 -0.3502 -1.3006
18877TIP3    H278047   3.875   3.849   1.819  0.4966 -2.8422  1.4275
18878TIP3   OH278048   3.429   5.826   3.412  0.2978  0.0571  0.3683
18878TIP3    H178049   3.401   5.915   3.388  0.0855 -0.1820 -0.3034
18878TIP3    H278050   3.524   5.827   3.400  0.6797  0.9281  2.8410
18879TIP3   OH278051   5.697   0.429  12.589  0.1638  0.3548 -0.4909
18879TIP3    H178052   5.643   0.509  12.595  1.5800  1.2394  1.7378
18879TIP3    H278053   5.786   0.459  12.602  0.8030 -1.5423 -0.1622
18880TIP3   OH278054   3.389   6.359   6.297 -0.5292  0.2114 -0.2688
18880TIP3    H178055   3.312   6.332   6.346 -0.1187  1.0908  0.9157
18880TIP3    H278056   3.360   6.433   6.244 -0.5228  0.4904  0.1162
18881TIP3   OH278057   6.167   5.181  12.269  0.3313  0.1931 -0.2380
18881TIP3    H178058   6.152   5.107  12.328 -0.0637  0.9771  0.6543
18881TIP3    H278059   6.209   5.141  12.192 -0.2629 -1.0255  0.0376
18882TIP3   OH278060   5.738   4.691  13.312  0.4931 -0.0101  0.2843
18882TIP3    H178061   5.649   4.694  13.347  0.8045  1.4075  1.0338
18882TIP3    H278062   5.788   4.750  13.368  0.9051  2.9796 -2.8785
18883TIP3   OH278063   4.404   5.254  12.636  0.1465  0.7299 -0.0127
18883TIP3    H178064   4.491   5.294  12.629  0.0879  0.5721 -2.1710
18883TIP3    H278065   4.406   5.181  12.575 -0.8471 -0.5886  1.4636
18884TIP3   OH278066   6.262   2.483  11.967  0.2750 -0.0475 -0.2767
18884TIP3    H178067   6.332   2.510  11.907  1.3184 -0.6514  0.6301
18884TIP3    H278068   6.272   2.542  12.042  1.0315 -1.3390  0.6707
18885TIP3   OH278069   2.974   0.867   3.809 -0.1727 -0.1761  0.3521
18885TIP3    H178070   3.042   0.889   3.872 -0.2880 -0.9938  0.7867
18885TIP3    H278071   2.978   0.771   3.802 -0.4972 -0.1358 -0.5013
18886TIP3   OH278072   5.221   4.841   5.072  0.2134  0.0735 -0.5795
18886TIP3    H178073   5.192   4.822   5.161 -0.9574  0.7753 -0.7917
18886TIP3    H278074   5.236   4.936   5.072  0.5240  0.0297 -1.0517
18887TIP3   OH278075   2.852   2.899   3.521  0.4782  0.6785  0.4407
18887TIP3    H178076   2.794   2.974   3.511 -0.3092 -0.0641 -0.9046
18887TIP3    H278077   2.939   2.933   3.500 -0.0457  0.9797 -1.4157
18888TIP3   OH278078   1.302   5.635  12.765 -0.2269 -0.0582  0.3145
18888TIP3    H178079   1.365   5.591  12.822  1.9940  2.4322  0.0063
18888TIP3    H278080   1.352   5.653  12.685 -2.0927 -0.0581 -0.8998
18889TIP3   OH278081   6.551   0.127   2.930  0.9205  0.5203 -0.1634
18889TIP3    H178082   6.553   0.043   2.976 -2.0091  1.7379  2.5413
18889TIP3    H278083   6.639   0.164   2.944  2.0836 -1.7343 -0.9462
18890TIP3   OH278084   3.836   6.244  11.046 -0.1162  0.1631 -0.3310
18890TIP3    H178085   3.903   6.292  10.997 -2.3713  2.5754 -1.2972
18890TIP3    H278086   3.762   6.304  11.050 -1.3435 -1.3017  3.0303
18891TIP3   OH278087   4.320   4.922   3.542  0.0167 -0.1576  0.7025
18891TIP3    H178088   4.414   4.942   3.542 -0.0306  0.3469 -1.8151
18891TIP3    H278089   4.277   5.007   3.543 -0.5002 -0.3861  2.7012
18892TIP3   OH278090   2.876   5.713  13.862 -0.2286  0.0090 -0.2773
18892TIP3    H178091   2.791   5.670  13.850 -0.3043 -0.3291  1.2562
18892TIP3    H278092   2.856   5.806  13.856 -0.7248 -0.0675  0.0862
18893TIP3   OH278093   4.072   1.321   1.908 -0.0384  0.0579  0.1963
18893TIP3    H178094   4.091   1.283   1.823 -0.9762  1.4972 -0.6865
18893TIP3    H278095   4.155   1.358   1.937 -0.2899  2.0257 -1.4094
18894TIP3   OH278096   5.183   1.149   3.335 -0.1103 -0.5335 -0.1435
18894TIP3    H178097   5.221   1.157   3.423 -2.0255 -2.1140  0.9095
18894TIP3    H278098   5.220   1.223   3.287  1.9029 -0.2750  1.6280
18895TIP3   OH278099   2.168   0.551   4.580 -0.0718  0.0139  0.2059
18895TIP3    H178100   2.150   0.641   4.606  0.5612 -0.2708  1.7440
18895TIP3    H278101   2.241   0.524   4.636  0.0804 -1.2960 -0.5778
18896TIP3   OH278102   6.416   3.677  12.424 -0.5978  0.2457 -0.1742
18896TIP3    H178103   6.439   3.734  12.497 -0.2135  0.1961 -0.2545
18896TIP3    H278104   6.444   3.590  12.452 -0.6572  0.1900 -0.2876
18897TIP3   OH278105   5.012   1.014  11.030  0.1207 -0.0138 -0.4714
18897TIP3    H178106   5.034   1.059  10.949 -0.0064 -2.0528 -1.7195
18897TIP3    H278107   4.946   0.950  11.005  0.0820 -0.6999  1.2399
18898TIP3   OH278108   0.050   5.950  10.629 -0.6745 -0.0973  0.4665
18898TIP3    H178109   0.000   6.023  10.592 -0.7566 -0.6793 -0.6072
18898TIP3    H278110  -0.014   5.901  10.680 -0.5684  0.6945  1.3834
18899TIP3   OH278111   2.887   1.628   5.673  0.1930  0.0836  0.2990
18899TIP3    H178112   2.893   1.546   5.625 -1.3943  0.0539  0.1054
18899TIP3    H278113   2.879   1.695   5.605 -0.8797  0.1546  0.4812
18900TIP3   OH278114   1.890   1.676  12.683 -0.2700  0.8040  0.2901
18900TIP3    H178115   1.932   1.592  12.666 -0.0509  0.7730  0.9681
18900TIP3    H278116   1.796   1.656  12.682 -0.3253  0.9681 -1.7418
18901TIP3   OH278117   5.660   0.710  11.099  0.4427 -0.2565 -0.2112
18901TIP3    H178118   5.750   0.739  11.111  0.0695  1.3628 -0.9744
18901TIP3    H278119   5.645   0.717  11.005 -0.1066 -1.7461 -0.2591
18902TIP3   OH278120   2.278   6.345  11.092 -0.0757 -0.3976 -0.9333
18902TIP3    H178121   2.191   6.369  11.123 -0.7919 -0.9720 -2.4384
18902TIP3    H278122   2.288   6.253  11.116  0.9392  0.1593  0.9793
18903TIP3   OH278123   6.323   2.280  16.659  0.1928  0.0646  0.7024
18903TIP3    H178124   6.280   2.195  16.652  0.3372 -0.1316  1.9695
18903TIP3    H278125   6.411   2.260  16.689  0.3459  0.6419  0.6477
18904TIP3   OH278126   0.902   6.194   5.390  0.0039  0.7947 -0.4797
18904TIP3    H178127   0.815   6.190   5.349 -1.0615  0.6899  1.6415
18904TIP3    H278128   0.937   6.106   5.382 -0.1132  0.8196 -1.3016
18905TIP3   OH278129   0.025   3.631   0.803 -0.0909 -0.6040  0.3989
18905TIP3    H178130   0.071   3.680   0.734  0.2265 -0.6757  0.5576
18905TIP3    H278131  -0.068   3.646   0.785  0.0038  0.6718  0.8880
18906TIP3   OH278132   6.661   1.765   1.097  0.5027 -0.1163 -0.8592
18906TIP3    H178133   6.611   1.686   1.116  0.0647  0.1082 -1.0741
18906TIP3    H278134   6.647   1.781   1.004  0.0712  0.5747 -0.6775
18907TIP3   OH278135   0.239   6.345   2.030 -0.1416 -0.3363  0.1833
18907TIP3    H178136   0.209   6.386   1.948 -0.6879 -1.7837 -0.3707
18907TIP3    H278137   0.186   6.386   2.098 -0.1842  0.3722 -0.2654
18908TIP3   OH278138   3.824   2.691  10.615  0.2305  0.2164 -0.2773
18908TIP3    H178139   3.798   2.770  10.661 -0.3972 -0.5662  0.7657
18908TIP3    H278140   3.917   2.702  10.598  0.1805  1.1045 -0.0002
18909TIP3   OH278141   2.190   3.911   1.916 -0.3447  0.3474  0.2656
18909TIP3    H178142   2.223   3.908   1.826 -1.7731 -3.0022 -0.3017
18909TIP3    H278143   2.268   3.910   1.970  0.5263  0.9699 -0.9154
18910TIP3   OH278144   5.698   3.070   5.454  0.2695  0.5282  0.7382
18910TIP3    H178145   5.679   3.135   5.522 -2.0562  3.2054 -2.1881
18910TIP3    H278146   5.616   3.022   5.443  1.0569 -0.8739  0.7579
18911TIP3   OH278147   0.989   1.506  11.243 -0.0039  0.3044 -0.2140
18911TIP3    H178148   1.013   1.464  11.326  1.9702 -0.2322 -1.0074
18911TIP3    H278149   0.982   1.434  11.181 -0.8499  0.7660 -0.6658
18912TIP3   OH278150   0.223   0.007   0.915 -0.0140  0.1783  0.5234
18912TIP3    H178151   0.306  -0.019   0.954 -1.2004 -3.9028  0.7964
18912TIP3    H278152   0.180   0.059   0.982  1.2748  0.2189  1.3623
18913TIP3   OH278153   6.693   2.246  17.122  0.1386  0.8297  0.0048
18913TIP3    H178154   6.778   2.218  17.156  1.8586  2.6585 -2.4145
18913TIP3    H278155   6.660   2.169  17.076 -0.7873 -0.6730  2.9347
18914TIP3   OH278156   1.157   5.658  11.011 -0.4703 -0.1231 -0.6683
18914TIP3    H178157   1.155   5.574  11.057 -0.7413  0.7491  0.9917
18914TIP3    H278158   1.184   5.636  10.922  1.6757 -1.7214  0.2923
18915TIP3   OH278159   5.377   4.824  14.032 -0.0412 -0.2890  0.3811
18915TIP3    H178160   5.293   4.819  13.988  0.9874  1.5833 -2.0019
18915TIP3    H278161   5.381   4.913  14.067  0.8873 -0.3905  0.5532
18916TIP3   OH278162   3.723   4.609  11.841  0.4747  0.0428  0.2298
18916TIP3    H178163   3.754   4.642  11.925  1.6153 -0.0644 -0.1314
18916TIP3    H278164   3.687   4.523  11.860 -2.1907  1.2522  1.1231
18917TIP3   OH278165   4.630   3.134  13.181  0.2952 -0.1742 -0.3776
18917TIP3    H178166   4.648   3.176  13.265 -0.7120 -1.3507  0.4617
18917TIP3    H278167   4.654   3.043  13.194 -0.7468 -0.5641 -1.0644
18918TIP3   OH278168   1.974   2.929   1.407 -0.0084  0.5164  0.3596
18918TIP3    H178169   1.999   2.987   1.478 -0.1152  3.0613 -1.5360
18918TIP3    H278170   1.956   2.845   1.449 -3.2244  2.6264  3.8418
18919TIP3   OH278171   0.774   1.149  12.787  0.4167 -0.9037  0.5037
18919TIP3    H178172   0.717   1.225  12.780  1.5356 -0.0984 -0.2823
18919TIP3    H278173   0.727   1.089  12.845 -1.6068 -0.6472 -0.7647
18920TIP3   OH278174   0.403   2.667   2.747 -0.3104  0.0238 -0.1233
18920TIP3    H178175   0.451   2.749   2.763 -1.8416  0.7622  0.8849
18920TIP3    H278176   0.317   2.682   2.786 -1.1324 -1.5259 -1.2665
18921TIP3   OH278177   3.634   6.184   4.538  0.1277 -0.0232 -0.1095
18921TIP3    H178178   3.584   6.186   4.619 -0.5793 -1.3913 -0.4802
18921TIP3    H278179   3.595   6.251   4.483  1.6127  2.0228  1.1970
18922TIP3   OH278180   6.121   2.934  16.444  0.2246 -0.0594 -0.1768
18922TIP3    H178181   6.116   3.016  16.395 -1.6749 -1.5345 -2.6913
18922TIP3    H278182   6.199   2.890  16.410  0.9276  0.3974  0.7781
18923TIP3   OH278183   2.832   3.798  13.472  0.0238 -0.4222 -0.0196
18923TIP3    H178184   2.817   3.892  13.473 -0.2656 -0.4156 -1.6840
18923TIP3    H278185   2.775   3.763  13.541 -0.0117  0.5820  0.4750
18924TIP3   OH278186   5.378   2.017   5.098 -1.1262 -0.5330  0.1280
18924TIP3    H178187   5.423   1.999   5.180  0.1751  0.9741 -0.1997
18924TIP3    H278188   5.446   2.014   5.031 -1.8521 -0.1113 -0.6680
18925TIP3   OH278189   4.166   4.614   0.686  1.1218  0.5047  0.3163
18925TIP3    H178190   4.159   4.520   0.674 -1.0294  0.7457 -0.9122
18925TIP3    H278191   4.132   4.651   0.605  0.2870  2.3235  1.4275
18926TIP3   OH278192   0.181   0.024  12.790 -0.2586 -0.0516  0.3347
18926TIP3    H178193   0.086   0.036  12.792 -0.0627  1.6218  1.3009
18926TIP3    H278194   0.217   0.108  12.818  1.6348  0.5404 -3.1968
18927TIP3   OH278195   4.234   0.819   2.233 -0.0655  0.0591  0.6842
18927TIP3    H178196   4.295   0.891   2.251 -0.3117  0.5688 -0.4365
18927TIP3    H278197   4.177   0.816   2.309 -2.6682  3.7423 -0.8245
18928TIP3   OH278198   1.066   5.351   0.697 -0.1320 -0.1626  0.3880
18928TIP3    H178199   1.049   5.327   0.788 -1.6478  0.2061  0.2338
18928TIP3    H278200   1.124   5.427   0.702  0.6388 -0.7875  1.0133
18929TIP3   OH278201   3.387   5.190  14.783  0.4527  0.2415 -0.9443
18929TIP3    H178202   3.437   5.131  14.726 -1.2943 -2.8260  0.4467
18929TIP3    H278203   3.402   5.156  14.871 -1.4707  1.2663 -0.1797
18930TIP3   OH278204   5.459   4.011   3.368 -0.0663  0.1470 -0.5225
18930TIP3    H178205   5.399   4.037   3.299 -0.3752 -1.5683 -0.9459
18930TIP3    H278206   5.546   4.024   3.331 -0.2125  0.4281 -0.7709
18931TIP3   OH278207   6.269   3.761   2.794 -0.5443 -0.3314  0.1597
18931TIP3    H178208   6.332   3.785   2.861 -0.9115 -0.4813  0.5667
18931TIP3    H278209   6.322   3.737   2.718 -0.1392  0.3952  0.2054
18932TIP3   OH278210   1.373   6.310  11.141 -0.0800 -0.6935 -0.2603
18932TIP3    H178211   1.307   6.292  11.208  0.4316 -0.6062  0.2794
18932TIP3    H278212   1.391   6.226  11.100  0.1021 -0.8769  0.1882
18933TIP3   OH278213   5.421   6.056  14.099 -0.0623  0.0762  0.1458
18933TIP3    H178214   5.450   6.144  14.078  0.2603  0.3658  1.6787
18933TIP3    H278215   5.489   6.021  14.157 -1.1748 -0.4295  1.1800
18934TIP3   OH278216   0.594   5.149   4.212 -0.2413  0.0947  0.2211
18934TIP3    H178217   0.687   5.164   4.230 -0.3765  0.2397  0.8096
18934TIP3    H278218   0.581   5.185   4.125  0.5248 -1.0088 -0.3918
18935TIP3   OH278219   2.852   6.039  10.890 -0.0312 -0.0209 -0.5309
18935TIP3    H178220   2.852   5.961  10.835 -0.8464 -0.2366 -0.2318
18935TIP3    H278221   2.764   6.043  10.927  0.0108  1.0318 -0.5235
18936TIP3   OH278222   4.697   5.910   2.329 -0.6590  0.0413 -0.8597
18936TIP3    H178223   4.672   5.877   2.415  1.1604  2.1130  0.5794
18936TIP3    H278224   4.765   5.850   2.299  0.0558  0.3764  0.0539
18937TIP3   OH278225   4.342   0.843   3.404 -0.9099  0.0382 -0.0372
18937TIP3    H178226   4.305   0.769   3.452 -1.5226 -0.6352 -1.4838
18937TIP3    H278227   4.342   0.915   3.467 -2.2956 -0.6345  0.7832
18938TIP3   OH278228   3.483   0.656  15.905  0.2463 -0.5722  0.7177
18938TIP3    H178229   3.458   0.647  15.997 -0.6867 -0.7547  0.4479
18938TIP3    H278230   3.579   0.650  15.907  0.2798  0.0006  1.7347
18939TIP3   OH278231   6.619   0.646   4.376 -0.2484  0.2867  0.3213
18939TIP3    H178232   6.562   0.587   4.326 -0.9252 -0.1615  1.5855
18939TIP3    H278233   6.656   0.704   4.310  0.1009 -1.2653 -0.9273
18940TIP3   OH278234   4.705   0.112  16.270 -0.0183 -0.2778  0.1612
18940TIP3    H178235   4.775   0.102  16.206 -0.0164 -0.0087  0.1221
18940TIP3    H278236   4.709   0.204  16.296  1.1628 -0.7691  1.9150
18941TIP3   OH278237   4.044   4.112   2.449  0.2767  0.3417 -0.2471
18941TIP3    H178238   4.077   4.080   2.366  0.2160  0.8628 -0.4807
18941TIP3    H278239   4.119   4.155   2.490  0.3384 -0.0245  0.0241
18942TIP3   OH278240   6.473   6.585  16.602  0.0200  0.0319  0.1523
18942TIP3    H178241   6.498   6.654  16.540  1.1780 -1.9442 -1.7196
18942TIP3    H278242   6.547   6.579  16.662 -1.0040  1.7889  1.7159
18943TIP3   OH278243   5.016   2.539  12.149 -0.9053  0.0181  0.1596
18943TIP3    H178244   4.947   2.495  12.198 -1.4606  1.4917  0.7501
18943TIP3    H278245   4.988   2.631  12.144  0.0404  0.2749 -1.3187
18944TIP3   OH278246   5.043   5.126  13.451  0.0969 -0.0458 -0.7174
18944TIP3    H178247   4.966   5.173  13.418  0.4403  0.4486 -0.8222
18944TIP3    H278248   5.107   5.133  13.380  1.0287  1.4517  0.2190
18945TIP3   OH278249   0.649   0.826   3.487  0.7230 -0.2606 -0.2527
18945TIP3    H178250   0.652   0.872   3.571 -1.5029 -0.3648 -0.0476
18945TIP3    H278251   0.560   0.793   3.482  0.7923 -0.2264 -2.6819
18946TIP3   OH278252   3.298   1.682  13.391  0.1406 -0.0885 -0.1519
18946TIP3    H178253   3.235   1.730  13.338 -0.3262  2.0926  2.1496
18946TIP3    H278254   3.245   1.619  13.441  0.6882 -2.8572 -2.7590
18947TIP3   OH278255   0.030   4.292  14.521  0.9239  0.0271 -0.1105
18947TIP3    H178256   0.083   4.256  14.592  0.6522  1.4613  0.8655
18947TIP3    H278257  -0.059   4.290  14.555  0.7810  0.6567 -0.4411
18948TIP3   OH278258   4.147   4.512   3.288 -0.7374 -0.6291 -0.3112
18948TIP3    H178259   4.220   4.570   3.266 -1.2646  0.4397  0.6431
18948TIP3    H278260   4.178   4.424   3.266  2.0456 -0.6139  2.7086
18949TIP3   OH278261   6.028   1.169   4.649  1.3600 -0.5079 -0.0967
18949TIP3    H178262   6.030   1.086   4.698  2.8042  0.0085  0.7593
18949TIP3    H278263   5.995   1.233   4.712  1.3622 -0.1991 -0.4068
18950TIP3   OH278264   3.507   3.302   2.974 -0.0908  0.0437 -0.2558
18950TIP3    H178265   3.478   3.218   2.938  1.9964 -0.3149 -1.2527
18950TIP3    H278266   3.427   3.345   3.002 -1.4426 -1.3305 -1.8024
18951TIP3   OH278267   6.625   4.248  11.276 -0.2449  0.0122 -0.0836
18951TIP3    H178268   6.569   4.231  11.200 -2.9490  1.2244  1.4857
18951TIP3    H278269   6.600   4.336  11.305  1.1793 -0.1366  1.8187
18952TIP3   OH278270   2.989   2.026  12.045 -0.3006 -0.6506  0.2554
18952TIP3    H178271   2.910   2.049  11.996  0.7246 -1.4678 -1.8899
18952TIP3    H278272   3.052   2.000  11.978  1.6567 -0.4527  1.9446
18953TIP3   OH278273   0.067   5.066  13.158  0.7096 -0.3185  1.0265
18953TIP3    H178274   0.110   5.009  13.094  0.2317 -0.5918  0.9354
18953TIP3    H278275   0.130   5.076  13.229  0.7091 -1.1848  1.1617
18954TIP3   OH278276   5.768   2.357   5.689  0.0672 -0.0199  1.1251
18954TIP3    H178277   5.762   2.380   5.596 -0.6108  0.6249  1.3162
18954TIP3    H278278   5.823   2.425   5.727 -0.0772  0.0098  1.2828
18955TIP3   OH278279   1.345   0.338  12.921 -0.3305  0.1968  0.0801
18955TIP3    H178280   1.283   0.265  12.925  2.3105 -2.4314 -2.0942
18955TIP3    H278281   1.316   0.389  12.846 -0.1190 -0.7973 -0.6992
18956TIP3   OH278282   3.710   6.274  10.483 -0.9023 -0.4148 -0.5757
18956TIP3    H178283   3.634   6.218  10.469 -1.2289 -0.5330  1.3277
18956TIP3    H278284   3.785   6.215  10.477 -0.8584 -0.1938 -3.0474
18957TIP3   OH278285   0.003   6.474   0.508 -0.1633  0.3343  0.4641
18957TIP3    H178286   0.022   6.560   0.543  0.3257 -0.3083  1.8669
18957TIP3    H278287   0.088   6.432   0.499 -0.4804 -0.6602  1.6684
18958TIP3   OH278288   2.026   6.524   5.420  0.3402  0.8862  0.3354
18958TIP3    H178289   1.970   6.538   5.496 -0.2560 -0.3961  0.1561
18958TIP3    H278290   2.025   6.429   5.407  0.2875  1.1003 -1.3869
18959TIP3   OH278291   5.591   0.896  15.833 -0.6180  0.3509 -0.0081
18959TIP3    H178292   5.662   0.947  15.794 -0.0482 -0.6607 -0.3598
18959TIP3    H278293   5.523   0.960  15.855  0.5393  1.3851  0.6506
18960TIP3   OH278294   6.306   2.118   1.987 -0.0879  0.5932 -0.8370
18960TIP3    H178295   6.221   2.149   2.021  1.0033  3.1588 -0.1698
18960TIP3    H278296   6.300   2.023   1.992 -2.4746  0.7085  0.3385
18961TIP3   OH278297   0.324   6.284   4.237  0.0159  0.1656 -0.6973
18961TIP3    H178298   0.364   6.369   4.257 -1.7345  0.4544  2.3645
18961TIP3    H278299   0.232   6.295   4.264 -0.4486 -2.4583 -0.9552
18962TIP3   OH278300   2.529   4.360  13.122 -0.2593 -0.2103  0.2489
18962TIP3    H178301   2.596   4.328  13.062  1.9826 -0.6163  2.7993
18962TIP3    H278302   2.529   4.455  13.109  1.8200 -0.0433  1.0979
18963TIP3   OH278303   6.465   3.859  15.581 -0.6368 -0.1269 -0.0407
18963TIP3    H178304   6.406   3.904  15.642 -0.9503  0.3925 -0.7083
18963TIP3    H278305   6.412   3.846  15.502 -0.5773 -1.7459  0.1472
18964TIP3   OH278306   0.492   0.091  14.835  0.8244 -0.0832 -0.0796
18964TIP3    H178307   0.437   0.073  14.912 -2.1922 -1.3432 -2.3098
18964TIP3    H278308   0.578   0.056  14.858  0.0255 -0.4817  2.6646
18965TIP3   OH278309   6.022   5.179   3.266 -0.1289  0.1014 -0.1520
18965TIP3    H178310   5.967   5.104   3.242 -0.6146  0.2653  0.4162
18965TIP3    H278311   6.101   5.168   3.214 -1.1132  0.4412 -1.8007
18966TIP3   OH278312   3.240   5.607   5.128 -0.3414  0.4505  0.2892
18966TIP3    H178313   3.183   5.562   5.190  2.1063  0.5120  2.8068
18966TIP3    H278314   3.193   5.686   5.105 -2.1837 -0.5281  0.4905
18967TIP3   OH278315   1.415   5.372  10.607 -0.0386 -0.4306 -1.1225
18967TIP3    H178316   1.483   5.336  10.550  0.3791 -0.2889 -0.7118
18967TIP3    H278317   1.406   5.309  10.678 -1.5478 -1.3217 -2.0499
18968TIP3   OH278318   4.084   5.700  10.995 -0.1519 -0.6625  0.0010
18968TIP3    H178319   4.086   5.795  10.981 -1.9559 -0.5400  0.3264
18968TIP3    H278320   4.060   5.664  10.910  2.0528 -0.9875 -0.5329
18969TIP3   OH278321   3.935   1.365   1.296 -0.5187 -1.0830 -0.5860
18969TIP3    H178322   3.897   1.397   1.215 -0.1369 -0.3848 -0.5007
18969TIP3    H278323   3.866   1.374   1.362 -0.5392 -0.8067 -0.6470
18970TIP3   OH278324   1.947   5.526  12.694  0.1439 -0.2130  0.0407
18970TIP3    H178325   1.859   5.537  12.730 -0.7993 -1.5392 -1.6947
18970TIP3    H278326   1.957   5.596  12.631  0.3505 -0.0571  0.2434
18971TIP3   OH278327   5.784   0.493   1.359 -0.1703 -0.3488 -0.2376
18971TIP3    H178328   5.792   0.555   1.286 -0.9852 -0.1075 -0.1328
18971TIP3    H278329   5.873   0.459   1.371  0.4655  1.3859  0.2341
18972TIP3   OH278330   1.460   5.818  11.391  0.2177 -0.3019 -0.2188
18972TIP3    H178331   1.426   5.817  11.301  0.2620 -0.1184 -0.2391
18972TIP3    H278332   1.395   5.867  11.441 -0.1979 -1.0721  0.0106
18973TIP3   OH278333   3.075   3.365  15.149  0.6642 -0.1668  0.4248
18973TIP3    H178334   3.128   3.337  15.073  0.0106  0.8821 -0.4353
18973TIP3    H278335   3.062   3.284  15.199  2.1008 -0.6694  0.0600
18974TIP3   OH278336   3.348   0.392  13.458  0.3975 -0.1077 -0.4528
18974TIP3    H178337   3.361   0.439  13.375  1.7322 -1.5728 -1.1064
18974TIP3    H278338   3.303   0.456  13.514  3.1125  2.4016 -0.8980
18975TIP3   OH278339   5.104   5.343  12.357  0.1735  0.5403 -0.0750
18975TIP3    H178340   5.136   5.316  12.443 -1.3726  1.5273  0.8675
18975TIP3    H278341   5.075   5.434  12.370 -1.8815  0.0873 -1.1085
18976TIP3   OH278342   1.353   0.450   5.049 -0.1159 -0.2106  0.2148
18976TIP3    H178343   1.396   0.443   4.964 -1.7694  0.9588 -0.7588
18976TIP3    H278344   1.367   0.364   5.090  2.2145 -0.2101 -0.4483
18977TIP3   OH278345   1.971   6.084   4.830 -0.1087  0.1035 -0.4989
18977TIP3    H178346   1.894   6.141   4.834 -0.1438 -0.0081  1.1488
18977TIP3    H278347   2.039   6.133   4.877  0.3764 -0.4570 -0.6091
18978TIP3   OH278348   6.191   0.111   3.769  0.0378 -0.0659  0.2694
18978TIP3    H178349   6.268   0.135   3.717  0.5406  1.2019  1.5434
18978TIP3    H278350   6.121   0.165   3.734  0.0691 -0.1672  0.0501
18979TIP3   OH278351   6.307   2.946  16.954  0.4736 -0.3454  0.1819
18979TIP3    H178352   6.231   2.991  16.993  0.1000 -2.3305  1.9645
18979TIP3    H278353   6.285   2.938  16.861 -1.1745 -0.1804  0.5190
18980TIP3   OH278354   2.826   2.431  13.271  0.3781  0.4714 -0.2662
18980TIP3    H178355   2.820   2.509  13.216 -0.8606 -0.4161 -1.4613
18980TIP3    H278356   2.885   2.372  13.222  0.6985  0.3575  0.2509
18981TIP3   OH278357   2.716   0.720  14.427  0.3093 -0.4700 -0.1522
18981TIP3    H178358   2.737   0.633  14.395  0.5856 -0.1889 -0.7385
18981TIP3    H278359   2.630   0.710  14.468  1.0561 -1.3854  1.2894
18982TIP3   OH278360   4.412   2.494  14.413  0.2680  0.2550 -0.8635
18982TIP3    H178361   4.492   2.458  14.451  0.0443 -0.2776 -0.8916
18982TIP3    H278362   4.409   2.459  14.324 -0.3922 -0.3530 -0.6075
18983TIP3   OH278363   3.614   0.442   4.786  0.2493 -0.0530  0.2338
18983TIP3    H178364   3.626   0.436   4.691  1.3600 -2.0409  0.4471
18983TIP3    H278365   3.700   0.464   4.820  0.0915 -0.3627  0.8485
18984TIP3   OH278366   1.455   0.861   1.922  0.3198 -0.5120 -0.1469
18984TIP3    H178367   1.386   0.839   1.859 -0.0636  0.0415  0.0697
18984TIP3    H278368   1.453   0.789   1.985 -0.1662 -0.4291 -0.0603
18985TIP3   OH278369   1.514   1.110  15.001  0.5163  0.0040 -0.4224
18985TIP3    H178370   1.435   1.162  14.987  0.1356 -0.4475 -0.0152
18985TIP3    H278371   1.564   1.160  15.065  0.4881  0.2190 -0.5677
18986TIP3   OH278372   4.187   5.545  11.249 -0.9385 -0.0344 -0.1534
18986TIP3    H178373   4.241   5.525  11.173  0.3998 -0.6726  0.9340
18986TIP3    H278374   4.121   5.606  11.215  0.5052  0.8787 -1.5061
18987TIP3   OH278375   5.004   6.199  12.729 -0.2052  0.4700 -0.5947
18987TIP3    H178376   5.015   6.107  12.706  0.8635  0.8912 -1.8808
18987TIP3    H278377   5.088   6.225  12.766  0.2753  1.4384 -2.2339
18988TIP3   OH278378   2.479   5.215   1.682  0.2222 -0.2760 -0.0932
18988TIP3    H178379   2.400   5.203   1.629  1.0251 -0.3499 -1.3039
18988TIP3    H278380   2.450   5.270   1.755 -1.1534 -1.0503 -0.0130
18989TIP3   OH278381   5.381   6.694  16.132  0.1469 -0.0467  0.0253
18989TIP3    H178382   5.387   6.600  16.118 -2.1055 -0.2133 -0.0763
18989TIP3    H278383   5.322   6.705  16.207  1.4255  1.2680  0.9006
18990TIP3   OH278384   3.840   6.722   1.808 -0.0189  0.5023  0.7722
18990TIP3    H178385   3.872   6.790   1.749 -2.1305  0.7453 -0.1477
18990TIP3    H278386   3.781   6.768   1.868 -0.7883 -0.3561  0.6945
18991TIP3   OH278387   2.495   4.784   2.752 -0.3504  0.4782  0.3457
18991TIP3    H178388   2.463   4.732   2.825 -1.1854  0.9471  0.3257
18991TIP3    H278389   2.482   4.875   2.779  1.3442  0.7067  0.4957
18992TIP3   OH278390   0.437   3.565   5.527  0.7965 -0.2310  0.2021
18992TIP3    H178391   0.515   3.600   5.568 -0.0327  0.7505  0.9759
18992TIP3    H278392   0.393   3.515   5.596 -1.0995  2.2168  0.9022
18993TIP3   OH278393   1.343   5.987  14.085  0.4251  0.7216  0.3002
18993TIP3    H178394   1.264   5.933  14.096  1.3520 -0.6749  0.3937
18993TIP3    H278395   1.398   5.936  14.027  2.3837  0.3637  2.3335
18994TIP3   OH278396   4.239   3.539  16.459  0.6415 -0.0790  0.4741
18994TIP3    H178397   4.315   3.596  16.450  0.1579  0.5217  0.1593
18994TIP3    H278398   4.176   3.573  16.396  0.0595 -0.4975  0.8214
18995TIP3   OH278399   5.669   1.839  14.053  0.4777 -0.5962  0.1891
18995TIP3    H178400   5.630   1.753  14.070  3.1613 -1.9921 -0.2136
18995TIP3    H278401   5.738   1.821  13.989  0.0835  2.1630 -1.1394
18996TIP3   OH278402   4.903   1.280   1.483  0.1746  0.1748  0.1475
18996TIP3    H178403   4.937   1.232   1.559 -0.8952 -2.5653 -0.9848
18996TIP3    H278404   4.810   1.257   1.480  0.2982 -0.2322 -2.2842
18997TIP3   OH278405   2.928   3.137   1.386  0.3405 -0.0422  0.4553
18997TIP3    H178406   2.941   3.128   1.480 -0.9153 -0.9001  0.5651
18997TIP3    H278407   2.841   3.101   1.370  1.0572 -1.1301 -1.2258
18998TIP3   OH278408   2.331   0.271   3.803  0.5937 -0.0819  0.1349
18998TIP3    H178409   2.296   0.326   3.873 -0.0295 -0.1424 -0.1235
18998TIP3    H278410   2.313   0.181   3.832 -1.3921 -0.0730 -0.9651
18999TIP3   OH278411   0.532   4.886  11.174  0.6364 -0.1418  0.4451
18999TIP3    H178412   0.555   4.910  11.084  0.6784  0.8385  0.6983
18999TIP3    H278413   0.479   4.807  11.165 -1.9789  1.6057 -0.6932
19000TIP3   OH278414   2.869   0.366  15.191  0.4425 -0.1264 -0.2657
19000TIP3    H178415   2.779   0.388  15.218  1.3732  0.0207  3.2011
19000TIP3    H278416   2.875   0.272  15.204  0.5990 -0.2528 -1.2263
19001TIP3   OH278417   2.926   5.860   6.131  0.1817  0.1874  0.1490
19001TIP3    H178418   2.981   5.919   6.080 -0.8530  0.0012 -1.2407
19001TIP3    H278419   2.963   5.773   6.116 -0.2250  0.1126 -0.4409
19002TIP3   OH278420   4.064   2.888  10.762  0.3527 -0.1237  0.4022
19002TIP3    H178421   3.975   2.915  10.739  1.1014  1.6282 -0.6736
19002TIP3    H278422   4.085   2.818  10.700 -0.5916 -1.2312  1.2985
19003TIP3   OH278423   3.263   2.480  11.526  0.0969 -0.0062 -0.0849
19003TIP3    H178424   3.203   2.412  11.494  0.7584 -0.4653 -0.3553
19003TIP3    H278425   3.264   2.545  11.455 -0.8381  0.4905  0.3400
19004TIP3   OH278426   1.960   5.904   0.428 -0.4422 -0.5831 -0.5019
19004TIP3    H178427   1.886   5.915   0.488 -1.1655  0.1145 -1.4815
19004TIP3    H278428   1.941   5.820   0.384 -0.2148 -0.8104 -0.1685
19005TIP3   OH278429   0.514   0.979   0.000  0.7521  0.1013 -0.9246
19005TIP3    H178430   0.599   1.017  -0.023  0.8884  0.1063 -0.4421
19005TIP3    H278431   0.525   0.885  -0.011  0.8470  0.0957 -0.7836
19006TIP3   OH278432   3.173   6.035  16.724  0.9180  0.0916 -0.4097
19006TIP3    H178433   3.122   6.112  16.750 -0.1009 -1.5032  2.8390
19006TIP3    H278434   3.117   5.989  16.661  0.4572  0.7686 -0.4944
19007TIP3   OH278435   6.612   0.574   1.585  0.4651 -0.1970  0.1873
19007TIP3    H178436   6.594   0.501   1.525  1.0961 -1.8869  1.9401
19007TIP3    H278437   6.535   0.578   1.641  0.3679  0.6029 -0.0046
19008TIP3   OH278438   0.065   1.978  12.478  0.2775  0.2506  0.5264
19008TIP3    H178439   0.067   2.073  12.468  2.5204  0.2084  0.1381
19008TIP3    H278440  -0.005   1.949  12.420  2.0967  1.4121 -2.4589
19009TIP3   OH278441   3.608   0.297   1.191  0.2619 -0.2942 -0.4410
19009TIP3    H178442   3.660   0.264   1.118  1.5743  1.5033 -0.3840
19009TIP3    H278443   3.548   0.360   1.151 -0.3348 -0.6934 -0.1979
19010TIP3   OH278444   2.541   4.595  13.910 -0.2314  0.0182 -0.0703
19010TIP3    H178445   2.515   4.637  13.992  1.6857 -0.2690  0.7562
19010TIP3    H278446   2.490   4.515  13.906 -1.9922  1.1069 -0.3268
19011TIP3   OH278447   4.570   2.587  10.691 -0.1702  0.0277  0.0541
19011TIP3    H178448   4.650   2.608  10.643 -0.4392  5.0701  1.1640
19011TIP3    H278449   4.516   2.540  10.628  3.4008 -3.5631 -0.7574
19012TIP3   OH278450   6.497   3.684  13.158  0.1004 -0.6239 -0.8314
19012TIP3    H178451   6.542   3.678  13.243  0.1902  1.7972 -0.6360
19012TIP3    H278452   6.423   3.624  13.166  0.4709 -0.9299  0.7307
19013TIP3   OH278453   4.010   0.254   2.793  0.4471  0.0135  0.5775
19013TIP3    H178454   4.047   0.206   2.867  2.8484  0.3665 -0.2938
19013TIP3    H278455   4.018   0.346   2.818 -0.7453  0.0856  0.7411
19014TIP3   OH278456   3.528   4.786  12.257  0.2690 -0.5653 -0.4106
19014TIP3    H178457   3.439   4.798  12.292  0.8834 -0.1191  1.0867
19014TIP3    H278458   3.515   4.744  12.173 -1.3013 -2.0268  0.5004
19015TIP3   OH278459   5.800   1.871   0.313  0.4018  0.3958 -0.0017
19015TIP3    H178460   5.843   1.923   0.382 -0.1699  0.9706 -0.0628
19015TIP3    H278461   5.828   1.781   0.330  3.0986  0.9417 -1.1453
19016TIP3   OH278462   0.996   0.754  11.783  0.0591 -0.1333 -0.1895
19016TIP3    H178463   1.079   0.771  11.826  0.8866  0.9643 -2.0687
19016TIP3    H278464   0.988   0.659  11.782  0.9208 -0.2234  0.6848
19017TIP3   OH278465   5.356   2.490  12.905 -0.1095 -0.1472  0.6243
19017TIP3    H178466   5.341   2.424  12.838 -0.1912  0.9241 -0.4574
19017TIP3    H278467   5.315   2.570  12.870  1.5088  0.9310  1.0591
19018TIP3   OH278468   2.742   0.070   3.794  0.7754  0.9188 -0.6049
19018TIP3    H178469   2.716   0.130   3.864 -0.6193  0.5273 -0.7468
19018TIP3    H278470   2.684   0.092   3.721 -1.0754 -1.7205 -0.0892
19019TIP3   OH278471   1.707   5.577   5.996 -0.6478 -0.1518  0.4438
19019TIP3    H178472   1.736   5.485   5.998  1.6712  0.4331 -1.7203
19019TIP3    H278473   1.738   5.613   6.079 -1.4653 -1.2210  1.2621
19020TIP3   OH278474   3.391   6.127   4.286  0.1691 -0.2129 -0.3672
19020TIP3    H178475   3.385   6.221   4.274  1.6687  0.0373  0.4906
19020TIP3    H278476   3.339   6.109   4.365  0.3888 -0.0091 -0.1762
19021TIP3   OH278477   1.458   4.759  11.071  0.8191 -0.1470  0.1776
19021TIP3    H178478   1.523   4.758  11.001  0.4691  0.3048 -0.1619
19021TIP3    H278479   1.378   4.789  11.028  1.0449  2.0097  1.1449
19022TIP3   OH278480   2.991   3.312  12.789  0.0751  0.0237  0.0987
19022TIP3    H178481   2.974   3.305  12.695  0.1526 -2.3090  0.1963
19022TIP3    H278482   3.052   3.241  12.807 -0.8558 -0.3326  2.0878
19023TIP3   OH278483   6.010   0.375  16.528  0.4387  0.2618  0.3158
19023TIP3    H178484   5.943   0.335  16.582  0.8395 -0.8904 -0.0100
19023TIP3    H278485   6.082   0.394  16.589  0.3011  0.3569  0.4479
19024TIP3   OH278486   2.746   5.733  13.199  0.6838  0.2970  0.3005
19024TIP3    H178487   2.800   5.697  13.270  0.5241 -0.7189 -0.0755
19024TIP3    H278488   2.804   5.795  13.155  1.3462 -0.3083  0.2902
19025TIP3   OH278489   5.876   2.487   0.445 -0.1583 -0.0884 -0.0476
19025TIP3    H178490   5.802   2.541   0.472 -0.4131  1.5155 -3.4685
19025TIP3    H278491   5.838   2.421   0.387  0.9276  0.2204 -1.1699
19026TIP3   OH278492   0.042   6.083   2.165  0.0234 -0.2662  0.0312
19026TIP3    H178493   0.099   6.143   2.214  0.2078 -1.4260  1.3148
19026TIP3    H278494  -0.035   6.135   2.144  0.5781  0.6826  0.2826
19027TIP3   OH278495   2.225   3.038   5.580  0.3155 -0.1193  0.3816
19027TIP3    H178496   2.168   3.113   5.596  0.9104  0.2300  0.9093
19027TIP3    H278497   2.166   2.963   5.580 -0.1918  0.2706  0.5805
19028TIP3   OH278498   6.264   5.656   5.569  0.4992 -0.1887  0.3143
19028TIP3    H178499   6.226   5.743   5.584  0.6543  0.1961 -1.3890
19028TIP3    H278500   6.193   5.605   5.531  1.0687 -0.0879 -0.9183
19029TIP3   OH278501   2.318   2.271   3.879  0.1931  0.3567  0.3480
19029TIP3    H178502   2.227   2.248   3.897  0.7821 -0.3389  2.7893
19029TIP3    H278503   2.367   2.192   3.902  1.3214 -0.1721 -3.2031
19030TIP3   OH278504   2.689   3.252  16.297  0.2630  0.2672 -0.3587
19030TIP3    H178505   2.668   3.345  16.288 -1.4521 -0.2207 -1.7887
19030TIP3    H278506   2.775   3.244  16.256  0.0405  1.0774 -1.0137
19031TIP3   OH278507   3.784   2.873  16.305  0.1138 -0.5281 -0.0382
19031TIP3    H178508   3.748   2.947  16.257  1.5340  1.0271  1.2145
19031TIP3    H278509   3.853   2.839  16.248  1.8680  1.3789  0.8264
19032TIP3   OH278510   6.100   5.826   2.337 -1.0264  0.2593  0.1536
19032TIP3    H178511   6.015   5.795   2.369 -1.1323  0.5858  0.1955
19032TIP3    H278512   6.157   5.826   2.413 -1.0115  0.1118  0.1415
19033TIP3   OH278513   1.372   4.980   4.084  0.1869 -0.1754  0.2265
19033TIP3    H178514   1.304   4.935   4.034  1.0009 -0.7916 -0.3437
19033TIP3    H278515   1.325   5.022   4.156 -0.8962  0.0447 -0.5822
19034TIP3   OH278516   1.355   6.078   3.702  0.4220 -0.0678  0.4716
19034TIP3    H178517   1.416   6.031   3.759  0.4780  2.3075  2.5680
19034TIP3    H278518   1.411   6.124   3.639  0.4211 -1.7513 -0.8414
19035TIP3   OH278519   3.105   1.941   3.527  0.0813  0.1975 -0.4054
19035TIP3    H178520   3.156   1.908   3.600  0.5492  0.9619 -0.3755
19035TIP3    H278521   3.078   1.863   3.478 -0.6008 -0.3529  0.8088
19036TIP3   OH278522   4.206   2.400  16.132  0.1256  0.5104 -0.6740
19036TIP3    H178523   4.273   2.366  16.192  0.3090  1.0997 -0.5397
19036TIP3    H278524   4.248   2.475  16.090 -0.7937  1.5227  0.1604
19037TIP3   OH278525   0.474   0.562   1.702  0.0120  0.1020 -0.0690
19037TIP3    H178526   0.462   0.651   1.668  0.8871  0.6127  0.9159
19037TIP3    H278527   0.514   0.574   1.788 -1.2202 -1.1953  0.7355
19038TIP3   OH278528   3.889   2.429  15.379  0.6341 -0.3396 -0.3019
19038TIP3    H178529   3.958   2.459  15.438 -0.2004  0.1572  0.4493
19038TIP3    H278530   3.827   2.384  15.436 -0.3759  0.4797 -0.7196
19039TIP3   OH278531   4.984   6.709   2.216  0.0391  0.2832 -0.4513
19039TIP3    H178532   4.953   6.797   2.236  1.4824  0.1809  3.0144
19039TIP3    H278533   5.032   6.719   2.134  0.2079  2.7529 -0.1431
19040TIP3   OH278534   2.467   5.474  14.833  0.5441  0.5682 -0.0405
19040TIP3    H178535   2.492   5.384  14.810  0.2570  0.7471 -1.1099
19040TIP3    H278536   2.521   5.529  14.777  0.7947  1.0792  0.6887
19041TIP3   OH278537   2.969   6.678   0.486 -0.0896  0.3342 -0.0911
19041TIP3    H178538   3.019   6.757   0.504 -0.8072  0.7041  0.3513
19041TIP3    H278539   2.926   6.696   0.402  0.7014 -0.0797 -0.5887
19042TIP3   OH278540   3.443   1.680  11.276  0.2102  0.0517  0.6429
19042TIP3    H178541   3.353   1.701  11.250  0.3977  1.8253  1.2907
19042TIP3    H278542   3.494   1.757  11.252  1.5568 -0.8692  0.4207
19043TIP3   OH278543   0.416   3.293   4.503  0.6295 -0.0084 -0.1691
19043TIP3    H178544   0.402   3.199   4.515 -0.5439  0.1789  0.0973
19043TIP3    H278545   0.381   3.333   4.583  1.2964  0.6439 -0.1916
19044TIP3   OH278546   1.143   2.453  13.408 -0.1274  0.2908 -0.1117
19044TIP3    H178547   1.181   2.497  13.332  0.1726  2.2119  1.0930
19044TIP3    H278548   1.110   2.370  13.373  3.3856 -0.6603 -1.6121
19045TIP3   OH278549   3.238   4.494  17.137 -0.3548  0.6616  0.3700
19045TIP3    H178550   3.193   4.410  17.142  2.1891 -0.7368  1.5452
19045TIP3    H278551   3.212   4.540  17.218  1.0216 -0.5459  1.5415
19046TIP3   OH278552   2.257   2.235  10.146  0.1495  0.5912  0.6788
19046TIP3    H178553   2.174   2.252  10.101 -0.0110  1.1707  1.1831
19046TIP3    H278554   2.272   2.313  10.199 -0.1791 -0.4731  2.4200
19047TIP3   OH278555   3.173   2.723   4.266  0.0202  0.1514  0.0709
19047TIP3    H178556   3.083   2.705   4.293  0.0951  0.9335  0.8769
19047TIP3    H278557   3.227   2.682   4.334  0.2226  1.4692  0.7388
19048TIP3   OH278558   5.880   0.974  12.391 -0.2655  0.7325 -0.8254
19048TIP3    H178559   5.821   1.045  12.414  1.5643  2.2723 -0.6000
19048TIP3    H278560   5.950   1.016  12.341  0.8150 -0.9280 -0.7925
19049TIP3   OH278561   4.414   3.349  13.740 -0.2640  0.1053 -0.1602
19049TIP3    H178562   4.382   3.390  13.820  1.0705 -0.6297  0.7776
19049TIP3    H278563   4.339   3.298  13.708 -0.5622 -0.2863  1.1011
19050TIP3   OH278564   2.963   0.886  13.949  0.3085  0.1317  0.1453
19050TIP3    H178565   2.969   0.970  13.905  2.1259  0.8335  1.6007
19050TIP3    H278566   3.050   0.871  13.984 -0.4401 -1.5054  1.4516
19051TIP3   OH278567   0.342   5.836   4.937 -0.3083  0.1027  0.8551
19051TIP3    H178568   0.360   5.911   4.880  0.1906 -0.4324  0.2978
19051TIP3    H278569   0.423   5.785   4.935 -1.2975 -1.4718 -0.3144
19052TIP3   OH278570   5.955   3.168   2.453  0.0794 -0.8406 -0.4355
19052TIP3    H178571   6.038   3.150   2.497 -0.2683 -0.0341  0.5874
19052TIP3    H278572   5.912   3.083   2.446  1.1298 -1.3223 -1.2932
19053TIP3   OH278573   3.612   2.649  13.159  0.5348  0.3866 -0.0864
19053TIP3    H178574   3.587   2.741  13.173 -2.3104 -0.2583 -0.2873
19053TIP3    H278575   3.579   2.604  13.237 -0.6726 -0.8494 -1.2738
19054TIP3   OH278576   2.538   1.771  12.487  0.4515 -0.5240 -0.2044
19054TIP3    H178577   2.554   1.704  12.420 -0.4267  1.3914 -2.4772
19054TIP3    H278578   2.443   1.777  12.493  0.4824  1.4569 -1.1194
19055TIP3   OH278579   4.213   6.057   5.433 -0.0098 -1.6886 -0.2565
19055TIP3    H178580   4.157   5.986   5.404  1.4693 -3.2297  0.5036
19055TIP3    H278581   4.299   6.037   5.397  0.8949 -1.3947  1.5954
19056TIP3   OH278582   2.449   0.356  10.940 -0.0865 -0.2090  0.8189
19056TIP3    H178583   2.400   0.307  10.874 -3.3145  0.0331  2.8219
19056TIP3    H278584   2.517   0.296  10.970  0.4998 -0.8342 -1.5937
19057TIP3   OH278585   3.297   6.741  10.554  0.4666  0.2326 -0.4199
19057TIP3    H178586   3.215   6.705  10.521  0.7293 -2.1327  1.1677
19057TIP3    H278587   3.327   6.800  10.486 -2.5785  1.2903 -1.0007
19058TIP3   OH278588   3.026   2.983   4.677 -0.0791  0.6500  0.5781
19058TIP3    H178589   3.018   2.888   4.666  1.8472  0.4162  0.8889
19058TIP3    H278590   2.994   3.019   4.595  1.6760 -0.4295 -0.6377
19059TIP3   OH278591   0.756   4.938  16.055 -0.2924  0.4772  0.2479
19059TIP3    H178592   0.733   4.852  16.021 -0.4636  0.2613  0.8997
19059TIP3    H278593   0.787   4.987  15.979 -1.6033  0.3284 -0.4109
19060TIP3   OH278594   1.837   1.809  14.047 -0.1448  0.5049 -0.5388
19060TIP3    H178595   1.833   1.848  14.134 -0.9959  2.3642 -1.3370
19060TIP3    H278596   1.874   1.722  14.060  0.0912  0.8875  1.6122
19061TIP3   OH278597   0.155   6.420   3.141 -0.5730 -0.4299  0.5070
19061TIP3    H178598   0.077   6.419   3.087  0.0585 -0.3279 -0.4275
19061TIP3    H278599   0.198   6.503   3.120 -0.7147 -0.0104  1.7621
19062TIP3   OH278600   6.155   2.878   2.776 -0.1701 -0.3226 -0.0410
19062TIP3    H178601   6.129   2.787   2.762 -0.6788  0.0154 -1.3458
19062TIP3    H278602   6.223   2.872   2.844 -1.3274 -1.5066  1.0947
19063TIP3   OH278603   3.206   6.412   1.980 -0.1169  0.0477  0.1993
19063TIP3    H178604   3.253   6.386   2.059 -1.4984 -0.9872  0.7107
19063TIP3    H278605   3.194   6.507   1.989  1.9996  0.3928 -0.0604
19064TIP3   OH278606   5.933   0.988   0.943 -0.3234  0.7784 -0.0243
19064TIP3    H178607   5.896   0.989   1.031  0.3558  0.7463  0.2622
19064TIP3    H278608   5.949   0.895   0.925  0.3432  0.8575  0.1578
19065TIP3   OH278609   1.878   0.650  15.297  0.3664  0.0731 -0.1709
19065TIP3    H178610   1.866   0.657  15.392  0.3184 -1.9063  0.0009
19065TIP3    H278611   1.941   0.579  15.285  0.8148  0.6751 -1.6140
19066TIP3   OH278612   2.354   4.131   5.758 -0.4472  0.2681  0.4414
19066TIP3    H178613   2.364   4.116   5.852  0.2707  1.7292  0.6262
19066TIP3    H278614   2.285   4.197   5.752  1.3981  2.2694  0.1599
19067TIP3   OH278615   0.329   0.506  15.590 -0.0942  0.4262 -0.3200
19067TIP3    H178616   0.259   0.445  15.567  0.8305 -1.0483  0.5731
19067TIP3    H278617   0.329   0.571  15.519 -1.0358 -0.6841 -1.3802
19068TIP3   OH278618   0.288   5.354   2.352 -0.3500 -0.4047  0.5680
19068TIP3    H178619   0.305   5.277   2.298  0.1935  0.4909 -0.5701
19068TIP3    H278620   0.210   5.393   2.313  0.4971  0.6804 -0.0907
19069TIP3   OH278621   1.716   1.311   1.168 -0.3329 -0.0679  0.2528
19069TIP3    H178622   1.731   1.314   1.073  0.6485 -3.4317  0.1609
19069TIP3    H278623   1.795   1.349   1.206 -0.0571 -0.0648 -0.3004
19070TIP3   OH278624   0.265   6.255  16.792  0.4711  0.3239  0.1338
19070TIP3    H178625   0.263   6.285  16.883  5.0373  1.0707  0.2291
19070TIP3    H278626   0.307   6.169  16.797  1.0445  0.5100 -1.2544
19071TIP3   OH278627   5.587   1.116   2.262 -0.1845 -0.0196  0.3086
19071TIP3    H178628   5.626   1.113   2.350  0.6557 -0.3677 -0.0732
19071TIP3    H278629   5.521   1.047   2.263 -0.3652  0.1486  0.7430
19072TIP3   OH278630   4.183   0.813  10.442  0.2439  0.2292 -0.5700
19072TIP3    H178631   4.219   0.728  10.468  0.2342  0.6183  0.7529
19072TIP3    H278632   4.216   0.874  10.507 -0.6551  1.0569 -0.8741
19073TIP3   OH278633   0.275   4.940  12.428 -0.3450 -0.5445  0.1265
19073TIP3    H178634   0.225   4.997  12.369 -0.3012  0.1593  0.7576
19073TIP3    H278635   0.358   4.925  12.383 -0.6409 -0.7139 -0.3703
19074TIP3   OH278636   5.531   4.350   3.989 -0.2850 -0.5876  0.9334
19074TIP3    H178637   5.478   4.403   4.049 -1.0318 -0.4285  0.1477
19074TIP3    H278638   5.512   4.386   3.902  0.4694 -1.0819  0.5569
19075TIP3   OH278639   0.907   3.146  13.697 -0.0459  0.3228  0.3141
19075TIP3    H178640   0.957   3.143  13.779 -0.0478  0.0717  0.3061
19075TIP3    H278641   0.912   3.238  13.670 -0.1065  0.4225  0.6340
19076TIP3   OH278642   1.849   5.712  16.061 -0.4422 -0.0531  0.3768
19076TIP3    H178643   1.763   5.754  16.069 -0.4176 -0.0146  0.4362
19076TIP3    H278644   1.845   5.667  15.977 -1.0402 -1.2512  1.0317
19077TIP3   OH278645   2.333   4.508  15.957  0.1331 -0.1007  0.2532
19077TIP3    H178646   2.293   4.421  15.952 -0.0945 -0.1250  1.9525
19077TIP3    H278647   2.264   4.568  15.929 -1.2576 -0.1307  3.2755
19078TIP3   OH278648   2.822   3.717  14.880 -0.3024 -0.6091 -0.0047
19078TIP3    H178649   2.736   3.745  14.912  0.2935  0.2304  0.8980
19078TIP3    H278650   2.879   3.792  14.894  0.3181 -0.7315 -1.7465
19079TIP3   OH278651   5.019   3.313   3.101 -0.2830  0.0337 -0.4315
19079TIP3    H178652   5.063   3.245   3.153 -0.2358  0.5925  0.2835
19079TIP3    H278653   5.091   3.360   3.059 -0.1889  0.7891  0.5384
19080TIP3   OH278654   0.836   0.687  15.615 -0.7198 -0.3336 -0.2062
19080TIP3    H178655   0.896   0.673  15.542 -0.3236  0.3332 -0.0097
19080TIP3    H278656   0.805   0.599  15.637 -0.7311 -0.5520 -1.0788
19081TIP3   OH278657   0.483   4.940   0.207  0.0231 -0.7510 -0.2590
19081TIP3    H178658   0.518   5.019   0.248  2.2174 -1.2697 -0.9814
19081TIP3    H278659   0.488   4.873   0.274 -2.5006 -0.2136  0.5837
19082TIP3   OH278660   4.397   2.110  13.849 -0.8480 -0.0471 -0.2779
19082TIP3    H178661   4.380   2.061  13.768 -0.3146  0.9116 -0.9819
19082TIP3    H278662   4.485   2.082  13.875  0.1129  1.6586 -1.5385
19083TIP3   OH278663   0.418   1.631  13.418  0.1113 -0.2662  0.4431
19083TIP3    H178664   0.448   1.592  13.336 -0.8100  1.8331 -0.9847
19083TIP3    H278665   0.497   1.671  13.456  0.0225  1.4433 -1.0554
19084TIP3   OH278666   2.064   0.930  15.911  0.6946  0.0712 -0.2274
19084TIP3    H178667   2.042   1.004  15.855  3.0497  0.3104 -0.9475
19084TIP3    H278668   2.117   0.873  15.855 -0.0702 -1.5907  0.6654
19085TIP3   OH278669   6.535   0.297  11.883  0.0987  0.2592 -0.2350
19085TIP3    H178670   6.556   0.220  11.936 -1.6032  0.4105  0.7427
19085TIP3    H278671   6.451   0.275  11.843  1.1006  0.3603 -2.5378
19086TIP3   OH278672   2.984   6.682   1.828 -0.2758  0.2245  0.0702
19086TIP3    H178673   2.961   6.773   1.807 -2.0225  0.5572  2.7734
19086TIP3    H278674   3.070   6.688   1.869  0.1864  0.4579 -0.9159
19087TIP3   OH278675   6.623   1.170  16.355 -0.3926  0.5378  0.1428
19087TIP3    H178676   6.598   1.235  16.289 -0.8691  0.4903  0.2769
19087TIP3    H278677   6.573   1.194  16.432  0.8164  1.1247  0.7789
19088TIP3   OH278678   4.242   2.131   4.980  0.0117  0.9561  0.3063
19088TIP3    H178679   4.178   2.087   5.035 -0.1520  0.3711 -0.3421
19088TIP3    H278680   4.222   2.102   4.891  0.1086  2.0815 -0.1031
19089TIP3   OH278681   0.309   1.822  16.383 -0.3380 -0.2136  0.2516
19089TIP3    H178682   0.308   1.736  16.341  0.1074  0.7610 -1.8572
19089TIP3    H278683   0.338   1.804  16.473 -0.7539 -2.3091  0.0193
19090TIP3   OH278684   1.393   0.112   2.807 -0.6047  0.5564 -0.5291
19090TIP3    H178685   1.398   0.016   2.812  0.6841  0.5968 -0.6284
19090TIP3    H278686   1.381   0.130   2.714 -0.2432  0.4957 -0.5916
19091TIP3   OH278687   2.417   3.058   4.471 -0.1945 -0.2917  0.2568
19091TIP3    H178688   2.459   3.144   4.478 -1.1202  0.2629 -0.6546
19091TIP3    H278689   2.389   3.053   4.380  1.3588 -2.3067 -0.1750
19092TIP3   OH278690   2.216   4.937   2.137  0.0299  0.5501  0.3129
19092TIP3    H178691   2.302   4.919   2.175 -0.9505 -0.3438  2.2171
19092TIP3    H278692   2.164   4.859   2.156 -1.9392  2.0756  1.4745
19093TIP3   OH278693   2.323   3.570  13.856  0.0262 -0.5250 -0.2642
19093TIP3    H178694   2.249   3.629  13.844  0.6194  0.4874  0.8357
19093TIP3    H278695   2.391   3.606  13.798  0.5796  0.2413  0.8338
19094TIP3   OH278696   3.115   2.623  16.951 -0.4109  0.5658  0.1389
19094TIP3    H178697   3.193   2.667  16.917  1.3049 -0.4305  2.4893
19094TIP3    H278698   3.118   2.535  16.915 -1.5255  1.0365 -1.2086
19095TIP3   OH278699   3.152   4.640  15.914 -0.1153 -0.1401 -0.5542
19095TIP3    H178700   3.078   4.700  15.922 -0.0378 -0.0548 -0.4632
19095TIP3    H278701   3.175   4.617  16.004 -0.4450 -0.6852 -0.6069
19096TIP3   OH278702   4.748   3.488   1.155  0.0408  0.3041  0.0528
19096TIP3    H178703   4.782   3.464   1.241  3.3665  0.1614 -1.1829
19096TIP3    H278704   4.783   3.421   1.096 -0.5335  1.4870 -1.7076
19097TIP3   OH278705   4.385   0.458  11.400 -0.4789  0.2774 -0.1140
19097TIP3    H178706   4.314   0.496  11.348 -1.6424 -1.2131  0.3066
19097TIP3    H278707   4.449   0.430  11.335 -0.8285  0.5572 -0.5910
19098TIP3   OH278708   4.415   4.529   5.050  0.4859  0.6763 -0.4019
19098TIP3    H178709   4.476   4.480   5.105 -1.1928 -0.6972  0.3344
19098TIP3    H278710   4.437   4.504   4.961  1.3606  0.6473 -0.1817
19099TIP3   OH278711   5.244   3.761   0.400  0.0661 -0.3976  0.0737
19099TIP3    H178712   5.152   3.788   0.398  0.4699  1.1015 -1.3913
19099TIP3    H278713   5.262   3.743   0.492 -1.4764  0.0725  0.5068
19100TIP3   OH278714   6.213   2.053  14.067 -0.6471 -0.4195 -0.2471
19100TIP3    H178715   6.171   1.974  14.033  2.1832 -1.4777 -1.5856
19100TIP3    H278716   6.251   2.026  14.151 -1.0102 -0.0023  0.0593
19101TIP3   OH278717   1.269   6.164  12.087  0.7157 -0.3660  0.2333
19101TIP3    H178718   1.221   6.081  12.085  0.7594 -0.3810 -0.7901
19101TIP3    H278719   1.318   6.161  12.169 -0.0407 -0.9164  0.6770
19102TIP3   OH278720   3.487   4.124   0.806  0.1035  0.4990 -0.0109
19102TIP3    H178721   3.411   4.137   0.749  0.0275  1.4134  0.2777
19102TIP3    H278722   3.494   4.207   0.854  0.8839  0.1717  0.4404
19103TIP3   OH278723   4.582   0.972   4.632  0.1132 -0.3372 -0.4231
19103TIP3    H178724   4.500   1.018   4.611 -1.3713 -1.8344  1.7018
19103TIP3    H278725   4.554   0.887   4.665  2.6048 -1.2277 -0.4014
19104TIP3   OH278726   2.764   4.706   6.502 -0.3066 -0.3821  0.1398
19104TIP3    H178727   2.805   4.789   6.525 -0.5949  0.5389 -2.4100
19104TIP3    H278728   2.670   4.721   6.514 -0.2635 -1.0976  1.7371
19105TIP3   OH278729   0.124   1.702   0.453  0.4477 -0.3039 -0.0405
19105TIP3    H178730   0.206   1.745   0.428  0.3505 -0.5942 -0.8824
19105TIP3    H278731   0.080   1.766   0.510  0.8825  0.1832 -0.2431
19106TIP3   OH278732   0.127   0.667   3.369  0.3865 -0.6550 -0.1370
19106TIP3    H178733   0.158   0.722   3.296  3.0926 -2.0192 -0.1426
19106TIP3    H278734   0.102   0.584   3.327 -0.4761 -0.5857  0.2292
19107TIP3   OH278735   5.799   5.145  15.144  0.4890 -0.2255  0.2005
19107TIP3    H178736   5.751   5.123  15.064  0.3033 -1.3101  0.5808
19107TIP3    H278737   5.889   5.119  15.126  0.7234  0.7836 -0.1228
19108TIP3   OH278738   0.574   0.551  13.943  0.7477 -0.7946 -0.3335
19108TIP3    H178739   0.508   0.585  14.003 -1.4014 -3.5415 -0.9743
19108TIP3    H278740   0.649   0.610  13.955 -1.6034  2.2647  0.7086
19109TIP3   OH278741   1.870   0.667   3.897  0.0399 -0.1788  0.0810
19109TIP3    H178742   1.778   0.673   3.923  0.0740  2.7784 -0.1513
19109TIP3    H278743   1.884   0.574   3.880 -2.5555 -0.8910  1.3049
19110TIP3   OH278744   5.089   4.774  11.279 -0.0430 -0.0628 -0.0722
19110TIP3    H178745   5.043   4.809  11.203  2.7710  2.4472 -0.8361
19110TIP3    H278746   5.045   4.813  11.354 -0.3849  0.7032 -0.6555
19111TIP3   OH278747   2.365   0.495   4.801 -0.2411  0.1752  0.1267
19111TIP3    H178748   2.285   0.504   4.851 -1.5317 -0.8453 -1.6389
19111TIP3    H278749   2.381   0.582   4.765 -2.3078 -0.2166 -1.9418
19112TIP3   OH278750   2.137   1.855  11.630  0.2119 -0.0849 -0.4707
19112TIP3    H178751   2.097   1.842  11.716  0.6819  0.4976 -0.1564
19112TIP3    H278752   2.108   1.780  11.579  2.9739 -2.6045  1.2959
19113TIP3   OH278753   4.199   0.278   0.601  0.4483  0.4890 -0.3530
19113TIP3    H178754   4.293   0.288   0.586  0.8980 -0.7489  1.2928
19113TIP3    H278755   4.162   0.363   0.578  1.9037  0.8892 -1.3958
19114TIP3   OH278756   4.527   5.859  13.979  0.6180 -0.1119 -0.5951
19114TIP3    H178757   4.530   5.856  14.075 -0.8746 -0.5672 -0.5271
19114TIP3    H278758   4.611   5.823  13.951  1.2088  0.3399  0.5386
19115TIP3   OH278759   1.736   1.089  13.054  0.1761  0.3378  0.5791
19115TIP3    H178760   1.793   1.014  13.071  1.1983  0.7476 -0.9015
19115TIP3    H278761   1.768   1.157  13.113  0.5649  0.2401  0.4863
19116TIP3   OH278762   6.427   0.893   4.421 -0.1848 -0.6443 -0.5541
19116TIP3    H178763   6.422   0.988   4.419  0.8202 -0.5800 -2.5264
19116TIP3    H278764   6.452   0.872   4.512 -0.0593  0.9812 -0.1826
19117TIP3   OH278765   1.351   0.982  15.838  0.5349 -0.2207  0.1735
19117TIP3    H178766   1.416   0.925  15.798  0.5923 -0.6859  0.9298
19117TIP3    H278767   1.368   0.978  15.932 -0.7202 -0.5298  0.4053
19118TIP3   OH278768   2.286   4.335  10.516  0.0489 -0.0383  0.2268
19118TIP3    H178769   2.223   4.274  10.478 -2.3677  0.5941  2.8583
19118TIP3    H278770   2.273   4.417  10.468  0.1051 -0.3610 -0.3489
19119TIP3   OH278771   1.103   5.187  15.814  0.2207  0.4270 -0.0525
19119TIP3    H178772   1.079   5.273  15.849 -3.8932 -0.2308 -0.7098
19119TIP3    H278773   1.082   5.127  15.885  0.6508 -0.2060 -0.4626
19120TIP3   OH278774   2.197   1.677  15.376  0.7037  0.3890 -0.2270
19120TIP3    H178775   2.106   1.646  15.376  0.4159  1.1284  1.6779
19120TIP3    H278776   2.195   1.755  15.320 -0.3307  1.5992  1.3895
19121TIP3   OH278777   1.280   0.659   2.002 -0.2727  0.4890  0.2313
19121TIP3    H178778   1.186   0.644   1.993 -0.0479 -0.7735 -0.1430
19121TIP3    H278779   1.308   0.598   2.070  0.4685  0.0344 -0.4608
19122TIP3   OH278780   6.313   5.386  11.156  0.0486 -0.2542 -0.4872
19122TIP3    H178781   6.287   5.477  11.168  0.1202 -0.2727 -0.1817
19122TIP3    H278782   6.353   5.361  11.240 -0.9200 -0.8863 -0.1963
19123TIP3   OH278783   3.718   3.299  15.125  0.1469  0.0838  0.2238
19123TIP3    H178784   3.759   3.345  15.052 -0.0451  0.9688  0.6650
19123TIP3    H278785   3.641   3.257  15.086 -1.1561  2.2872  0.2954
19124TIP3   OH278786   3.790   6.493  11.848 -0.6559  0.2928  0.1044
19124TIP3    H178787   3.760   6.491  11.758  1.5139 -0.1394 -0.6677
19124TIP3    H278788   3.780   6.584  11.875  0.0252  0.7361 -1.0826
19125TIP3   OH278789   2.018   0.868  17.191  0.2089  0.2286 -0.8174
19125TIP3    H178790   2.113   0.873  17.204 -0.0599  1.5114  1.0838
19125TIP3    H278791   1.995   0.952  17.152 -0.6184  1.9590  2.9685
19126TIP3   OH278792   4.637   1.313   4.977  0.8994 -0.5177  0.4250
19126TIP3    H178793   4.567   1.336   5.039  0.4609  0.5362 -0.4186
19126TIP3    H278794   4.716   1.352   5.014  1.0887 -1.7998  1.4374
19127TIP3   OH278795   4.535   2.699   0.467  0.0641  0.2402  0.4612
19127TIP3    H178796   4.560   2.640   0.538 -2.3465 -0.3742  0.9027
19127TIP3    H278797   4.470   2.757   0.506 -0.1090  0.9592 -0.8546
19128TIP3   OH278798   4.958   1.050  12.315 -0.2683 -0.9246 -0.3289
19128TIP3    H178799   5.051   1.032  12.326 -0.4918 -1.1624  1.4096
19128TIP3    H278800   4.918   0.964  12.305 -0.4045 -0.8737 -0.2220
19129TIP3   OH278801   4.808   6.210   0.594 -0.2861 -0.6457  0.1454
19129TIP3    H178802   4.717   6.191   0.616 -0.3602 -1.7563 -1.0365
19129TIP3    H278803   4.824   6.296   0.634 -2.3406  0.3209 -0.9654
19130TIP3   OH278804   1.955   2.716  10.837  0.2334  0.8165  0.5675
19130TIP3    H178805   1.938   2.797  10.789  0.6399  1.5803  1.6864
19130TIP3    H278806   2.050   2.705  10.831  0.0914 -0.1289 -0.4056
19131TIP3   OH278807   0.009   4.080  12.896 -0.6252  0.6301  0.1330
19131TIP3    H178808   0.101   4.087  12.872 -0.5484  0.1504  0.2803
19131TIP3    H278809  -0.016   3.991  12.872  0.0971 -0.7942  3.9428
19132TIP3   OH278810   3.041   4.759   0.564 -0.1504 -0.0641 -0.8317
19132TIP3    H178811   3.106   4.827   0.546  0.6033 -0.5496 -0.0240
19132TIP3    H278812   3.032   4.759   0.659 -0.1592 -1.0707 -0.8250
19133TIP3   OH278813   0.177   5.478  15.975 -0.6785 -0.3766  0.5023
19133TIP3    H178814   0.194   5.563  15.935 -1.2356 -0.4996 -0.0149
19133TIP3    H278815   0.081   5.470  15.976 -0.6220 -1.4245 -0.3965
19134TIP3   OH278816   3.823   4.162  14.344 -0.4506 -0.1037  0.4815
19134TIP3    H178817   3.889   4.192  14.282 -1.0276 -0.3169 -0.2445
19134TIP3    H278818   3.811   4.069  14.323 -0.9915 -0.0615  0.5931
19135TIP3   OH278819   5.598   5.542  12.096  0.4416  0.0766 -0.4884
19135TIP3    H178820   5.584   5.609  12.029 -0.6243  1.2914  0.8779
19135TIP3    H278821   5.526   5.554  12.157  1.4005 -0.9502  0.9110
19136TIP3   OH278822   3.564   3.952   5.747  0.0827  0.1590  0.0232
19136TIP3    H178823   3.482   3.903   5.755  0.6002 -0.7251  0.0246
19136TIP3    H278824   3.581   3.984   5.835  1.2230 -2.1371  0.7288
19137TIP3   OH278825   0.457   1.633   2.393 -0.2841  0.5808 -0.0620
19137TIP3    H178826   0.546   1.612   2.421 -0.2517 -0.5429 -0.9497
19137TIP3    H278827   0.405   1.558   2.422 -0.4997  0.0696 -1.7070
19138TIP3   OH278828   4.777   2.486  11.726 -0.0495  0.7934 -0.2251
19138TIP3    H178829   4.846   2.552  11.725 -0.1634  0.9244  0.3714
19138TIP3    H278830   4.755   2.476  11.818  0.3367 -0.4645 -0.2487
19139TIP3   OH278831   0.704   2.470  14.069 -0.8118  0.3558 -0.5253
19139TIP3    H178832   0.773   2.414  14.034 -1.2862 -0.5009 -0.1188
19139TIP3    H278833   0.682   2.529  13.996 -2.3834 -1.9635 -2.0836
19140TIP3   OH278834   4.068   4.200  13.923  0.2538 -0.0642 -0.3945
19140TIP3    H178835   4.136   4.226  13.861  1.7179  0.2709  1.2821
19140TIP3    H278836   4.115   4.180  14.004 -1.6717  0.5767  0.9604
19141TIP3   OH278837   2.249   6.328  11.710 -0.2983 -0.4227  0.5359
19141TIP3    H178838   2.163   6.357  11.740  0.4863  1.9646  0.7088
19141TIP3    H278839   2.294   6.299  11.789 -0.2120  0.4326  0.8129
19142TIP3   OH278840   2.521   5.444   0.045  0.7777  0.5106  0.1375
19142TIP3    H178841   2.452   5.409  -0.011  1.1151 -1.2499  0.7747
19142TIP3    H278842   2.558   5.517  -0.006  0.7461 -0.7083 -1.7338
19143TIP3   OH278843   3.720   4.792  14.986  0.0007 -0.3857 -0.6899
19143TIP3    H178844   3.709   4.788  15.081  2.9918 -2.4269 -0.2981
19143TIP3    H278845   3.646   4.741  14.952 -1.9008  1.5052  0.3431
19144TIP3   OH278846   4.503   3.192   4.702  0.3979  0.4276 -0.7910
19144TIP3    H178847   4.558   3.219   4.775 -2.3123 -0.1497  1.6379
19144TIP3    H278848   4.561   3.139   4.647  1.9389 -1.5082  2.4111
19145TIP3   OH278849   5.433   2.019   3.442 -0.0909 -0.8344 -0.2959
19145TIP3    H178850   5.403   1.957   3.510  0.2898 -2.1712 -1.2965
19145TIP3    H278851   5.439   2.103   3.487  1.2952 -1.8997  1.6680
19146TIP3   OH278852   3.320   6.084   3.688 -0.4066  0.3415 -0.0751
19146TIP3    H178853   3.330   6.164   3.740  1.2113  0.4264 -0.4643
19146TIP3    H278854   3.311   6.014   3.753 -3.3815  0.9372  0.2874
19147TIP3   OH278855   4.744   5.694   2.038  0.2200  0.1784  0.6612
19147TIP3    H178856   4.789   5.675   1.956 -0.5905  0.2835  0.1814
19147TIP3    H278857   4.706   5.611   2.065  0.6072  0.1125  1.0109
19148TIP3   OH278858   5.767   6.050  10.569  0.2376 -0.0224 -0.0207
19148TIP3    H178859   5.718   6.000  10.504  0.5749  0.2134 -0.4621
19148TIP3    H278860   5.760   5.998  10.650 -0.4142 -0.1754 -0.1719
19149TIP3   OH278861   4.759   0.646  16.281 -0.3106 -0.6193 -0.0303
19149TIP3    H178862   4.768   0.740  16.290  1.3525 -0.3741 -3.0711
19149TIP3    H278863   4.824   0.610  16.342  0.4468  0.2599 -0.3074
19150TIP3   OH278864   5.737   0.115  16.558 -0.3544 -0.1158  0.2164
19150TIP3    H178865   5.659   0.139  16.608 -0.6306 -1.4516  0.4443
19150TIP3    H278866   5.810   0.143  16.613 -0.6616  0.2620  0.4397
19151TIP3   OH278867   0.537   0.873  14.303 -0.2456  0.4561 -0.0742
19151TIP3    H178868   0.579   0.947  14.259 -0.5733  0.8175  0.2225
19151TIP3    H278869   0.543   0.802  14.239  1.5444  0.2501  0.2629
19152TIP3   OH278870   4.716   6.742   4.375 -0.1205 -0.2606 -0.1680
19152TIP3    H178871   4.658   6.733   4.451  0.2117 -1.6411 -0.0575
19152TIP3    H278872   4.731   6.652   4.345 -0.0425  0.2305 -1.7292
19153TIP3   OH278873   2.596   0.364  12.280  0.3524  0.1309 -0.1289
19153TIP3    H178874   2.631   0.326  12.200  1.1919  1.9255 -0.6608
19153TIP3    H278875   2.503   0.379  12.261  0.2174 -0.7905 -0.2256
19154TIP3   OH278876   6.355   1.668   5.562  0.3810 -0.2786  0.1214
19154TIP3    H178877   6.387   1.580   5.543  0.0333 -0.0983 -1.4769
19154TIP3    H278878   6.318   1.698   5.479 -2.5972  0.0833  1.4613
19155TIP3   OH278879   4.164   5.167   2.722 -0.0401  0.3461  0.3686
19155TIP3    H178880   4.199   5.244   2.767  0.7755 -0.6559  1.4848
19155TIP3    H278881   4.210   5.165   2.638 -0.5126  1.3921  0.0634
19156TIP3   OH278882   1.803   2.426  16.995 -0.0207  0.3018 -0.2824
19156TIP3    H178883   1.849   2.416  17.078  0.2462  3.6911  0.1119
19156TIP3    H278884   1.870   2.410  16.928  0.2114 -0.5984  0.1411
19157TIP3   OH278885   5.451   0.806   2.861 -0.8975 -0.0123  0.2173
19157TIP3    H178886   5.417   0.771   2.779  1.1680  0.7312 -1.0346
19157TIP3    H278887   5.457   0.730   2.920  0.4940 -1.1947 -1.3647
19158TIP3   OH278888   4.409   4.469   4.555  0.3017 -0.3599 -0.2428
19158TIP3    H178889   4.337   4.408   4.543  0.6772 -1.2881  1.8649
19158TIP3    H278890   4.440   4.487   4.466 -1.8040 -0.7823 -1.1121
19159TIP3   OH278891   0.730   4.735  13.112  0.6413  0.0214 -0.0325
19159TIP3    H178892   0.727   4.678  13.035  0.1896 -1.1706  0.8493
19159TIP3    H278893   0.786   4.689  13.174 -1.8177 -0.7964  1.7013
19160TIP3   OH278894   5.365   4.379  15.321 -0.2452 -0.1048  0.5162
19160TIP3    H178895   5.376   4.335  15.406 -0.5960  1.2974  1.3237
19160TIP3    H278896   5.453   4.387  15.286 -0.0193 -0.0588  1.0862
19161TIP3   OH278897   4.066   4.264   2.822 -0.1842 -0.4779  0.0835
19161TIP3    H178898   4.125   4.301   2.889 -0.3695 -1.6581  0.9252
19161TIP3    H278899   4.102   4.296   2.739  0.7172  0.1056  0.6725
19162TIP3   OH278900   2.353   1.625   5.409 -0.6602  0.6123  0.7541
19162TIP3    H178901   2.328   1.583   5.327  1.4577  0.2143  0.2638
19162TIP3    H278902   2.337   1.718   5.394 -0.3501  0.5344 -0.0969
19163TIP3   OH278903   6.558   1.853   1.841  0.0036 -0.2740  0.3142
19163TIP3    H178904   6.625   1.876   1.906  1.3679 -0.4632 -0.9655
19163TIP3    H278905   6.487   1.814   1.892  1.1655 -0.7228  1.6491
19164TIP3   OH278906   6.397   6.052  12.029 -0.0523  0.0862  0.5521
19164TIP3    H178907   6.335   5.979  12.028 -2.4612  1.8457 -2.9898
19164TIP3    H278908   6.342   6.130  12.035  2.1101  1.7196  0.4570
19165TIP3   OH278909   6.443   6.141   5.657  0.4599  0.1862  0.7545
19165TIP3    H178910   6.385   6.079   5.700  0.5521 -0.9429 -0.6611
19165TIP3    H278911   6.523   6.092   5.641 -0.1084 -0.0083 -2.0521
19166TIP3   OH278912   1.222   6.532   0.703 -0.5372 -0.0477 -0.4931
19166TIP3    H178913   1.134   6.494   0.699 -1.1865  1.4729 -1.4922
19166TIP3    H278914   1.270   6.487   0.633 -0.4627 -0.9629  0.1281
19167TIP3   OH278915   3.432   0.732  14.309  0.6985  0.2933  0.0105
19167TIP3    H178916   3.408   0.810  14.360 -1.0834  0.7488 -1.4190
19167TIP3    H278917   3.427   0.660  14.371  1.7352  1.2053  1.2063
19168TIP3   OH278918   2.753   2.772   2.350  0.1791  0.0975  0.2546
19168TIP3    H178919   2.799   2.694   2.380 -0.1092  0.0974  0.7054
19168TIP3    H278920   2.756   2.767   2.254 -1.4567 -1.4494  0.2227
19169TIP3   OH278921   5.508   3.320  15.507 -0.8972  0.1359 -0.5763
19169TIP3    H178922   5.532   3.404  15.467 -2.4368  1.5350  1.2415
19169TIP3    H278923   5.587   3.292  15.553 -0.8894  1.5373  0.3070
19170TIP3   OH278924   1.458   5.508   3.392  0.2478  0.0894  0.1904
19170TIP3    H178925   1.370   5.543   3.378  1.0601  2.0960 -0.3059
19170TIP3    H278926   1.504   5.577   3.440  1.4527 -1.0655  0.7634
19171TIP3   OH278927   3.236   1.546  12.200 -0.9831  0.7589  0.2447
19171TIP3    H178928   3.295   1.554  12.124 -1.3202  2.0485  0.1043
19171TIP3    H278929   3.294   1.539  12.275 -0.6468 -0.1219 -0.0827
19172TIP3   OH278930   3.256   6.714   5.221  0.2748  0.0085 -0.3995
19172TIP3    H178931   3.279   6.726   5.313  1.2530 -1.6318 -0.3842
19172TIP3    H278932   3.316   6.773   5.174 -0.5267  1.1759  0.0139
19173TIP3   OH278933   1.146   1.002  11.309  0.2384 -0.1540 -0.0625
19173TIP3    H178934   1.234   0.972  11.286  0.8591  1.4711  0.0542
19173TIP3    H278935   1.143   0.997  11.404  0.2672 -0.0408 -0.0557
19174TIP3   OH278936   4.640   2.229   5.390  0.5196 -1.0395  0.4938
19174TIP3    H178937   4.593   2.211   5.471 -0.4588 -0.5958  0.0485
19174TIP3    H278938   4.590   2.185   5.322 -0.0642  0.5572 -0.1717
19175TIP3   OH278939   5.827   0.087   0.952 -0.3830 -0.0792  0.1285
19175TIP3    H178940   5.796   0.057   1.038  0.6803 -1.4773  0.0660
19175TIP3    H278941   5.868   0.172   0.969  0.9833 -0.9316  1.2653
19176TIP3   OH278942   0.384   6.527   4.385 -0.3798  0.1576  0.3148
19176TIP3    H178943   0.338   6.538   4.468 -1.1966  0.5330 -0.1759
19176TIP3    H278944   0.472   6.560   4.401 -0.3991 -0.1916  1.1543
19177TIP3   OH278945   1.898   4.544  11.993 -0.5585  0.1928  0.2001
19177TIP3    H178946   1.879   4.531  11.900 -0.1966  0.7873  0.0424
19177TIP3    H278947   1.889   4.638  12.007 -1.1413  0.0465  0.8871
19178TIP3   OH278948   4.906   5.225   5.908  0.2839  0.2436 -0.3353
19178TIP3    H178949   4.869   5.293   5.965 -0.1299  0.0531 -0.3700
19178TIP3    H278950   4.932   5.155   5.968 -1.7009 -0.6809 -0.4801
19179TIP3   OH278951   0.718   6.030  11.518  0.2271  0.0866 -0.3484
19179TIP3    H178952   0.643   6.073  11.558  0.1807 -0.9279  0.7235
19179TIP3    H278953   0.680   5.961  11.463  0.3466 -0.6003  0.4006
19180TIP3   OH278954   3.876   2.963   2.543 -0.3307  0.5409 -0.1289
19180TIP3    H178955   3.820   3.000   2.474 -1.4521  0.1081  0.5320
19180TIP3    H278956   3.857   2.869   2.540 -0.0808  0.4729  0.5058
19181TIP3   OH278957   1.090   2.180  12.960  0.2063 -0.1399  0.0680
19181TIP3    H178958   1.115   2.174  12.868  0.5251 -2.9585  0.2733
19181TIP3    H278959   1.142   2.254  12.993  0.3940  0.6800 -1.8686
19182TIP3   OH278960   3.304   5.150   0.400  0.5394  0.3032  0.6354
19182TIP3    H178961   3.285   5.241   0.422  2.2626  1.2238 -1.3574
19182TIP3    H278962   3.341   5.154   0.312  0.6248 -2.3461  0.4844
19183TIP3   OH278963   2.218   4.436  13.863 -0.0983 -0.3477 -0.4316
19183TIP3    H178964   2.176   4.492  13.928 -0.8087  0.0678 -1.2289
19183TIP3    H278965   2.160   4.440  13.787  1.4015  0.2771 -1.5931
19184TIP3   OH278966   2.201   2.520  11.808 -0.0104 -0.2001  0.2289
19184TIP3    H178967   2.159   2.597  11.771 -1.7838 -1.2245 -0.0491
19184TIP3    H278968   2.149   2.500  11.886  0.5015 -1.0271  0.3792
19185TIP3   OH278969   5.887   4.203   1.997 -0.2228  0.3526 -0.1553
19185TIP3    H178970   5.890   4.282   2.050 -3.1503  2.8745 -3.2234
19185TIP3    H278971   5.935   4.225   1.917  0.0750 -1.5111 -0.5429
19186TIP3   OH278972   0.830   5.820  10.144 -0.3921  0.3805  0.0458
19186TIP3    H178973   0.876   5.901  10.169  0.2874 -0.4006  1.4727
19186TIP3    H278974   0.776   5.845  10.070 -0.8126  2.3506  0.9545
19187TIP3   OH278975   0.235   4.774  12.636  0.1702 -0.2988 -0.6008
19187TIP3    H178976   0.264   4.823  12.559  1.6354 -1.0520 -0.5549
19187TIP3    H278977   0.155   4.819  12.664  0.2971  0.7419 -1.8177
19188TIP3   OH278978   3.828   1.208  16.562 -0.2572  0.2865  0.0358
19188TIP3    H178979   3.825   1.136  16.625  1.4444  0.3443  0.2315
19188TIP3    H278980   3.849   1.285  16.614  1.1720  0.3328 -0.5787
19189TIP3   OH278981   1.169   5.159   2.807  0.2962  0.3921 -0.3948
19189TIP3    H178982   1.075   5.174   2.808  0.0852 -0.8076  0.5364
19189TIP3    H278983   1.193   5.148   2.899  0.2889 -5.0189 -0.7213
19190TIP3   OH278984   3.506   4.471   6.144  0.1221 -0.5948 -0.1528
19190TIP3    H178985   3.527   4.457   6.051 -0.4306  0.3561 -0.4311
19190TIP3    H278986   3.523   4.386   6.185 -0.2350 -1.2123 -1.2377
19191TIP3   OH278987   4.969   4.433  12.842  0.5504 -0.1384 -0.0435
19191TIP3    H178988   4.978   4.459  12.751 -1.0940  0.2915 -0.1084
19191TIP3    H278989   4.931   4.344  12.839  0.6445 -0.1894  0.2169
19192TIP3   OH278990   1.883   0.195  16.565 -0.2938 -0.0088  0.8049
19192TIP3    H178991   1.866   0.273  16.512  1.7492 -1.1709 -1.7617
19192TIP3    H278992   1.821   0.130  16.533 -1.3450  0.2036  2.2846
19193TIP3   OH278993   0.892   2.578  15.825 -0.4697  0.1482  0.1756
19193TIP3    H178994   0.970   2.628  15.845 -0.6382  0.7947 -0.7217
19193TIP3    H278995   0.831   2.641  15.787 -0.8548 -0.6397 -0.5639
19194TIP3   OH278996   6.444   5.433  16.038 -0.2105  0.0854  0.1831
19194TIP3    H178997   6.446   5.433  15.942 -0.3800  0.0269  0.1803
19194TIP3    H278998   6.484   5.517  16.062  0.5185 -0.2299  0.0755
19195TIP3   OH278999   5.948   2.312   3.008  0.0149  0.0165  0.2218
19195TIP3    H179000   5.927   2.405   3.007  0.4351  0.2017  2.3474
19195TIP3    H279001   6.022   2.305   3.069 -0.0818 -1.7153  0.1987
19196TIP3   OH279002   5.893   0.850   4.397  0.5491  0.1370  0.4618
19196TIP3    H179003   5.911   0.758   4.411  0.2230 -0.1321 -0.7610
19196TIP3    H279004   5.812   0.866   4.445 -0.3600 -0.6676 -0.7351
19197TIP3   OH279005   2.158   2.751  11.683 -0.3410  0.7991  0.0608
19197TIP3    H179006   2.243   2.782  11.654  0.3910 -3.7056 -3.8795
19197TIP3    H279007   2.095   2.796  11.626 -0.3159  1.7734  0.7833
19198TIP3   OH279008   5.803   3.908  16.404  0.7635  0.0919  0.7841
19198TIP3    H179009   5.820   3.904  16.310  0.1227  0.1651  0.6577
19198TIP3    H279010   5.783   3.818  16.429  0.8819  0.0815  0.8449
19199TIP3   OH279011   0.442   3.008  16.383 -0.1488  0.0244  0.0671
19199TIP3    H179012   0.383   3.044  16.317  1.2548  3.3065  0.4002
19199TIP3    H279013   0.521   2.983  16.335 -0.5324 -1.2409  0.0586
19200TIP3   OH279014   6.350   1.829  15.512  0.0755  0.3393 -0.0179
19200TIP3    H179015   6.352   1.847  15.606  0.7650  2.9322 -0.4497
19200TIP3    H279016   6.268   1.781  15.498  0.2803 -0.6680  1.9626
19201TIP3   OH279017   5.005   5.996  14.668  0.0290 -0.0158 -0.6686
19201TIP3    H179018   5.054   6.078  14.675  0.3866 -0.2305 -0.6692
19201TIP3    H279019   4.950   5.995  14.747  1.9380 -1.0285  0.7316
19202TIP3   OH279020   3.758   4.112  11.900 -0.3454 -0.2816  0.2395
19202TIP3    H179021   3.850   4.139  11.903  0.1994 -1.2693 -3.2877
19202TIP3    H279022   3.761   4.016  11.899 -1.2860 -0.3260 -0.8330
19203TIP3   OH279023   3.578   5.794  12.303  0.2209  0.5423  0.0806
19203TIP3    H179024   3.666   5.830  12.291  0.2566  0.4932  0.1926
19203TIP3    H279025   3.520   5.864  12.274  0.3296 -0.0435 -1.6235
19204TIP3   OH279026   3.131   1.370   4.281  0.1662 -0.0679 -0.4027
19204TIP3    H179027   3.181   1.292   4.304  0.7885  0.8957  1.8540
19204TIP3    H279028   3.079   1.389   4.359  0.2587  1.9082 -0.7579
19205TIP3   OH279029   6.317   5.131  15.206  0.1106  0.3616 -0.0286
19205TIP3    H179030   6.223   5.137  15.184  0.1856 -0.6219 -0.6597
19205TIP3    H279031   6.324   5.053  15.260  0.6131  0.2719 -0.2211
19206TIP3   OH279032   3.981   2.181   3.499  0.3941  0.1990 -0.3875
19206TIP3    H179033   4.031   2.262   3.510 -0.8293  1.3182 -2.5003
19206TIP3    H279034   4.016   2.141   3.419  1.6555 -1.9643  1.1300
19207TIP3   OH279035   4.107   5.249  15.707 -0.0845 -0.0276  0.2082
19207TIP3    H179036   4.098   5.227  15.615  0.0220  1.6137 -0.2137
19207TIP3    H279037   4.098   5.164  15.752 -2.2977 -0.6062 -1.1266
19208TIP3   OH279038   2.307   1.527  10.638  0.0132  0.6780  0.1442
19208TIP3    H179039   2.256   1.470  10.580  1.8390 -1.3872  0.4460
19208TIP3    H279040   2.390   1.540  10.593 -0.1566  2.8094  0.3074
19209TIP3   OH279041   5.742   0.712   1.133 -0.1660 -0.1739  0.5058
19209TIP3    H179042   5.649   0.729   1.144  0.1832  1.6833  1.1230
19209TIP3    H279043   5.751   0.678   1.044 -1.5251 -1.4263  0.8230
19210TIP3   OH279044   2.438   3.835  10.523 -0.5016 -0.0110  0.1625
19210TIP3    H179045   2.431   3.926  10.553  0.4788  0.2787 -0.4294
19210TIP3    H279046   2.518   3.834  10.471  0.6844 -1.7103  1.9079
19211TIP3   OH279047   5.066   5.413   6.392  0.0231 -0.4171  0.1216
19211TIP3    H179048   5.138   5.419   6.330 -0.3843 -0.2000 -0.3315
19211TIP3    H279049   5.026   5.500   6.391 -0.3986 -0.6081  0.1829
19212TIP3   OH279050   2.478   1.490   2.793  0.4619 -0.0880  0.1313
19212TIP3    H179051   2.562   1.531   2.816 -0.2242  1.4146  0.0844
19212TIP3    H279052   2.416   1.525   2.857 -0.5384  0.4988 -1.0938
19213TIP3   OH279053   1.087   2.670   5.423 -0.3950 -0.0077  0.2668
19213TIP3    H179054   1.088   2.608   5.350 -0.2454  0.3780 -0.0598
19213TIP3    H279055   1.095   2.756   5.382 -1.0342  0.2599  0.6866
19214TIP3   OH279056   2.519   0.733   5.582 -0.1069  0.7994  0.5010
19214TIP3    H179057   2.529   0.791   5.506 -0.8603  1.4102  0.8559
19214TIP3    H279058   2.609   0.711   5.606  0.1498 -0.9065 -1.6662
19215TIP3   OH279059   2.127   3.348   3.390  0.6905 -0.3689 -0.1476
19215TIP3    H179060   2.160   3.400   3.317  0.6532 -1.9237 -1.3068
19215TIP3    H279061   2.034   3.337   3.372  0.7310 -0.9770  0.0005
19216TIP3   OH279062   4.227   5.754   5.498 -0.4804  1.0287 -0.2099
19216TIP3    H179063   4.200   5.763   5.589  1.0667 -0.3822  0.4296
19216TIP3    H279064   4.321   5.739   5.501 -0.5421 -0.0677 -1.9631
19217TIP3   OH279065   5.108   4.346   0.563 -0.1958  0.6194 -0.8750
19217TIP3    H179066   5.062   4.410   0.508  0.9924  2.7362  0.4665
19217TIP3    H279067   5.188   4.391   0.590  0.7752 -1.5180  0.0458
19218TIP3   OH279068   1.269   5.905  12.856 -0.6231  0.0977 -0.1010
19218TIP3    H179069   1.198   5.911  12.921  0.0454  0.5901  0.5972
19218TIP3    H279070   1.298   5.814  12.861 -0.8242  0.0395  0.0255
19219TIP3   OH279071   3.576   2.524   5.014 -0.0830  0.7444  0.4156
19219TIP3    H179072   3.501   2.549   4.959 -0.8395 -0.2175  0.9871
19219TIP3    H279073   3.650   2.572   4.976 -0.5904  0.1361 -1.4321
19220TIP3   OH279074   0.223   6.703   2.793  0.8044  0.2701 -0.0372
19220TIP3    H179075   0.212   6.792   2.759 -1.0681 -0.2803 -1.0784
19220TIP3    H279076   0.204   6.710   2.887  0.8694  1.0021 -0.0764
19221TIP3   OH279077   3.424   2.331  16.000 -0.3682  0.4345 -0.8427
19221TIP3    H179078   3.506   2.280  15.994 -0.5792  0.0104 -0.2548
19221TIP3    H279079   3.368   2.294  15.931 -0.3652  0.1562 -0.6980
19222TIP3   OH279080   4.806   5.542   4.798  0.0179 -0.7072 -0.1640
19222TIP3    H179081   4.883   5.555   4.743 -0.1255 -0.3311 -0.2826
19222TIP3    H279082   4.764   5.464   4.763 -0.3707 -0.1582 -0.9508
19223TIP3   OH279083   3.008   3.567  14.422  0.0869  0.5538 -0.0288
19223TIP3    H179084   3.072   3.619  14.471 -0.6780  1.1930  0.3162
19223TIP3    H279085   2.928   3.572  14.475  0.3048 -2.0512  0.6944
19224TIP3   OH279086   1.827   2.289   3.143 -0.1386 -0.6957 -1.2836
19224TIP3    H179087   1.841   2.383   3.143  0.7078 -0.8082 -0.7425
19224TIP3    H279088   1.743   2.277   3.099 -0.5944  0.3610 -0.7393
19225TIP3   OH279089   2.741   0.063   3.244  0.5262 -0.7019 -0.0956
19225TIP3    H179090   2.743  -0.012   3.184 -0.8894  1.0114 -2.4962
19225TIP3    H279091   2.649   0.070   3.271  0.9281 -0.7268  1.3829
19226TIP3   OH279092   5.698   2.883  14.492  0.2916  0.6963  0.0213
19226TIP3    H179093   5.611   2.909  14.523  0.7792  0.4738  1.6408
19226TIP3    H279094   5.694   2.787  14.491  0.2066  0.7018 -0.8781
19227TIP3   OH279095   3.201   1.059   2.343 -0.0968  0.4060  0.2387
19227TIP3    H179096   3.290   1.026   2.356 -0.3967 -0.2370  0.7514
19227TIP3    H279097   3.157   0.991   2.293  0.1102  1.4097 -1.3725
19228TIP3   OH279098   0.557   0.277  15.161  0.5035 -0.4392  0.4002
19228TIP3    H179099   0.622   0.215  15.193  0.3322 -1.3987 -1.0371
19228TIP3    H279100   0.577   0.287  15.067 -1.0017 -0.2445  0.0702
19229TIP3   OH279101   0.335   0.412  16.689  0.2479 -0.4980 -0.1365
19229TIP3    H179102   0.375   0.343  16.742  0.0809 -0.8030 -0.4064
19229TIP3    H279103   0.402   0.481  16.686 -0.6827  0.7072  2.6802
19230TIP3   OH279104   1.470   2.832   4.835  0.6441 -0.0687 -0.3388
19230TIP3    H179105   1.525   2.874   4.901 -0.4562  0.5198  0.2290
19230TIP3    H279106   1.434   2.755   4.878 -0.1515  0.3680 -0.1928
19231TIP3   OH279107   5.298   1.227  13.056 -0.5024 -0.0547  0.1687
19231TIP3    H179108   5.320   1.290  13.124 -0.0775 -0.2666  0.2333
19231TIP3    H279109   5.382   1.209  13.013 -0.5898 -0.6900  0.2530
19232TIP3   OH279110   6.728   6.597  11.551  0.1424 -0.2154 -0.5510
19232TIP3    H179111   6.751   6.504  11.555 -0.6595 -0.4938 -1.8502
19232TIP3    H279112   6.732   6.618  11.458 -1.1412  0.6606 -0.4242
19233TIP3   OH279113   2.757   0.857   0.815 -0.1556  0.7245  0.4584
19233TIP3    H179114   2.754   0.815   0.901 -2.8222 -1.5253 -0.5990
19233TIP3    H279115   2.667   0.889   0.801  0.2856  1.2594 -1.3856
19234TIP3   OH279116   6.534   3.554   1.204  0.6382 -0.3450 -0.1609
19234TIP3    H179117   6.451   3.586   1.169  0.3185 -0.2150  0.6899
19234TIP3    H279118   6.511   3.472   1.248  0.8146  0.0638  0.7213
19235TIP3   OH279119   1.158   6.037  10.867 -0.4557 -0.1232 -0.4580
19235TIP3    H179120   1.172   6.102  10.798  0.1108 -0.4095 -0.6241
19235TIP3    H279121   1.074   6.060  10.906  0.2074  1.3475  0.1819
19236TIP3   OH279122   4.948   1.944  13.324  0.2818  0.1783 -0.1961
19236TIP3    H179123   5.030   1.921  13.368  0.4548 -0.4257 -0.8169
19236TIP3    H279124   4.941   1.881  13.252 -0.3107  0.7437 -0.6467
19237TIP3   OH279125   3.530   4.466  10.583 -0.0325 -0.1183  0.1538
19237TIP3    H179126   3.551   4.511  10.665  0.5353  0.7526 -0.4464
19237TIP3    H279127   3.436   4.449  10.588 -0.1172  0.4620  0.7202
19238TIP3   OH279128   1.553   2.972   2.056  0.1680 -0.5394  0.4831
19238TIP3    H179129   1.615   2.981   2.128 -0.8383 -1.0988  1.4378
19238TIP3    H279130   1.520   2.883   2.064 -0.7261 -0.2617 -0.0434
19239TIP3   OH279131   5.698   3.766  13.690 -0.4721  0.1978  0.2738
19239TIP3    H179132   5.698   3.823  13.767  0.0298  1.8965 -0.9269
19239TIP3    H279133   5.624   3.797  13.637 -0.6143 -0.7372 -0.0991
19240TIP3   OH279134   2.936   0.199   6.502  0.4801 -0.2421  0.3367
19240TIP3    H179135   3.029   0.224   6.508  0.5885 -0.4854 -0.2623
19240TIP3    H279136   2.926   0.167   6.412 -0.7575  2.0768 -0.4109
19241TIP3   OH279137   1.068   4.286  13.194  0.3354 -0.1225  0.1374
19241TIP3    H179138   1.089   4.193  13.200 -0.1297 -0.2648 -0.3501
19241TIP3    H279139   1.055   4.302  13.100 -2.7291 -0.2899  0.4290
19242TIP3   OH279140   4.439   0.246  11.843  0.1654 -0.4785 -0.1642
19242TIP3    H179141   4.519   0.205  11.811  0.3846  0.4911 -0.8768
19242TIP3    H279142   4.382   0.251  11.766 -0.0441  0.1156  0.0238
19243TIP3   OH279143   3.137   4.065   3.050  0.0699  0.6015 -0.5898
19243TIP3    H179144   3.198   4.137   3.068  1.3187 -0.5858  0.1439
19243TIP3    H279145   3.087   4.057   3.131 -1.0909  1.5682 -1.1885
19244TIP3   OH279146   2.326   1.916  14.424  0.0164  0.2112 -0.2589
19244TIP3    H179147   2.331   1.873  14.339  1.3779  2.2421 -1.3111
19244TIP3    H279148   2.262   1.865  14.474 -0.1870 -1.5450 -2.1816
19245TIP3   OH279149   4.452   1.386  16.927 -0.2110 -0.0968 -0.3177
19245TIP3    H179150   4.516   1.453  16.953 -0.5164 -0.2614  0.8990
19245TIP3    H279151   4.383   1.392  16.993  0.0437 -2.0169  0.1756
19246TIP3   OH279152   6.091   2.546   6.035 -0.3479 -0.0264  0.2080
19246TIP3    H179153   6.174   2.510   6.068 -0.8075 -0.5708  0.7929
19246TIP3    H279154   6.057   2.479   5.977 -0.4449  0.1450  0.0663
19247TIP3   OH279155   4.266   0.005  15.604 -0.2271 -0.4801 -0.3327
19247TIP3    H179156   4.173   0.015  15.587 -0.1582  0.0478 -0.3976
19247TIP3    H279157   4.307   0.013  15.518 -0.1207 -0.7277 -0.3067
19248TIP3   OH279158   4.309   1.356   3.499  0.2253  0.5955 -0.5185
19248TIP3    H179159   4.276   1.270   3.471  1.1622  0.3686 -0.9827
19248TIP3    H279160   4.399   1.358   3.468  0.3464  1.5911 -0.1450
19249TIP3   OH279161   1.386   5.833   0.894 -0.0352 -0.3668  0.3413
19249TIP3    H179162   1.463   5.776   0.886  0.0944 -0.1109 -0.3292
19249TIP3    H279163   1.321   5.779   0.938  0.2030 -0.9252  0.0228
19250TIP3   OH279164   2.301   0.376  15.136 -0.0826 -0.2491 -0.0809
19250TIP3    H179165   2.252   0.419  15.206  0.7605  0.6192  0.0043
19250TIP3    H279166   2.236   0.359  15.067 -1.0081 -1.5125  1.0538
19251TIP3   OH279167   3.343   3.136   5.429 -0.6126  0.4923 -0.5120
19251TIP3    H179168   3.264   3.178   5.460  0.4857  1.0923  1.6435
19251TIP3    H279169   3.396   3.123   5.507  1.5336  0.3556 -1.8981
19252TIP3   OH279170   4.341   1.772  14.664  0.5727 -0.5389  0.4343
19252TIP3    H179171   4.308   1.794  14.751  2.4793 -1.5077  1.4692
19252TIP3    H279172   4.386   1.851  14.635  1.7532 -0.8813  1.2754
19253TIP3   OH279173   6.707   2.669   5.682  0.1177 -0.5866  0.3447
19253TIP3    H179174   6.764   2.654   5.606 -1.7749  0.3612 -1.3680
19253TIP3    H279175   6.650   2.592   5.684  0.6844 -1.0032  1.3646
19254TIP3   OH279176   1.038   1.252  16.397  0.5605 -0.1814  0.1521
19254TIP3    H179177   0.944   1.265  16.383  0.8151 -0.4174 -2.2627
19254TIP3    H279178   1.045   1.164  16.435 -0.1626 -0.6614 -0.7830
19255TIP3   OH279179   1.150   5.461   1.930 -0.6190  0.8211  0.0964
19255TIP3    H179180   1.191   5.374   1.930  0.2095  1.1901  1.0258
19255TIP3    H279181   1.058   5.445   1.913 -0.1758 -0.0816 -1.6822
19256TIP3   OH279182   1.656   4.080  15.658  0.3479 -0.2300 -0.1408
19256TIP3    H179183   1.570   4.098  15.696 -0.7034 -2.5864 -1.1876
19256TIP3    H279184   1.650   4.114  15.569  0.7276  0.1377 -0.0276
19257TIP3   OH279185   1.241   2.666  13.556 -0.1729 -0.5367 -0.2235
19257TIP3    H179186   1.222   2.752  13.519 -0.5494 -0.7090 -0.4276
19257TIP3    H279187   1.189   2.604  13.504 -1.7996 -0.6466  1.4372
19258TIP3   OH279188   1.728   1.302   0.887 -0.0185 -0.4501 -0.3703
19258TIP3    H179189   1.782   1.227   0.860 -1.2751 -1.6890  0.4216
19258TIP3    H279190   1.638   1.276   0.867 -0.5682  0.4517  0.7685
19259TIP3   OH279191   6.258   4.933   2.860 -0.3690  0.1649  0.1322
19259TIP3    H179192   6.211   4.863   2.814  0.4715 -0.2852 -0.0597
19259TIP3    H279193   6.337   4.948   2.807 -1.0288  1.9892 -0.4150
19260TIP3   OH279194   5.813   1.398  14.670 -0.1246  0.2500 -0.1194
19260TIP3    H179195   5.826   1.303  14.669  0.4729  0.3086  0.6749
19260TIP3    H279196   5.845   1.426  14.756 -0.1280  1.1959 -0.4081
19261TIP3   OH279197   5.518   1.691  11.016  0.0038  0.2867 -0.1432
19261TIP3    H179198   5.605   1.678  11.056 -0.5969  0.8202  1.4194
19261TIP3    H279199   5.459   1.640  11.071 -0.7864  0.5163 -0.7664
19262TIP3   OH279200   5.765   2.580  11.560  0.1984  0.0799 -0.0813
19262TIP3    H179201   5.690   2.558  11.505  0.2192 -0.1598 -0.0152
19262TIP3    H279202   5.752   2.529  11.640  0.7564 -0.4443 -0.3212
19263TIP3   OH279203   2.710   5.911  15.329 -0.0942 -0.0052  0.2468
19263TIP3    H179204   2.702   5.874  15.242  1.2032  0.4032 -0.0715
19263TIP3    H279205   2.713   5.836  15.388 -1.2541 -0.2746 -0.0055
19264TIP3   OH279206   1.432   1.919  16.134 -0.4270 -0.5583 -0.0485
19264TIP3    H179207   1.411   1.999  16.086  0.4716 -1.0691 -1.3885
19264TIP3    H279208   1.418   1.849  16.070  1.3901 -1.2286  0.2292
19265TIP3   OH279209   2.833   3.771   0.686 -0.2161 -0.3849 -0.6319
19265TIP3    H179210   2.909   3.733   0.730 -0.2288 -1.1022 -1.2054
19265TIP3    H279211   2.763   3.769   0.750  0.1078 -0.1971 -0.2672
19266TIP3   OH279212   5.292   0.334   0.392  0.0964 -0.4375  0.2917
19266TIP3    H179213   5.213   0.313   0.343  0.0841  0.2620 -0.0104
19266TIP3    H279214   5.364   0.310   0.334  0.0958  2.3592 -1.0521
19267TIP3   OH279215   0.595   3.485  12.744 -0.0163  0.5110 -0.7914
19267TIP3    H179216   0.539   3.432  12.801 -0.0646  2.1796  0.8458
19267TIP3    H279217   0.605   3.568  12.792  1.2384  1.4330 -2.5383
19268TIP3   OH279218   3.306   4.051   2.264 -0.2969 -0.1592 -0.1834
19268TIP3    H179219   3.395   4.078   2.285 -0.5058  1.0036 -0.6690
19268TIP3    H279220   3.282   3.990   2.333  1.1289 -1.0934 -0.4665
19269TIP3   OH279221   1.944   6.748   2.845 -0.8840 -0.2153 -0.1307
19269TIP3    H179222   1.968   6.661   2.815  0.0249  0.2834 -0.9071
19269TIP3    H279223   2.015   6.774   2.905 -0.7199  0.3068 -0.5422
19270TIP3   OH279224   5.694   3.674  17.208 -0.7169  0.4954  0.1864
19270TIP3    H179225   5.709   3.765  17.232  1.3185  0.2738 -0.0549
19270TIP3    H279226   5.772   3.628  17.239 -1.0468 -0.9205 -0.9765
19271TIP3   OH279227   2.007   3.053   6.362 -0.0798  0.4752  0.4118
19271TIP3    H179228   1.973   3.004   6.288 -1.1018  1.5326  0.1420
19271TIP3    H279229   1.930   3.069   6.417  0.4217  0.8654  1.0133
19272TIP3   OH279230   1.534   5.427   4.120  0.6534 -0.0923  0.1643
19272TIP3    H179231   1.573   5.449   4.035  2.6446  0.8313  1.2495
19272TIP3    H279232   1.509   5.335   4.112  0.2566  0.1400 -1.6041
19273TIP3   OH279233   0.635   2.868   0.041 -0.0573  0.4091  0.2515
19273TIP3    H179234   0.654   2.957   0.072  0.2614  0.1387  0.8442
19273TIP3    H279235   0.573   2.833   0.105 -0.0627  0.1509  0.1053
19274TIP3   OH279236   1.071   0.446  14.477  0.1679  0.5591 -0.2151
19274TIP3    H179237   1.022   0.514  14.522  1.5854  1.2886  0.2816
19274TIP3    H279238   1.063   0.369  14.533 -0.7269  0.5537 -0.3440
19275TIP3   OH279239   2.839   5.637   4.703  0.3013 -0.1097 -0.3496
19275TIP3    H179240   2.857   5.590   4.784 -0.6614 -0.5623 -0.3765
19275TIP3    H279241   2.902   5.603   4.640  1.3923  0.6157  0.3264
19276TIP3   OH279242   6.337   1.136   5.255 -0.3377 -0.4846  0.5990
19276TIP3    H179243   6.384   1.108   5.333  0.3203  0.8474  0.7152
19276TIP3    H279244   6.281   1.208   5.285 -0.4160 -0.2657 -0.0535
19277TIP3   OH279245   2.728   3.359  13.720  0.1587 -0.1264 -0.2543
19277TIP3    H179246   2.766   3.445  13.736  0.3363 -0.3148  0.3403
19277TIP3    H279247   2.717   3.356  13.625  0.7094  0.3165 -0.3391
19278TIP3   OH279248   0.040   6.705   1.956 -0.5900 -0.3316 -0.4939
19278TIP3    H179249   0.065   6.756   2.033  2.0445  0.0187 -1.4721
19278TIP3    H279250   0.078   6.753   1.882  1.8785 -3.4370 -1.4850
19279TIP3   OH279251   0.036   3.208  13.365 -0.1076  0.2791  0.4717
19279TIP3    H179252  -0.029   3.201  13.434 -0.9121  0.4163 -0.2542
19279TIP3    H279253   0.119   3.188  13.408 -0.7900 -1.3704  1.1027
19280TIP3   OH279254   3.656   6.193  11.928 -0.1026  0.0047 -0.3758
19280TIP3    H179255   3.694   6.280  11.942  0.7120 -0.1902 -1.2968
19280TIP3    H279256   3.688   6.141  12.001 -0.9845  0.5807  0.4498
19281TIP3   OH279257   2.184   5.059  11.600 -0.0041  0.6294 -0.5057
19281TIP3    H179258   2.228   5.144  11.608  0.1180  0.7954 -2.3342
19281TIP3    H279259   2.253   4.995  11.618 -0.1163  0.8918  0.9642
19282TIP3   OH279260   6.583   4.526   6.042  0.0402 -0.1986 -0.0491
19282TIP3    H179261   6.595   4.596   6.106  0.1077  0.5461 -0.8657
19282TIP3    H279262   6.514   4.471   6.080 -0.3162  0.5452  0.4047
19283TIP3   OH279263   2.848   4.921  12.272  0.9352  0.7246 -0.2650
19283TIP3    H179264   2.935   4.950  12.297  0.6016  1.5992 -0.1126
19283TIP3    H279265   2.856   4.825  12.266  1.7872  0.7600  0.1651
19284TIP3   OH279266   5.107   1.205   2.380 -0.3385 -0.5798 -0.3781
19284TIP3    H179267   5.181   1.261   2.357 -0.0563 -0.1983  1.2710
19284TIP3    H279268   5.140   1.116   2.370 -0.1648 -0.4366 -1.1427
19285TIP3   OH279269   5.694   3.831  12.037  0.4559  0.0009  0.9208
19285TIP3    H179270   5.670   3.829  11.944 -0.9254  0.2410  1.2509
19285TIP3    H279271   5.694   3.924  12.059 -2.3399 -0.1173  1.8686
19286TIP3   OH279272   2.261   3.219  14.276  0.1872 -0.1935 -0.1953
19286TIP3    H179273   2.219   3.265  14.348  1.3688  1.2469 -0.3839
19286TIP3    H279274   2.252   3.126  14.298 -1.7365  0.1186  0.4890
19287TIP3   OH279275   2.102   2.622   3.345  0.4240 -0.1262 -0.0617
19287TIP3    H179276   2.015   2.625   3.303  0.3356 -0.9936  0.0491
19287TIP3    H279277   2.084   2.602   3.437  0.6131  1.8473  0.4587
19288TIP3   OH279278   4.915   0.083  11.532 -0.2198 -0.1224  0.4656
19288TIP3    H179279   4.912   0.171  11.495 -0.1641 -0.5587 -0.6113
19288TIP3    H279280   4.936   0.026  11.458 -1.7717 -1.2226  0.8157
19289TIP3   OH279281   3.395   3.720   4.272  0.1148  0.4174  0.0775
19289TIP3    H179282   3.484   3.684   4.272  0.2064  0.6005  1.2244
19289TIP3    H279283   3.397   3.791   4.336 -1.0948 -0.2020  0.8521
19290TIP3   OH279284   1.620   2.756   0.503 -0.1219 -0.0212 -0.5590
19290TIP3    H179285   1.680   2.690   0.539  0.5472  0.6162 -0.4658
19290TIP3    H279286   1.563   2.779   0.576  0.1092  0.0199 -0.3895
19291TIP3   OH279287   6.182   4.615   0.907  1.1241  0.4701 -0.5627
19291TIP3    H179288   6.199   4.707   0.927  1.2664  0.3408 -0.0694
19291TIP3    H279289   6.233   4.566   0.972 -0.6061  0.0682  0.5728
19292TIP3   OH279290   0.615   0.410   5.878  0.1416  0.0605  0.1848
19292TIP3    H179291   0.589   0.430   5.968 -0.5647  0.4317 -0.1008
19292TIP3    H279292   0.569   0.473   5.824  0.7800  0.0241 -0.4290
19293TIP3   OH279293   3.187   4.423   1.490  0.1175  0.0868 -0.7377
19293TIP3    H179294   3.268   4.441   1.538  0.5867  0.8541 -1.7799
19293TIP3    H279295   3.198   4.469   1.407 -1.8505  1.1615 -0.4592
19294TIP3   OH279296   4.288   1.141   0.410  0.1087  0.3302 -0.0191
19294TIP3    H179297   4.193   1.132   0.417  0.1046  0.7323  0.4985
19294TIP3    H279298   4.322   1.094   0.486  0.2285  1.7608  0.8439
19295TIP3   OH279299   5.982   4.947   1.754  0.0214 -0.0731  0.5569
19295TIP3    H179300   5.926   5.024   1.768 -0.0851  0.0352 -0.4266
19295TIP3    H279301   5.930   4.890   1.698  0.1731 -0.7947  1.1461
19296TIP3   OH279302   3.746   0.698  12.189 -0.5114 -0.4495 -0.7579
19296TIP3    H179303   3.695   0.766  12.232  0.4931  0.3108 -0.7530
19296TIP3    H279304   3.706   0.688  12.103  0.9588  2.0901 -1.8200
19297TIP3   OH279305   1.602   2.694  16.215  0.4498  0.3791  0.5958
19297TIP3    H179306   1.612   2.624  16.151  3.4752  1.8077 -0.7137
19297TIP3    H279307   1.651   2.664  16.291  1.0981  0.7013  0.3181
19298TIP3   OH279308   3.322   1.069   5.282 -0.5188  0.3907  0.2135
19298TIP3    H179309   3.381   1.107   5.348  1.5851 -2.0441 -0.1299
19298TIP3    H279310   3.313   0.977   5.308  1.8595 -1.1856 -3.7097
19299TIP3   OH279311   2.316   6.645   0.613 -0.0224 -0.2291  0.3982
19299TIP3    H179312   2.315   6.564   0.562  1.0106  1.4440 -2.5470
19299TIP3    H279313   2.388   6.633   0.675  1.5901 -0.8429 -1.4609
19300TIP3   OH279314   5.166   5.492   3.514  0.4117 -0.4059 -0.3179
19300TIP3    H179315   5.111   5.449   3.450  0.3786 -0.3111 -0.3536
19300TIP3    H279316   5.131   5.464   3.599  0.0936 -0.0802 -0.3374
19301TIP3   OH279317   4.329   2.204  11.864  0.6194 -0.0598 -0.3209
19301TIP3    H179318   4.291   2.125  11.903  1.6098  0.0863  1.0471
19301TIP3    H279319   4.419   2.206  11.897  0.8652  1.2119 -0.9834
19302TIP3   OH279320   0.770   1.154  11.803 -0.2035  0.1447 -0.1450
19302TIP3    H179321   0.757   1.065  11.834 -0.3407  0.2568  0.1277
19302TIP3    H279322   0.807   1.200  11.879  0.2520  0.2184 -0.4115
19303TIP3   OH279323   2.865   2.769  10.870  0.2174 -0.2796  0.2770
19303TIP3    H179324   2.806   2.830  10.826  1.0509  1.4229  1.3942
19303TIP3    H279325   2.910   2.723  10.800 -0.6183  0.2057 -0.5984
19304TIP3   OH279326   4.816   6.003  14.872  0.4303 -0.4928  0.4695
19304TIP3    H179327   4.761   6.011  14.794  2.5133  0.3571 -1.0108
19304TIP3    H279328   4.818   6.091  14.909 -1.0140 -1.0161  1.8704
19305TIP3   OH279329   4.767   1.738   2.420 -0.1094  0.0484  0.4316
19305TIP3    H179330   4.707   1.808   2.394  0.8033  0.6314 -0.1474
19305TIP3    H279331   4.710   1.664   2.441 -1.0287  0.5791 -0.1451
19306TIP3   OH279332   4.705   6.607  12.450 -0.3422  0.4749 -0.4835
19306TIP3    H179333   4.793   6.572  12.439 -0.4556 -0.0354  0.1906
19306TIP3    H279334   4.706   6.650  12.536 -0.7089  0.5948 -0.5334
19307TIP3   OH279335   4.697   5.168   0.226  0.0652  0.0717  0.3580
19307TIP3    H179336   4.762   5.235   0.209  2.5905 -2.3788 -0.4889
19307TIP3    H279337   4.664   5.143   0.140 -0.0659 -0.4648  0.5561
19308TIP3   OH279338   3.220   2.673  11.293 -0.1939  0.0849 -0.4745
19308TIP3    H179339   3.301   2.696  11.247  0.5243  1.0393  1.1884
19308TIP3    H279340   3.157   2.659  11.223  1.4790 -1.1005 -1.8482
19309TIP3   OH279341   6.173   1.803  11.069  0.1534 -0.2780 -0.0674
19309TIP3    H179342   6.087   1.803  11.027 -0.2062  2.1590  0.5301
19309TIP3    H279343   6.217   1.881  11.035  1.8718 -1.0889  0.1754
19310TIP3   OH279344   5.085   5.812   4.573  0.1946 -0.3553  0.2532
19310TIP3    H179345   5.061   5.728   4.614  0.1728 -1.5454 -2.0359
19310TIP3    H279346   5.179   5.819   4.587  0.0143 -0.1333  1.4903
19311TIP3   OH279347   0.440   6.034  11.240 -0.3120  0.1625  0.1017
19311TIP3    H179348   0.400   6.103  11.187  0.9531  1.7008  1.0479
19311TIP3    H279349   0.526   6.020  11.201  0.2994  0.7069  1.2079
19312TIP3   OH279350   5.581   2.836  14.777  0.3363  0.1030  0.2573
19312TIP3    H179351   5.492   2.854  14.810  0.0118 -0.3161 -0.3712
19312TIP3    H279352   5.593   2.742  14.792 -0.3365 -0.3860 -2.0123
19313TIP3   OH279353   3.687   6.312   1.731 -0.2266  0.3232 -0.3576
19313TIP3    H179354   3.685   6.290   1.824  0.1259 -1.4842 -0.7422
19313TIP3    H279355   3.598   6.296   1.699 -0.2508  0.5732 -0.4243
19314TIP3   OH279356   5.152   6.224   3.205  0.1098  0.1223 -0.3039
19314TIP3    H179357   5.073   6.276   3.216  0.2210  0.0150  1.2842
19314TIP3    H279358   5.176   6.197   3.294  2.1355  0.4649 -0.6877
19315TIP3   OH279359   3.115   4.225  11.290  0.0833 -0.5402 -0.2481
19315TIP3    H179360   3.135   4.286  11.219 -0.7633 -0.3364 -0.3211
19315TIP3    H279361   3.060   4.158  11.249 -0.3579 -0.4565  0.2075
19316TIP3   OH279362   1.948   5.685  16.311 -0.5418 -0.1434 -0.4609
19316TIP3    H179363   1.908   5.603  16.338 -1.2997  0.4852  0.3910
19316TIP3    H279364   1.907   5.705  16.227 -0.7139 -0.4033 -0.4391
19317TIP3   OH279365   2.097   3.264  13.581 -0.3856  0.0493 -0.2215
19317TIP3    H179366   2.112   3.172  13.556  0.4928 -0.1216  0.8683
19317TIP3    H279367   2.113   3.266  13.675 -1.1393  1.1865 -0.1029
19318TIP3   OH279368   4.687   5.119  15.817  0.7784 -0.7352 -0.2532
19318TIP3    H179369   4.766   5.119  15.871 -0.0376  0.3254  0.9855
19318TIP3    H279370   4.632   5.050  15.855  0.6562 -0.7485 -0.4487
19319TIP3   OH279371   5.461   3.294  14.270  0.0694  0.5079 -0.3447
19319TIP3    H179372   5.534   3.232  14.268  0.4025  0.9055 -0.8477
19319TIP3    H279373   5.500   3.376  14.302  0.3393  1.3197 -2.5981
19320TIP3   OH279374   5.647   2.583  13.280 -0.1777 -0.1611 -0.0897
19320TIP3    H179375   5.651   2.628  13.364  1.0827  0.3941 -0.4137
19320TIP3    H279376   5.570   2.527  13.285 -0.6974  0.6417  1.0390
19321TIP3   OH279377   1.720   3.034  14.942 -0.2422 -0.5099 -0.6669
19321TIP3    H179378   1.666   3.061  14.868  0.1773  1.9221 -0.1551
19321TIP3    H279379   1.674   2.959  14.979 -1.5203 -0.5230 -2.1685
19322TIP3   OH279380   3.047   5.451  15.643 -0.0580  0.5741 -0.2867
19322TIP3    H179381   3.018   5.374  15.691 -0.4660  1.0506  0.2481
19322TIP3    H279382   2.970   5.478  15.593  0.1924  0.4238 -0.7621
19323TIP3   OH279383   6.346   5.429  17.151  0.0491 -0.0317 -0.0911
19323TIP3    H179384   6.301   5.345  17.140  1.6950 -1.1314  1.0865
19323TIP3    H279385   6.436   5.411  17.124 -0.0924  2.0667 -2.2485
19324TIP3   OH279386   1.954   1.182   2.879  0.7916  0.0382  0.3838
19324TIP3    H179387   2.001   1.260   2.908 -0.2630 -0.6771  4.6293
19324TIP3    H279388   1.861   1.203   2.891  0.2644 -0.6833 -1.9463
19325TIP3   OH279389   1.318   1.599  13.358 -0.2153  0.2813  0.4081
19325TIP3    H179390   1.388   1.664  13.361 -0.3387  0.4461 -0.1695
19325TIP3    H279391   1.358   1.519  13.392  0.3011  0.3330 -0.0683
19326TIP3   OH279392   2.355   1.228  12.112 -0.0912  0.1109 -0.0096
19326TIP3    H179393   2.357   1.141  12.072  0.5447  0.2601 -0.3170
19326TIP3    H279394   2.447   1.250  12.128 -0.1968  0.9682 -0.4799
19327TIP3   OH279395   0.550   5.593  12.275  0.1465 -0.0391  0.2535
19327TIP3    H179396   0.525   5.673  12.321  1.0929 -0.2942  1.2399
19327TIP3    H279397   0.593   5.623  12.196  0.6979  0.4388  0.7262
19328TIP3   OH279398   6.088   5.849  16.310  0.1407  0.1537  0.2239
19328TIP3    H179399   6.156   5.907  16.344  0.8898 -0.4786 -0.1754
19328TIP3    H279400   6.025   5.908  16.268  1.4166  0.6215 -1.1068
19329TIP3   OH279401   0.782   2.855  14.612 -0.4958 -0.4100 -0.8817
19329TIP3    H179402   0.877   2.866  14.618 -0.5236 -0.4787 -0.2222
19329TIP3    H279403   0.760   2.799  14.686 -1.2518  1.0109  0.0271
19330TIP3   OH279404   4.273   4.650  11.532  0.0664  0.2460 -0.2411
19330TIP3    H179405   4.229   4.565  11.530 -1.5077  0.7789  3.4289
19330TIP3    H279406   4.205   4.712  11.504 -0.9281  0.7884  2.9341
19331TIP3   OH279407   4.022   0.399  16.080 -0.3958 -0.2405 -0.3696
19331TIP3    H179408   3.931   0.372  16.070 -0.1756 -2.3356  2.2720
19331TIP3    H279409   4.073   0.333  16.033 -0.1701 -0.6211  0.3780
19332TIP3   OH279410   5.782   5.874   6.437  0.0863  0.4000 -0.0940
19332TIP3    H179411   5.825   5.873   6.523  4.1076  1.2670 -1.8850
19332TIP3    H279412   5.753   5.784   6.424  1.3075 -0.2383  1.3201
19333TIP3   OH279413   4.064   2.307   0.781  0.6226  0.3131  0.4756
19333TIP3    H179414   3.976   2.332   0.809  1.1000  2.1811  0.4104
19333TIP3    H279415   4.061   2.211   0.776 -1.6261  0.3681 -0.3055
19334TIP3   OH279416   1.167   2.741  12.178 -0.1639 -0.1805 -0.0578
19334TIP3    H179417   1.208   2.826  12.161  0.8121 -0.8106 -1.0478
19334TIP3    H279418   1.092   2.760  12.234  1.2543  1.0966  1.5077
19335TIP3   OH279419   4.063   0.748  12.044  0.0501 -0.2880 -0.1876
19335TIP3    H179420   4.095   0.674  11.992 -1.0308 -0.6887 -0.3174
19335TIP3    H279421   3.967   0.745  12.033 -0.1404  0.0745  1.2256
19336TIP3   OH279422   0.898   3.287  12.563 -0.7013 -0.2234 -0.4173
19336TIP3    H179423   0.877   3.373  12.599  0.4936  0.5800 -1.5881
19336TIP3    H279424   0.988   3.271  12.592 -1.1647 -1.4396  0.4300
19337TIP3   OH279425   4.132   3.334  12.490  0.2432 -0.2811 -0.0864
19337TIP3    H179426   4.153   3.313  12.399 -1.2128 -1.9395 -0.0893
19337TIP3    H279427   4.148   3.253  12.538 -2.9636 -0.7693  0.3881
19338TIP3   OH279428   5.199   0.650  16.110  0.2253  0.4093 -0.1693
19338TIP3    H179429   5.121   0.595  16.103  1.7494 -2.0679  0.8799
19338TIP3    H279430   5.185   0.721  16.048 -1.9959 -1.0229 -1.4027
19339TIP3   OH279431   5.905   0.308   0.658 -0.2462 -0.6780  0.5467
19339TIP3    H179432   5.963   0.272   0.725  1.2569 -1.4094 -1.0727
19339TIP3    H279433   5.942   0.277   0.575 -1.4488  1.0246 -0.6891
19340TIP3   OH279434   2.251   3.398  16.441  0.9349  0.0219 -0.4416
19340TIP3    H179435   2.291   3.424  16.358  0.7199 -0.8532 -0.8330
19340TIP3    H279436   2.300   3.320  16.468  0.4480 -0.1991 -0.1823
19341TIP3   OH279437   5.695   6.548   2.799  0.3349  0.5952  0.3012
19341TIP3    H179438   5.749   6.479   2.761 -1.1923 -0.1743 -0.5429
19341TIP3    H279439   5.708   6.623   2.742  1.4439  0.8122  0.8128
19342TIP3   OH279440   1.748   4.495  12.610  0.4279 -0.2705  0.4172
19342TIP3    H179441   1.826   4.472  12.559  0.6873 -1.2495  1.2189
19342TIP3    H279442   1.678   4.442  12.571  0.3719 -0.1173  0.3108
19343TIP3   OH279443   4.518   2.456   2.551  0.0097  0.5653  0.2189
19343TIP3    H179444   4.478   2.423   2.632 -0.8813 -1.5107 -0.9817
19343TIP3    H279445   4.464   2.532   2.527 -1.6788 -0.6200  0.0280
19344TIP3   OH279446   0.737   0.721   4.442 -0.2371 -0.4459  0.1235
19344TIP3    H179447   0.761   0.808   4.475  0.0580 -0.2731 -0.5348
19344TIP3    H279448   0.672   0.738   4.374 -1.9229 -0.8812  1.5526
19345TIP3   OH279449   6.591   4.625   5.270 -0.3288 -0.3177  0.4730
19345TIP3    H179450   6.578   4.535   5.300 -2.0085 -0.3737 -0.2593
19345TIP3    H279451   6.663   4.619   5.207 -1.4733 -1.4929 -0.8142
19346TIP3   OH279452   4.804   3.935  15.077 -0.1303 -0.3385 -0.6219
19346TIP3    H179453   4.887   3.910  15.035 -0.3445  1.1396 -2.0303
19346TIP3    H279454   4.822   4.021  15.116 -0.4800 -0.8606  0.7300
19347TIP3   OH279455   3.183   2.740  13.444 -0.5937  0.5301  0.0298
19347TIP3    H179456   3.233   2.773  13.368  0.4190 -1.5192 -0.2572
19347TIP3    H279457   3.114   2.687  13.405  0.2523 -0.9734  0.4967
19348TIP3   OH279458   3.372   1.622   3.407  0.5239  0.8648 -0.1643
19348TIP3    H179459   3.285   1.623   3.448 -0.2786 -2.2662 -1.5098
19348TIP3    H279460   3.427   1.576   3.471 -0.3503 -2.5611 -1.6671
19349TIP3   OH279461   5.577   0.540   2.501 -0.0336  0.7674 -0.4100
19349TIP3    H179462   5.654   0.592   2.478 -0.1691  0.8616 -0.6529
19349TIP3    H279463   5.511   0.564   2.436  0.6954 -1.5913 -2.1895
19350TIP3   OH279464   6.255   6.175  13.099 -0.1541  0.6985 -0.3257
19350TIP3    H179465   6.256   6.092  13.052  0.8095  1.1519 -1.1359
19350TIP3    H279466   6.162   6.195  13.110 -0.3956  0.0937 -1.1507
19351TIP3   OH279467   6.026   1.818  14.126 -0.3115  0.7065  0.2936
19351TIP3    H179468   5.969   1.831  14.202 -1.9737  5.2250 -1.4348
19351TIP3    H279469   5.976   1.761  14.068 -0.5552  0.1012  1.0681
19352TIP3   OH279470   1.667   1.952  12.615 -1.0088  0.3932  0.3341
19352TIP3    H179471   1.693   1.936  12.525 -2.1873 -1.3059  0.2542
19352TIP3    H279472   1.584   1.999  12.608 -0.1392  2.0240  0.5704
19353TIP3   OH279473   0.318   3.399   4.958 -0.0726  0.4821  0.3820
19353TIP3    H179474   0.248   3.335   4.966 -1.1547  1.8546  3.2510
19353TIP3    H279475   0.383   3.372   5.023  0.9482  0.6206 -0.5321
19354TIP3   OH279476   0.108   2.544  16.914  0.8661  0.5573 -0.3194
19354TIP3    H179477   0.139   2.518  17.000  1.6961 -0.8352 -0.9984
19354TIP3    H279478   0.172   2.607  16.882  0.3543  1.3615  0.2186
19355TIP3   OH279479   5.411   1.390  10.923 -0.7036  0.6748  0.0675
19355TIP3    H179480   5.480   1.346  10.873  0.3926 -0.2283  2.2386
19355TIP3    H279481   5.330   1.360  10.882  0.1313  0.4126 -1.4855
19356TIP3   OH279482   5.831   0.150  15.256  0.1268 -0.0501 -0.3228
19356TIP3    H179483   5.808   0.237  15.288 -0.5305 -0.8359  1.5337
19356TIP3    H279484   5.837   0.097  15.336 -0.8479 -2.0159 -1.4931
19357TIP3   OH279485   0.066   0.222   3.719 -1.2521 -0.2982  0.1843
19357TIP3    H179486   0.107   0.152   3.770 -1.7602 -0.0282  0.9914
19357TIP3    H279487   0.135   0.254   3.662 -0.7245 -0.7618  0.5533
19358TIP3   OH279488   0.894   4.331   3.001 -0.2722  0.1924  0.0335
19358TIP3    H179489   0.947   4.360   3.076 -0.6623  0.4820  0.1997
19358TIP3    H279490   0.815   4.386   3.005 -1.2550 -1.1970  0.6380
19359TIP3   OH279491   2.370   4.266  11.165  0.2839  0.0309 -0.1158
19359TIP3    H179492   2.315   4.259  11.243  0.1230 -0.5353 -0.2770
19359TIP3    H279493   2.309   4.282  11.093  0.2222 -1.4548 -0.4299
19360TIP3   OH279494   3.228   4.365  11.788 -0.2966 -0.1049 -0.0292
19360TIP3    H179495   3.191   4.365  11.700 -1.4416  0.8941  0.4319
19360TIP3    H279496   3.310   4.317  11.779 -0.1047  0.4742 -1.7680
19361TIP3   OH279497   1.420   0.982  11.365 -0.0410  0.2100 -0.2198
19361TIP3    H179498   1.467   0.899  11.364  0.1155  0.3018 -0.9984
19361TIP3    H279499   1.489   1.048  11.372  0.1012  0.4132 -2.6326
19362TIP3   OH279500   1.285   4.453  13.348  0.7582  0.0683  0.1796
19362TIP3    H179501   1.372   4.424  13.319  0.5713  0.1813 -0.4928
19362TIP3    H279502   1.225   4.388  13.312  0.6800 -0.9170  1.9531
19363TIP3   OH279503   2.711   3.826   0.929  0.0263  0.7473  0.9354
19363TIP3    H179504   2.784   3.790   0.978 -0.3974 -0.0087  1.0197
19363TIP3    H279505   2.721   3.921   0.937  2.7485  0.8424 -1.5529
19364TIP3   OH279506   2.116   3.853   6.507  0.6760  0.1060  0.9178
19364TIP3    H179507   2.046   3.896   6.556 -0.3397  0.5501 -0.8512
19364TIP3    H279508   2.196   3.898   6.536  0.0361  0.7967  1.6745
19365TIP3   OH279509   1.148   2.540  12.013  0.0897 -0.4041  0.1429
19365TIP3    H179510   1.086   2.579  11.952  0.1316  0.1442  0.4437
19365TIP3    H279511   1.171   2.611  12.072 -0.5466 -1.1295  1.2899
19366TIP3   OH279512   4.519   3.097   5.875  0.4381  0.0320 -0.0075
19366TIP3    H179513   4.609   3.075   5.852 -0.0605 -0.7819 -1.3500
19366TIP3    H279514   4.486   3.020   5.922  0.3739  0.2259  0.2654
19367TIP3   OH279515   1.154   3.158  10.532  0.4112  0.1200 -0.8285
19367TIP3    H179516   1.153   3.250  10.559 -2.3616  0.5686 -2.0858
19367TIP3    H279517   1.151   3.109  10.614 -1.8012  1.2869 -0.1368
19368TIP3   OH279518   4.360   2.711   1.785  0.0748  0.3999  0.2353
19368TIP3    H179519   4.292   2.770   1.754 -1.5727 -2.2708 -1.6173
19368TIP3    H279520   4.313   2.639   1.828  1.7776 -0.9295  0.0140
19369TIP3   OH279521   6.172   6.200  17.046 -0.3109 -0.1019 -0.3847
19369TIP3    H179522   6.191   6.148  16.968 -0.7662  1.3555 -1.5128
19369TIP3    H279523   6.100   6.257  17.020 -0.6056  0.2892  1.1777
19370TIP3   OH279524   1.259   5.465  13.852  0.1387  0.0543 -0.7137
19370TIP3    H179525   1.304   5.467  13.936  2.4280  0.0217 -1.8599
19370TIP3    H279526   1.168   5.448  13.874  1.0179 -2.2917  1.6290
19371TIP3   OH279527   2.873   0.860   0.260 -0.0468  0.0555  0.0504
19371TIP3    H179528   2.821   0.787   0.294 -0.6575  0.5058  0.1093
19371TIP3    H279529   2.905   0.829   0.176 -2.2935  0.5600 -1.0682
19372TIP3   OH279530   4.438   1.738   0.682 -0.2935  0.5053  0.1005
19372TIP3    H179531   4.345   1.740   0.701 -0.1839  3.8509  0.9353
19372TIP3    H279532   4.447   1.786   0.600  0.7523  0.9233  0.4410
19373TIP3   OH279533   5.754   0.916   2.671 -0.4398  0.0707 -0.4407
19373TIP3    H179534   5.771   0.863   2.594  1.2591  0.2681 -0.2306
19373TIP3    H279535   5.722   0.999   2.636 -0.2173 -0.0368 -0.9021
19374TIP3   OH279536   1.656   5.251  16.972 -0.2405 -0.4112  0.1071
19374TIP3    H179537   1.594   5.273  17.042 -0.5616 -1.0164  0.0220
19374TIP3    H279538   1.725   5.201  17.017  0.2445  0.3460  0.2193
19375TIP3   OH279539   2.505   1.046   5.206 -0.3090  0.2550 -0.3327
19375TIP3    H179540   2.542   0.969   5.249  2.7935  1.5106 -0.5626
19375TIP3    H279541   2.422   1.062   5.252 -1.2056 -3.2794 -0.4533
19376TIP3   OH279542   4.978   1.671  14.946 -0.4983  0.0747 -0.1162
19376TIP3    H179543   4.928   1.694  15.025 -1.7514 -1.3113 -0.4532
19376TIP3    H279544   5.051   1.618  14.979  0.0191  1.0050  0.2609
19377TIP3   OH279545   4.965   4.803  13.225 -0.5781 -0.8103  0.2906
19377TIP3    H179546   5.033   4.870  13.214  0.6907 -1.5688  2.7768
19377TIP3    H279547   4.896   4.830  13.165  1.3301  0.7528 -1.3971
19378TIP3   OH279548   0.727   3.891  15.252 -0.2769  0.5985  0.0258
19378TIP3    H179549   0.817   3.864  15.271 -0.4458  0.0596  0.0587
19378TIP3    H279550   0.716   3.972  15.303 -0.0231  0.3143  0.5435
19379TIP3   OH279551   1.283   2.042   4.729 -0.0190 -0.1292  0.1567
19379TIP3    H179552   1.326   2.045   4.815 -0.7195 -1.5031  0.5931
19379TIP3    H279553   1.308   2.124   4.687  0.9864  0.2255  1.3606
19380TIP3   OH279554   2.625   5.913  14.471  0.6094  0.2265  0.3570
19380TIP3    H179555   2.576   5.992  14.496  1.3769  0.7733  0.1514
19380TIP3    H279556   2.686   5.898  14.543  0.2443 -0.3760  0.5465
19381TIP3   OH279557   3.438   6.286   5.088 -0.3522  0.5595  0.4812
19381TIP3    H179558   3.528   6.301   5.060 -0.1183  0.6801  1.2644
19381TIP3    H279559   3.410   6.207   5.041  0.8539 -0.6712  1.7516
19382TIP3   OH279560   5.099   4.574   5.212  0.4218  0.2671 -0.5680
19382TIP3    H179561   5.164   4.613   5.271 -0.9529  0.4550  0.8655
19382TIP3    H279562   5.102   4.480   5.232  0.7872  0.1656 -1.0676
19383TIP3   OH279563   0.198   2.023   3.769  0.1470 -0.2746 -0.1058
19383TIP3    H179564   0.236   1.944   3.807 -0.9776 -1.0511 -0.5540
19383TIP3    H279565   0.213   2.015   3.675 -0.9940 -0.5412 -0.2822
19384TIP3   OH279566   6.576   2.382   5.252 -0.1917 -0.3385 -0.7606
19384TIP3    H179567   6.606   2.473   5.254 -1.2129  0.0004  0.7784
19384TIP3    H279568   6.620   2.341   5.326 -1.0160 -0.6608 -0.4421
19385TIP3   OH279569   5.928   6.668  12.605  0.6644 -0.2174 -0.5433
19385TIP3    H179570   5.979   6.741  12.639  1.2564 -0.3015 -1.2205
19385TIP3    H279571   5.846   6.708  12.574  0.7907  0.0913 -0.4787
19386TIP3   OH279572   0.121   1.555   3.094  0.2703  0.1313  0.6018
19386TIP3    H179573   0.098   1.496   3.023 -1.6792  1.2241  0.2468
19386TIP3    H279574   0.152   1.634   3.050 -0.6313  0.6892  0.9446
19387TIP3   OH279575   2.997   3.674   1.866 -0.6135 -0.3453  0.2560
19387TIP3    H179576   3.069   3.614   1.846 -0.3417  0.0822 -0.0529
19387TIP3    H279577   2.983   3.663   1.960  0.5088  0.2748  0.5068
19388TIP3   OH279578   2.900   3.300   3.802 -0.1869 -0.4418 -0.5560
19388TIP3    H179579   2.867   3.255   3.723  2.9179  1.4237 -3.1701
19388TIP3    H279580   2.957   3.235   3.844  1.1923 -0.3515 -2.1393
19389TIP3   OH279581   6.614   3.583  14.047  0.3254 -0.5310 -0.1766
19389TIP3    H179582   6.624   3.678  14.038 -1.3566 -0.3894 -0.9455
19389TIP3    H279583   6.702   3.548  14.038  0.7151  0.8050 -2.0829
19390TIP3   OH279584   0.086   5.580  16.262 -0.2113 -0.1942  0.3018
19390TIP3    H179585   0.043   5.507  16.306 -0.2059 -1.4578 -1.6543
19390TIP3    H279586   0.166   5.542  16.226 -1.4841 -0.0240 -3.0703
19391TIP3   OH279587   0.666   3.086  10.829 -0.0007  0.2804 -0.0579
19391TIP3    H179588   0.672   3.012  10.769 -2.5344 -1.3911  1.5515
19391TIP3    H279589   0.618   3.052  10.905  0.6908  3.0042  1.7476
19392TIP3   OH279590   4.667   0.404  16.582 -0.0573 -0.2998  0.3157
19392TIP3    H179591   4.608   0.358  16.641 -0.5583 -1.1162 -0.7932
19392TIP3    H279592   4.646   0.370  16.495  0.6428  0.8909 -0.3471
19393TIP3   OH279593   4.275   1.594   5.325 -0.5316  0.1505 -0.3645
19393TIP3    H179594   4.279   1.684   5.293 -0.3137  0.5838  0.8413
19393TIP3    H279595   4.183   1.569   5.316 -0.6156  0.5383 -0.5873
19394TIP3   OH279596   2.308   6.480   5.349  0.2051  0.7455 -0.3115
19394TIP3    H179597   2.335   6.485   5.440 -1.2254  1.7862  0.0846
19394TIP3    H279598   2.213   6.468   5.352  0.4309 -2.4482 -1.6458
19395TIP3   OH279599   3.834   2.156  15.601 -0.9282  0.0795 -0.1836
19395TIP3    H179600   3.765   2.201  15.553 -0.1806  2.4448  0.8126
19395TIP3    H279601   3.862   2.219  15.667  1.1903 -1.3548  0.3843
19396TIP3   OH279602   3.419   5.142  12.705  0.4736  0.0199 -0.0960
19396TIP3    H179603   3.352   5.124  12.770 -0.6624  2.4326 -0.4836
19396TIP3    H279604   3.474   5.210  12.744  1.1762 -0.1473 -0.7601
19397TIP3   OH279605   2.056   2.190  11.480  0.0527  0.1448  0.8427
19397TIP3    H179606   2.016   2.268  11.518 -0.0439  1.0581 -1.0098
19397TIP3    H279607   1.981   2.133  11.460  0.1345 -0.5187  2.3355
19398TIP3   OH279608   0.803   5.883  12.406 -0.3441  0.4326 -0.5202
19398TIP3    H179609   0.791   5.960  12.461  0.4675 -1.2497  2.2199
19398TIP3    H279610   0.715   5.859  12.377 -0.8491  1.2106  0.3255
19399TIP3   OH279611   4.279   3.496   4.256  0.0570  0.0018 -0.4023
19399TIP3    H179612   4.307   3.419   4.207 -1.0813 -2.2336  2.1852
19399TIP3    H279613   4.347   3.508   4.322  0.5009  1.6088 -1.1250
19400TIP3   OH279614   2.536   2.233   2.950  0.0714  0.3682 -0.1750
19400TIP3    H179615   2.534   2.146   2.910 -0.8488 -1.6540  3.7035
19400TIP3    H279616   2.617   2.234   3.001 -0.0567  1.7042  0.0476
19401TIP3   OH279617   6.409   6.286   1.863 -0.2887  0.0364  0.1172
19401TIP3    H179618   6.476   6.354   1.857 -0.3245  0.2740  1.7878
19401TIP3    H279619   6.453   6.207   1.832  0.3512  0.4546 -0.0707
19402TIP3   OH279620   5.717   0.995  14.137  0.1666 -0.3592  0.1172
19402TIP3    H179621   5.734   0.942  14.214 -0.4645 -0.3246  0.2803
19402TIP3    H279622   5.625   0.980  14.116 -0.7483  2.4790  1.6015
19403TIP3   OH279623   1.060   5.152  12.848  0.2843 -0.1394 -0.1827
19403TIP3    H179624   1.031   5.203  12.772  1.0676  0.9253  0.2026
19403TIP3    H279625   0.984   5.100  12.873 -0.2716  0.2042 -1.1296
19404TIP3   OH279626   0.079   0.275   0.280 -0.0133 -0.4644 -0.2643
19404TIP3    H179627   0.029   0.257   0.360 -0.3238  1.3364 -0.0108
19404TIP3    H279628   0.012   0.284   0.212  0.2468 -1.9408 -0.7676
19405TIP3   OH279629   2.332   1.221  16.737 -0.1479 -0.1310  0.4037
19405TIP3    H179630   2.383   1.277  16.678  0.4938  1.0719  2.0399
19405TIP3    H279631   2.389   1.146  16.753 -0.7296 -0.9808 -1.2430
19406TIP3   OH279632   6.334   2.757  10.157  0.3377 -0.4761  0.2831
19406TIP3    H179633   6.261   2.758  10.219  1.1333  2.3517  1.3098
19406TIP3    H279634   6.388   2.684  10.186 -0.0419 -0.1102  2.0751
19407TIP3   OH279635   0.876   2.669  11.927  0.1413  0.1077 -0.2358
19407TIP3    H179636   0.912   2.741  11.979  0.9803  1.1859 -2.1951
19407TIP3    H279637   0.784   2.666  11.951  0.0175  2.0570 -0.2772
19408TIP3   OH279638   6.615   2.969   3.154  0.2657  0.2360  0.3824
19408TIP3    H179639   6.548   2.924   3.101  0.7099  1.5200 -1.3728
19408TIP3    H279640   6.698   2.937   3.119  0.5736  1.3385  0.0579
19409TIP3   OH279641   3.537   3.527  10.604  0.7709 -0.2224 -0.0726
19409TIP3    H179642   3.496   3.440  10.601 -0.6307  0.4075 -0.0978
19409TIP3    H279643   3.573   3.540  10.516  2.5527 -1.4585  0.4142
19410TIP3   OH279644   6.763   4.556   0.639 -0.1255  0.1001 -0.2115
19410TIP3    H179645   6.704   4.602   0.579 -0.4291 -0.6257 -0.4709
19410TIP3    H279646   6.833   4.619   0.655  0.0875  0.2394 -1.5149
19411TIP3   OH279647   2.988   2.460   4.994  0.0996 -0.1863  0.4276
19411TIP3    H179648   2.929   2.409   4.939  0.5417 -0.1891 -0.0599
19411TIP3    H279649   3.043   2.508   4.932  1.3686 -1.0535  0.8286
19412TIP3   OH279650   1.627   2.800  14.256  0.4679  0.1395 -0.4568
19412TIP3    H179651   1.675   2.844  14.186 -0.3834 -0.2467 -1.3045
19412TIP3    H279652   1.535   2.803  14.229  0.1217 -0.0446  0.6301
19413TIP3   OH279653   5.070   4.648   4.525 -0.6024  0.3640  0.3240
19413TIP3    H179654   4.980   4.641   4.558 -0.8856  0.4029 -0.4323
19413TIP3    H279655   5.061   4.682   4.436  0.2204  1.3144  0.5830
19414TIP3   OH279656   5.677   3.148  11.813 -0.1642  0.1949  0.2685
19414TIP3    H179657   5.748   3.203  11.778 -1.9842  2.4663 -0.1114
19414TIP3    H279658   5.651   3.094  11.738  1.6304 -1.3025  0.6367
19415TIP3   OH279659   2.249   4.771   3.284  0.4573 -0.1231 -0.6493
19415TIP3    H179660   2.225   4.754   3.375 -0.2806 -0.2152 -0.8583
19415TIP3    H279661   2.328   4.720   3.270 -0.6718 -1.9246 -0.7111
19416TIP3   OH279662   6.489   2.301  13.185  0.5990  0.3731  0.2447
19416TIP3    H179663   6.497   2.338  13.273  3.1323 -1.4263  0.8679
19416TIP3    H279664   6.403   2.259  13.184 -0.7778  2.9344  0.7266
19417TIP3   OH279665   5.701   1.658   4.486 -0.0612 -0.2114 -0.2151
19417TIP3    H179666   5.685   1.687   4.576 -0.9550 -1.0509 -0.0921
19417TIP3    H279667   5.752   1.578   4.496  0.4319  0.0596 -0.4919
19418TIP3   OH279668   3.186   2.511  16.399 -0.0656  0.2003  0.0849
19418TIP3    H179669   3.177   2.513  16.303  0.0021 -0.6740  0.0494
19418TIP3    H279670   3.096   2.514  16.432 -0.0534  1.9323  0.0541
19419TIP3   OH279671   0.709   5.653  16.140  0.1582 -0.1806  0.0367
19419TIP3    H179672   0.642   5.719  16.123  0.6056 -0.0650 -1.4181
19419TIP3    H279673   0.696   5.587  16.072  0.5364 -0.9493  0.6896
19420TIP3   OH279674   4.519   5.950   1.655  0.0130 -0.0521  0.1691
19420TIP3    H179675   4.588   6.009   1.688 -0.1044  0.1272  0.0967
19420TIP3    H279676   4.444   6.007   1.642 -0.0659 -0.1988 -0.0145
19421TIP3   OH279677   6.732   2.938   5.710 -0.1642 -0.2962 -0.4029
19421TIP3    H179678   6.705   2.847   5.712 -0.5819 -0.2908 -2.5988
19421TIP3    H279679   6.670   2.983   5.767 -0.0260 -1.3441  0.6018
19422TIP3   OH279680   3.866   6.227   6.362  0.2123 -0.0787  0.3155
19422TIP3    H179681   3.781   6.260   6.391 -0.8037 -1.3423 -1.1298
19422TIP3    H279682   3.919   6.306   6.351 -1.3354  0.8893 -0.5312
19423TIP3   OH279683   0.388   1.975  16.157  0.5889 -0.3469  0.6341
19423TIP3    H179684   0.356   1.936  16.238 -0.8693 -0.9919 -0.2071
19423TIP3    H279685   0.349   2.062  16.155  1.3711  0.0281  1.0390
19424TIP3   OH279686   2.637   0.808  12.192 -0.2679  0.1596  0.0661
19424TIP3    H179687   2.604   0.742  12.132 -3.1790  1.4119  0.1163
19424TIP3    H279688   2.651   0.760  12.274  0.7761 -0.9652 -0.7391
19425TIP3   OH279689   5.933   1.276   2.966  0.9924  0.5004 -0.2440
19425TIP3    H179690   5.968   1.360   2.936  1.1703 -0.2262 -2.2113
19425TIP3    H279691   6.007   1.216   2.959 -0.1128 -0.6793 -2.8176
19426TIP3   OH279692   6.441   1.253   0.838  0.3252 -0.1696  0.5128
19426TIP3    H179693   6.377   1.193   0.877  1.3085  0.0077  2.5255
19426TIP3    H279694   6.396   1.337   0.832 -0.2461 -0.5033  0.0761
19427TIP3   OH279695   4.216   6.337  15.313 -0.1892  0.0729  0.3508
19427TIP3    H179696   4.154   6.303  15.248  0.2451 -0.8385  0.4111
19427TIP3    H279697   4.300   6.340  15.267 -0.2945  1.5203  0.1971
19428TIP3   OH279698   3.836   5.976   6.169 -0.3609 -0.5169  0.1229
19428TIP3    H179699   3.837   5.952   6.262 -0.2864  0.2134  0.3237
19428TIP3    H279700   3.784   5.908   6.127  0.9993 -1.8031  0.4189
19429TIP3   OH279701   0.796   1.521   0.476 -0.0287  0.2345  0.1433
19429TIP3    H179702   0.779   1.469   0.554 -1.3316  0.7456  0.2194
19429TIP3    H279703   0.856   1.589   0.506 -0.6635  0.5412  0.7636
19430TIP3   OH279704   6.165   6.761   0.640 -0.2818 -0.6601  0.4816
19430TIP3    H179705   6.169   6.839   0.695 -0.4748 -1.4801  1.6724
19430TIP3    H279706   6.251   6.720   0.651  0.7834  0.6173 -2.0669
19431TIP3   OH279707   1.248   5.911  14.610 -0.5822  0.6941  0.8918
19431TIP3    H179708   1.329   5.958  14.593 -0.2638  0.3563  1.4633
19431TIP3    H279709   1.204   5.908  14.525  0.5142 -0.0877  0.3289
19432TIP3   OH279710   4.369   2.943  12.697  0.8394 -0.8567  0.0849
19432TIP3    H179711   4.407   3.029  12.679  1.2014 -1.1874 -0.7813
19432TIP3    H279712   4.432   2.900  12.755  1.2373 -0.9749 -0.4312
19433TIP3   OH279713   2.262   6.120   0.173  0.4827  0.3731  0.0176
19433TIP3    H179714   2.234   6.208   0.147 -0.6324  1.2060  3.4271
19433TIP3    H279715   2.357   6.124   0.175  0.5232  0.8937 -1.5621
19434TIP3   OH279716   5.081   5.666   0.694 -0.6394 -0.0180  0.5882
19434TIP3    H179717   5.009   5.611   0.662 -1.7701  1.8979 -0.3012
19434TIP3    H279718   5.039   5.731   0.750  1.0116 -1.7605  4.2203
19435TIP3   OH279719   4.342   3.631  16.868 -0.2409  0.0969  0.0963
19435TIP3    H179720   4.425   3.615  16.822  0.0722 -0.5611  0.8613
19435TIP3    H279721   4.341   3.566  16.938 -1.1857  0.4186  0.3925
19436TIP3   OH279722   3.545   3.017   3.274  0.3141 -0.2391 -0.1176
19436TIP3    H179723   3.477   3.028   3.207  0.5169 -0.2244 -0.3216
19436TIP3    H279724   3.617   2.975   3.228  1.7322  2.6447 -0.7694
19437TIP3   OH279725   1.169   3.724   6.384 -0.1818  0.7775 -0.0725
19437TIP3    H179726   1.166   3.633   6.355  0.3840  0.8202 -0.2893
19437TIP3    H279727   1.213   3.720   6.469 -0.8408  0.7717  0.2745
19438TIP3   OH279728   4.256   6.643  17.167 -0.3433  0.2260 -0.6044
19438TIP3    H179729   4.284   6.682  17.085  0.5753 -0.3847 -0.5933
19438TIP3    H279730   4.279   6.551  17.159  0.4554  0.2915  0.6206
19439TIP3   OH279731   5.950   1.841   6.110  0.0370  0.3617  0.2073
19439TIP3    H179732   5.875   1.875   6.158 -0.3722 -0.2045 -0.0198
19439TIP3    H279733   5.916   1.820   6.023  0.4769  0.1730  0.0759
19440TIP3   OH279734   2.789   0.723   2.725 -0.3944 -0.3404 -0.3500
19440TIP3    H179735   2.705   0.679   2.735 -1.1126  1.0411 -0.0410
19440TIP3    H279736   2.767   0.810   2.692  0.9291  0.0135 -0.3724
19441TIP3   OH279737   1.279   4.288   2.080  0.1353 -0.4198 -0.1231
19441TIP3    H179738   1.234   4.230   2.142 -0.2928  0.4734  0.4142
19441TIP3    H279739   1.209   4.329   2.030  0.4180 -0.1314 -0.2848
19442TIP3   OH279740   6.075   4.010  11.486  0.5588  0.1292 -0.0933
19442TIP3    H179741   6.025   4.046  11.413 -0.9661 -0.2901  0.6987
19442TIP3    H279742   6.119   3.933  11.449 -1.6469 -1.1646 -0.2093
19443TIP3   OH279743   1.552   6.408  12.623  0.5165  0.0147  0.6167
19443TIP3    H179744   1.566   6.403  12.529 -0.3616 -0.3149  0.4854
19443TIP3    H279745   1.624   6.358  12.661  0.5066 -0.4172  0.0821
19444TIP3   OH279746   3.986   4.025   5.510  0.1241 -0.7341  0.1843
19444TIP3    H179747   4.004   3.997   5.421 -0.3391  0.2145 -0.2252
19444TIP3    H279748   4.060   3.992   5.561  0.5679 -0.9997 -0.6089
19445TIP3   OH279749   3.586   3.689   2.841  0.7184  0.2873 -0.0006
19445TIP3    H179750   3.495   3.720   2.842  1.1687  1.6387  0.9697
19445TIP3    H279751   3.580   3.600   2.806 -0.9198  0.5295 -0.4149
19446TIP3   OH279752   3.147   3.930   1.986  0.2860 -0.7006  0.0682
19446TIP3    H179753   3.190   3.889   1.911 -0.0484 -1.1875  0.1373
19446TIP3    H279754   3.215   3.985   2.026  0.3333 -0.0586 -0.8670
19447TIP3   OH279755   2.048   2.666   2.229  0.1518 -0.1519  0.4725
19447TIP3    H179756   1.995   2.601   2.182 -0.4422  0.2639  0.5649
19447TIP3    H279757   2.032   2.748   2.182 -0.5603  0.3024  1.4756
19448TIP3   OH279758   5.983   3.327  12.034  0.1388  0.1778  1.0448
19448TIP3    H179759   6.031   3.274  11.970 -0.6378 -0.0870  0.6651
19448TIP3    H279760   5.993   3.417  12.003  0.6107  0.1517  1.1179
19449TIP3   OH279761   6.451   3.065   4.164 -0.5083  0.6535  0.2225
19449TIP3    H179762   6.436   3.154   4.196 -1.8742  0.4282  0.2396
19449TIP3    H279763   6.365   3.026   4.161  0.1620 -0.9897  1.1089
19450TIP3   OH279764   0.310   3.428  16.956  0.5842  0.4173 -0.1542
19450TIP3    H179765   0.326   3.368  17.029 -1.6256  1.3905  1.2340
19450TIP3    H279766   0.241   3.486  16.988  0.4162  1.6732 -2.6041
19451TIP3   OH279767   6.031   4.100   1.248  0.0761  0.1141  0.5865
19451TIP3    H179768   5.959   4.062   1.197  0.3768  1.1086 -0.6517
19451TIP3    H279769   6.033   4.049   1.329 -1.0590 -0.8989  0.0170
19452TIP3   OH279770   2.859   6.591   3.174 -0.0614 -0.3136  0.7144
19452TIP3    H179771   2.951   6.589   3.200 -0.1378 -0.8717  0.9638
19452TIP3    H279772   2.848   6.515   3.117 -0.0188  0.6092 -0.5611
19453TIP3   OH279773   0.762   1.976   6.175  0.0785 -0.0729 -0.3963
19453TIP3    H179774   0.709   1.904   6.141 -1.4218  1.7596 -2.2280
19453TIP3    H279775   0.770   1.959   6.269 -3.0427 -0.9412 -0.1954
19454TIP3   OH279776   2.586   2.746  13.770  0.0654 -0.0850  0.3019
19454TIP3    H179777   2.547   2.725  13.685 -2.1272  2.0661  0.6628
19454TIP3    H279778   2.566   2.670  13.825  0.9219 -1.2062 -0.8846
19455TIP3   OH279779   1.955   0.943   3.540  0.1002  0.0094 -0.5867
19455TIP3    H179780   1.987   0.873   3.485 -0.5578 -0.2495 -0.6567
19455TIP3    H279781   2.027   1.006   3.545 -0.3016  0.7269 -2.8768
19456TIP3   OH279782   6.517   6.181   3.427 -0.4888  0.1101 -0.1817
19456TIP3    H179783   6.504   6.103   3.482  0.0066  0.8308  1.0200
19456TIP3    H279784   6.537   6.250   3.490 -0.2157  1.0507 -1.2793
19457TIP3   OH279785   3.626   6.396  16.616 -0.2181  0.0395  0.5001
19457TIP3    H179786   3.607   6.366  16.527  0.4967  0.1710  0.2977
19457TIP3    H279787   3.540   6.419  16.652 -0.4434  0.7571 -0.4360
19458TIP3   OH279788   3.140   2.491  15.290  0.1652  0.2863  0.1398
19458TIP3    H179789   3.134   2.411  15.238 -1.6133  0.9138 -0.7097
19458TIP3    H279790   3.057   2.536  15.273  1.7998  3.1547 -0.7607
19459TIP3   OH279791   0.527   0.191  12.575 -0.1804 -0.9559  0.8766
19459TIP3    H179792   0.546   0.248  12.500 -0.6658  0.0731  1.5145
19459TIP3    H279793   0.468   0.124  12.539 -1.9779  0.6217  0.6890
19460TIP3   OH279794   4.732   0.963  14.973  0.5633  0.1632 -0.6170
19460TIP3    H179795   4.697   1.046  14.942 -1.6147 -0.6169 -0.3970
19460TIP3    H279796   4.739   0.909  14.894 -0.3965 -0.2329 -0.4480
19461TIP3   OH279797   2.476   3.975  12.636 -0.3117  0.2595  0.1459
19461TIP3    H179798   2.386   3.958  12.664 -0.7013  1.4393 -0.3040
19461TIP3    H279799   2.528   3.965  12.715 -0.6072 -1.8989  0.1205
19462TIP3   OH279800   5.837   1.982  13.680  0.1487 -0.0159  0.1421
19462TIP3    H179801   5.894   1.986  13.756  1.0119  0.7739 -0.5229
19462TIP3    H279802   5.896   1.981  13.605 -0.6733 -1.2770 -0.5243
19463TIP3   OH279803   2.154   5.182  11.189  0.2591 -0.4472  0.1328
19463TIP3    H179804   2.067   5.143  11.180 -0.6632  1.4894  0.1675
19463TIP3    H279805   2.207   5.137  11.124 -1.6052  0.4775 -2.2067
19464TIP3   OH279806   5.897   4.786   1.335  0.1335 -0.4994  0.2018
19464TIP3    H179807   5.883   4.746   1.420  1.2276 -0.1859  0.5464
19464TIP3    H279808   5.892   4.713   1.273 -0.8366 -0.7022  0.5096
19465TIP3   OH279809   3.637   4.772   3.772 -0.3748  0.0889  0.8152
19465TIP3    H179810   3.664   4.680   3.773 -0.3536 -0.0171 -2.1662
19465TIP3    H279811   3.709   4.818   3.729 -0.7063  1.4186  1.6275
19466TIP3   OH279812   6.468   3.427   2.818  0.9617  0.3212  0.0545
19466TIP3    H179813   6.435   3.492   2.880  0.1594 -0.3932  0.3928
19466TIP3    H279814   6.549   3.464   2.785 -0.5821  2.6159 -1.4893
19467TIP3   OH279815   4.986   4.539  12.594 -0.2654 -0.1597  0.4308
19467TIP3    H179816   5.017   4.570  12.509  1.4634 -0.4771  0.9168
19467TIP3    H279817   4.891   4.541  12.586 -0.1524  0.5012 -1.2578
19468TIP3   OH279818   2.758   4.625   1.995 -0.2833 -0.1868 -0.4935
19468TIP3    H179819   2.830   4.580   1.951 -1.0737 -1.6982 -0.2865
19468TIP3    H279820   2.710   4.669   1.924  1.5378  1.9677 -0.5079
19469TIP3   OH279821   3.401   5.245   6.378  0.0548  0.0737  0.1974
19469TIP3    H179822   3.326   5.186   6.383  1.3964 -1.9469 -1.7266
19469TIP3    H279823   3.471   5.198   6.422  0.8541  0.7325 -0.3418
19470TIP3   OH279824   6.725   4.536   2.707  0.2007  0.1990  0.0359
19470TIP3    H179825   6.797   4.510   2.765  1.0146 -0.0035 -1.0347
19470TIP3    H279826   6.722   4.468   2.640 -0.6762  0.4639 -0.2132
19471TIP3   OH279827   1.568   0.109   3.736 -0.4913  0.5530  0.1710
19471TIP3    H179828   1.498   0.156   3.691  0.6616  1.4471 -0.7389
19471TIP3    H279829   1.610   0.175   3.791 -0.5512 -0.0628  0.9949
19472TIP3   OH279830   3.214   6.733  10.837  0.4362  0.3758 -0.4917
19472TIP3    H179831   3.237   6.741  10.744  0.3697 -0.1927 -0.5647
19472TIP3    H279832   3.186   6.642  10.846 -1.2386  0.8743 -0.2788
19473TIP3   OH279833   5.102   5.107  14.571  0.4031  0.0975  0.0023
19473TIP3    H179834   5.075   5.123  14.662 -1.7871 -3.9618  0.2917
19473TIP3    H279835   5.030   5.142  14.519  0.8625  0.9141 -0.0982
19474TIP3   OH279836   1.948   5.289   1.307 -0.4181  0.4422  1.1127
19474TIP3    H179837   1.973   5.232   1.235  0.3073 -1.0092  2.4551
19474TIP3    H279838   1.866   5.252   1.340 -0.3527  0.6368  1.5022
19475TIP3   OH279839   2.216   4.805   3.570  0.0710  0.1980  0.1440
19475TIP3    H179840   2.136   4.859   3.569  0.2596  0.5904  1.9517
19475TIP3    H279841   2.234   4.792   3.663  1.7413 -0.4722 -0.2460
19476TIP3   OH279842   3.350   0.358   1.306  0.7876 -0.2725  0.2154
19476TIP3    H179843   3.360   0.452   1.293 -1.2534 -0.0062  0.2285
19476TIP3    H279844   3.430   0.331   1.350 -0.1975  2.1981  3.9711
19477TIP3   OH279845   4.982   2.412  13.487  0.0738  0.0759  0.0792
19477TIP3    H179846   5.056   2.370  13.531 -0.4498  0.8444  1.7762
19477TIP3    H279847   4.921   2.340  13.469 -0.2281 -0.1280  1.7389
19478TIP3   OH279848   1.917   3.820   5.986  0.1620  0.1415 -0.2510
19478TIP3    H179849   1.926   3.816   6.082  0.2727 -0.2351 -0.2777
19478TIP3    H279850   1.824   3.800   5.970  0.1332  0.2484 -0.2220
19479TIP3   OH279851   3.686   1.589  16.152  0.1377 -0.5031 -0.5982
19479TIP3    H179852   3.598   1.615  16.181 -0.0041 -1.3870 -0.2100
19479TIP3    H279853   3.744   1.620  16.221  0.1120 -0.0799 -0.7648
19480TIP3   OH279854   4.369   6.148   0.062 -0.5624 -0.0638 -0.0586
19480TIP3    H179855   4.274   6.148   0.066 -0.5847 -0.7715 -0.3387
19480TIP3    H279856   4.398   6.108   0.144 -0.4791  0.8619  0.3674
19481TIP3   OH279857   6.383   6.438   4.650 -0.1046 -0.7032  0.2468
19481TIP3    H179858   6.406   6.434   4.743  2.4045 -2.1281 -0.3488
19481TIP3    H279859   6.364   6.348   4.626  1.1507 -0.6579 -1.0189
19482TIP3   OH279860   3.733   5.110  13.275  0.0453  0.2719 -0.1920
19482TIP3    H179861   3.823   5.141  13.268 -0.2439  1.0529 -0.6955
19482TIP3    H279862   3.697   5.122  13.187 -0.6566  0.3385  0.0915
19483TIP3   OH279863   1.914   3.417   5.858  0.4198 -0.3894  0.0642
19483TIP3    H179864   1.836   3.463   5.829 -0.5387 -0.7707  1.8761
19483TIP3    H279865   1.982   3.485   5.860 -0.4441  0.4852  0.6752
19484TIP3   OH279866   0.429   3.600   1.066 -0.0819  0.3930 -0.2978
19484TIP3    H179867   0.358   3.657   1.093 -0.2665 -0.2650  0.6446
19484TIP3    H279868   0.390   3.542   1.001 -0.0477  0.9318 -0.8057
19485TIP3   OH279869   4.298   0.069   2.128 -0.0098 -0.0200 -0.3993
19485TIP3    H179870   4.342   0.046   2.210  1.3057  0.3338 -0.9913
19485TIP3    H279871   4.278   0.162   2.137  1.6862  0.4431 -1.1539
19486TIP3   OH279872   5.893   2.167  13.320  0.1500 -0.0390  0.1783
19486TIP3    H179873   5.955   2.208  13.261 -0.6427  0.3400 -0.4106
19486TIP3    H279874   5.871   2.236  13.383 -0.5185  0.1830 -0.2889
19487TIP3   OH279875   0.322   4.678   3.165  0.4307  0.1432 -0.2393
19487TIP3    H179876   0.242   4.725   3.184 -0.8958 -2.5549  1.5294
19487TIP3    H279877   0.380   4.743   3.126 -1.8517  2.6853  0.3262
19488TIP3   OH279878   1.120   3.591  11.487 -0.1195 -0.2172 -0.7537
19488TIP3    H179879   1.094   3.683  11.480 -1.2213 -0.4041  0.3432
19488TIP3    H279880   1.215   3.591  11.483 -0.1619  0.6677 -3.6159
19489TIP3   OH279881   5.282   3.960   1.721  0.7147  0.1798  0.2657
19489TIP3    H179882   5.350   4.017   1.686  1.0579  0.4049  1.2585
19489TIP3    H279883   5.301   3.955   1.815 -0.7756  0.4393  0.6054
19490TIP3   OH279884   4.837   0.437  10.971  0.3748 -0.5863  0.1393
19490TIP3    H179885   4.747   0.455  10.945  0.7978 -1.2999 -2.0284
19490TIP3    H279886   4.886   0.513  10.940  0.9421 -1.5892 -1.5231
19491TIP3   OH279887   5.329   6.631  11.518 -0.4865 -0.3120  0.9345
19491TIP3    H179888   5.273   6.667  11.587  0.8220  2.4186  0.6771
19491TIP3    H279889   5.283   6.651  11.437  1.7083  4.2393  0.5085
19492TIP3   OH279890   1.655   0.018   1.554 -0.6752  0.5241  0.0254
19492TIP3    H179891   1.580  -0.034   1.524 -2.9120  2.3984  1.9179
19492TIP3    H279892   1.689  -0.030   1.630 -0.8548  0.3376 -0.0121
19493TIP3   OH279893   3.995   5.230  15.447 -0.1743 -1.1721  0.2362
19493TIP3    H179894   4.015   5.283  15.370  4.3224 -0.9219  1.2973
19493TIP3    H279895   3.940   5.287  15.502  0.3770  0.4248 -0.7938
19494TIP3   OH279896   2.571   6.095   0.206  0.6476  0.6318  0.3659
19494TIP3    H179897   2.551   6.150   0.130 -2.2324 -0.4993  0.1843
19494TIP3    H279898   2.605   6.157   0.271 -1.5872  2.5706 -0.1457
19495TIP3   OH279899   1.365   0.932   5.689  0.0218 -0.0509 -0.0486
19495TIP3    H179900   1.310   0.997   5.731  0.9540 -0.3443  1.7228
19495TIP3    H279901   1.435   0.983   5.648 -1.2940  0.2916 -1.9790
19496TIP3   OH279902   2.644   4.782   6.248  0.6628  0.0735 -0.0696
19496TIP3    H179903   2.618   4.728   6.322  1.0432 -0.1370 -0.0833
19496TIP3    H279904   2.704   4.847   6.286  1.5891 -0.6033 -0.3293
19497TIP3   OH279905   2.175   3.538   4.228  0.6736  0.2220 -0.0176
19497TIP3    H179906   2.100   3.483   4.249  0.1229 -0.1505 -2.6429
19497TIP3    H279907   2.138   3.624   4.210  0.9207  0.2049 -0.6613
19498TIP3   OH279908   5.806   0.942  13.699  0.8182  0.2365 -0.6005
19498TIP3    H179909   5.863   0.914  13.770  0.6540 -0.5544 -0.7775
19498TIP3    H279910   5.852   1.016  13.659  0.3373  1.5125  1.0992
19499TIP3   OH279911   3.191   6.229   3.934  0.4766  0.1058  0.3195
19499TIP3    H179912   3.283   6.210   3.950  0.4386 -1.2759 -0.8873
19499TIP3    H279913   3.154   6.146   3.906 -1.2618  0.5277  1.2291
19500TIP3   OH279914   1.925   2.724   2.589  0.2609 -0.3372 -0.2129
19500TIP3    H179915   1.932   2.655   2.656 -1.1076  0.3882  0.7222
19500TIP3    H279916   1.838   2.712   2.552 -0.7559  1.9382  1.2337
19501TIP3   OH279917   0.629   1.169   2.439  0.4729  0.3196 -0.4169
19501TIP3    H179918   0.718   1.167   2.476 -0.4996 -1.4805  2.1585
19501TIP3    H279919   0.575   1.207   2.508 -1.0499 -0.4106 -1.1591
19502TIP3   OH279920   2.936   3.004   5.395 -1.0090 -0.4511  0.1125
19502TIP3    H179921   2.845   2.989   5.422 -0.9651 -2.5942 -0.7116
19502TIP3    H279922   2.988   2.979   5.472 -1.0696 -0.6191  0.0985
19503TIP3   OH279923   0.475   0.061  13.387  0.4458 -0.3798  0.1111
19503TIP3    H179924   0.541   0.024  13.446 -0.8185 -1.3993  0.9509
19503TIP3    H279925   0.440   0.137  13.434 -0.8788 -1.4522  0.9579
19504TIP3   OH279926   4.725   2.242  13.123  0.2421 -0.2882  0.0051
19504TIP3    H179927   4.672   2.226  13.201  0.4608 -1.1043 -0.0056
19504TIP3    H279928   4.695   2.327  13.090 -1.0350 -0.7156  0.0257
19505TIP3   OH279929   4.146   2.583   2.942 -0.6019 -0.5012  0.5183
19505TIP3    H179930   4.222   2.597   2.998  0.8490 -0.3737 -1.3906
19505TIP3    H279931   4.105   2.669   2.935  0.4444 -0.0569 -0.3095
19506TIP3   OH279932   4.073   3.901  16.527  0.6667  0.1812 -0.0902
19506TIP3    H179933   4.081   3.830  16.463 -1.4655 -0.6532  0.4748
19506TIP3    H279934   4.071   3.857  16.612 -0.1868  0.9614  0.3097
19507TIP3   OH279935   0.583   2.638   1.910 -0.2742  0.1107  0.5551
19507TIP3    H179936   0.527   2.708   1.944 -3.3536 -1.7763 -0.1805
19507TIP3    H279937   0.598   2.580   1.985 -0.6922 -0.2120  0.3915
19508TIP3   OH279938   0.677   0.263   2.516 -0.5156 -0.4063  0.8029
19508TIP3    H179939   0.752   0.207   2.497  1.0680  1.8990 -0.1395
19508TIP3    H279940   0.632   0.272   2.433  0.3992  1.2549  0.4461
19509TIP3   OH279941   0.948   5.934   0.090 -0.3875  0.4909 -0.2700
19509TIP3    H179942   1.000   5.920   0.169  1.7109  3.5311 -0.9207
19509TIP3    H279943   0.989   5.879   0.024  1.2600  1.8229 -0.4287
19510TIP3   OH279944   1.227   6.161   0.934  0.7072 -0.9675  0.3087
19510TIP3    H179945   1.218   6.108   0.855  0.4600 -1.5310  0.7102
19510TIP3    H279946   1.319   6.151   0.959  1.4873  1.2802 -1.3325
19511TIP3   OH279947   0.936   2.810  13.182 -0.1742  0.6036  0.0457
19511TIP3    H179948   1.020   2.818  13.228  0.4011  1.1148 -1.0546
19511TIP3    H279949   0.901   2.725  13.210  0.3003  0.7719  1.1734
19512TIP3   OH279950   4.597   5.855  14.251  0.0469 -0.3075 -0.0289
19512TIP3    H179951   4.550   5.773  14.268 -0.0776 -0.1581  0.3492
19512TIP3    H279952   4.689   5.835  14.272 -0.2472  0.1720  1.9150
19513TIP3   OH279953   0.931   3.637  11.840 -0.4905  0.6872 -0.5092
19513TIP3    H179954   0.905   3.599  11.756 -0.2541  0.3048 -0.4113
19513TIP3    H279955   0.910   3.569  11.905  0.6830  0.3895 -0.4203
19514TIP3   OH279956   0.874   1.835  10.535  0.0614 -0.1718  0.2643
19514TIP3    H179957   0.955   1.885  10.538 -0.3474  0.4919  0.5250
19514TIP3    H279958   0.808   1.897  10.505 -0.2046 -0.9158 -0.7346
19515TIP3   OH279959   2.129   4.101  14.682  0.0138  0.7412  0.0095
19515TIP3    H179960   2.064   4.164  14.650 -0.7846  1.0936  2.1237
19515TIP3    H279961   2.116   4.023  14.628 -1.4509  1.1790 -0.3265
19516TIP3   OH279962   6.444   2.204  14.146  0.0262 -0.1616  0.8209
19516TIP3    H179963   6.397   2.252  14.077  1.4806  0.4851  0.2325
19516TIP3    H279964   6.379   2.192  14.215 -0.7305  1.6507  0.4950
19517TIP3   OH279965   6.051   0.613  15.604  0.3317 -0.4318 -0.0364
19517TIP3    H179966   6.067   0.617  15.509  1.7724  1.2492  0.2333
19517TIP3    H279967   6.096   0.533  15.632  0.3453 -0.6631 -0.7002
19518TIP3   OH279968   1.835   3.972  11.086  0.1254  0.2412 -0.1644
19518TIP3    H179969   1.764   3.967  11.022  0.6533  0.0812 -0.7495
19518TIP3    H279970   1.859   3.880  11.101  0.7651  0.3327 -0.6048
19519TIP3   OH279971   4.830   2.474  13.774 -0.0239 -0.3263  0.3076
19519TIP3    H179972   4.789   2.389  13.763 -0.7597  0.1592 -0.8198
19519TIP3    H279973   4.846   2.505  13.685  1.3098  0.2183  0.7051
19520TIP3   OH279974   1.234   3.789  17.280 -0.1783  0.3082 -0.2169
19520TIP3    H179975   1.276   3.835  17.352  1.7988 -1.8942  0.1450
19520TIP3    H279976   1.205   3.859  17.221  0.1496  2.0732  1.6057
19521TIP3   OH279977   6.559   4.197  17.142  0.2033 -0.0280  0.2642
19521TIP3    H179978   6.480   4.243  17.172 -0.6827 -0.8044 -0.7911
19521TIP3    H279979   6.541   4.176  17.050  1.8859  0.2745 -0.1639
19522TIP3   OH279980   5.986   5.769  14.894 -0.0334  0.1797 -0.6561
19522TIP3    H179981   6.029   5.782  14.810  1.4136  1.3248  0.2106
19522TIP3    H279982   6.058   5.753  14.955 -1.0083 -0.0360  0.4628
19523TIP3   OH279983   1.880   2.911   3.091 -0.2175 -0.2402  0.0175
19523TIP3    H179984   1.799   2.866   3.116 -2.4172  1.2210 -3.6786
19523TIP3    H279985   1.861   3.004   3.105  0.9995  0.1073 -0.5100
19524TIP3   OH279986   0.672   0.305   2.858  0.2501  0.0286 -0.1706
19524TIP3    H179987   0.649   0.260   2.777 -0.2094  0.9177 -0.5440
19524TIP3    H279988   0.765   0.286   2.871  0.4994  0.4269 -1.2730
19525TIP3   OH279989   5.779   5.345  10.538  0.2834  0.0243  0.5623
19525TIP3    H179990   5.732   5.295  10.604  1.0665 -0.1721  0.9835
19525TIP3    H279991   5.810   5.423  10.584  0.2409  0.2244  0.2542
19526TIP3   OH279992   2.906   1.356   5.246 -0.6654  0.2363  0.0178
19526TIP3    H179993   2.887   1.424   5.182 -1.1954  0.5762  0.5175
19526TIP3    H279994   3.000   1.341   5.240 -0.5582  0.9747 -0.1400
19527TIP3   OH279995   2.048   6.620  15.297 -0.3877 -0.5604  0.0791
19527TIP3    H179996   2.027   6.672  15.374 -0.3467 -1.5381  0.7575
19527TIP3    H279997   2.128   6.572  15.320 -0.1642 -0.5834 -0.7040
19528TIP3   OH279998   5.039   0.218  10.900 -0.2509  0.4552  0.3870
19528TIP3    H179999   5.125   0.236  10.937 -0.7603  0.2672  1.6982
19528TIP3    H280000   5.012   0.302  10.861  0.6448  0.4256 -0.3351
19529TIP3   OH280001   5.183   2.774   0.519 -0.2744 -0.1538  0.0402
19529TIP3    H180002   5.210   2.719   0.445 -0.1683 -1.5642  1.0984
19529TIP3    H280003   5.210   2.725   0.597 -0.2629  1.3685  1.0248
19530TIP3   OH280004   5.329   2.076   6.523  0.0374 -0.1342 -0.0905
19530TIP3    H180005   5.353   2.169   6.521  1.9000 -0.5956 -1.1677
19530TIP3    H280006   5.273   2.068   6.600  1.7710  1.4471  1.4378
19531TIP3   OH280007   6.730   5.755  11.410  0.3881  0.4206  0.1104
19531TIP3    H180008   6.711   5.832  11.463  0.0068 -0.1743  0.8543
19531TIP3    H280009   6.652   5.701  11.418  0.9421 -0.3751  0.1867
19532TIP3   OH280010   2.413   5.608  12.861 -0.3198  0.3641 -0.4960
19532TIP3    H180011   2.431   5.702  12.868  0.1526  0.2129  0.5246
19532TIP3    H280012   2.476   5.577  12.796  1.8925  0.2028  1.5901
19533TIP3   OH280013   1.199   3.738   5.018  0.0887  0.0824  0.2139
19533TIP3    H180014   1.171   3.794   5.090 -1.1873 -1.5506  1.0420
19533TIP3    H280015   1.193   3.649   5.053  1.5334 -0.6341 -1.2284
19534TIP3   OH280016   5.221   3.863  14.279 -0.0141 -0.1673 -0.0273
19534TIP3    H180017   5.272   3.893  14.204  0.2291 -0.9983 -0.2059
19534TIP3    H280018   5.233   3.768  14.280 -2.6296 -0.5614 -0.8634
19535TIP3   OH280019   2.924   5.011   4.454  0.2708 -0.0396 -0.4550
19535TIP3    H180020   2.842   4.966   4.474 -0.6635  0.9573 -1.8399
19535TIP3    H280021   2.963   4.959   4.384  1.1761 -0.8663  0.6232
19536TIP3   OH280022   6.273   6.395   3.296 -0.9644  0.0782 -0.0708
19536TIP3    H180023   6.263   6.306   3.262  1.5581 -0.7285  1.0914
19536TIP3    H280024   6.266   6.451   3.219 -2.3863 -1.1123 -0.8532
19537TIP3   OH280025   4.670   3.184   1.437  0.2751  0.5027  0.6107
19537TIP3    H180026   4.748   3.210   1.389  0.2268 -1.3291 -0.5301
19537TIP3    H280027   4.598   3.193   1.374 -0.0926 -0.0130  0.9422
19538TIP3   OH280028   2.443   6.354   5.093  0.0558  0.2916  0.4734
19538TIP3    H180029   2.493   6.277   5.065  0.1335  0.3215  0.5289
19538TIP3    H280030   2.482   6.379   5.176  0.5092  0.8183  0.1099
19539TIP3   OH280031   0.723   4.959   0.427 -0.2187 -0.7739 -0.1519
19539TIP3    H180032   0.795   5.021   0.416 -2.3647  1.9168  0.0582
19539TIP3    H280033   0.750   4.883   0.376  3.6594 -0.8142  1.5450
19540TIP3   OH280034   5.033   1.092   4.210  0.2252 -0.0965  0.0337
19540TIP3    H180035   5.072   1.168   4.166  1.7771  1.3177  3.4398
19540TIP3    H280036   4.940   1.100   4.192  0.5242  1.7442 -1.0130
19541TIP3   OH280037   5.541   2.290  13.820  0.1532  0.1055  0.1141
19541TIP3    H180038   5.573   2.200  13.812 -0.3171 -0.0476 -0.1241
19541TIP3    H280039   5.472   2.284  13.886 -0.3268  0.1607 -0.3730
19542TIP3   OH280040   1.581   1.370  13.348 -0.7992 -0.2347 -0.3104
19542TIP3    H180041   1.636   1.412  13.415 -1.0339  0.6181 -0.6362
19542TIP3    H280042   1.608   1.411  13.266 -1.7191 -0.0163 -0.5129
19543TIP3   OH280043   4.284   0.713  12.605  0.2743 -0.6441  0.0451
19543TIP3    H180044   4.242   0.653  12.667 -1.5925 -0.0707 -0.6167
19543TIP3    H280045   4.231   0.792  12.607  0.9295 -0.1343 -1.3276
19544TIP3   OH280046   4.381   4.668   5.743 -0.0090  0.1280  0.4120
19544TIP3    H180047   4.446   4.731   5.775  0.2798 -0.2204  0.5099
19544TIP3    H280048   4.334   4.641   5.822 -1.6427  1.8987  0.1119
19545TIP3   OH280049   2.442   6.552   1.661  0.2521  0.5525 -0.3376
19545TIP3    H180050   2.472   6.463   1.681  0.3416  0.0827 -2.3721
19545TIP3    H280051   2.522   6.601   1.642  0.0732  0.4634 -1.3862
19546TIP3   OH280052   4.347   6.038  12.957 -0.4544 -0.1379  0.2609
19546TIP3    H180053   4.398   6.048  12.876 -0.3420  1.0631  0.4599
19546TIP3    H280054   4.256   6.043  12.929 -0.4634 -1.3110  0.0271
19547TIP3   OH280055   6.060   3.036  12.060 -0.0149  0.6312  0.1788
19547TIP3    H180056   6.066   3.015  12.153 -1.2850 -3.0664 -0.4131
19547TIP3    H280057   6.151   3.043  12.031  0.4492 -0.5107  1.2786
19548TIP3   OH280058   6.414   6.654   2.111 -0.0969  0.0943 -0.1798
19548TIP3    H180059   6.372   6.726   2.159 -1.6514 -0.2515 -0.9687
19548TIP3    H280060   6.347   6.621   2.052  0.8173 -1.5413 -0.3822
19549TIP3   OH280061   3.247   4.647   2.866 -0.1100  0.0878  0.2682
19549TIP3    H180062   3.167   4.601   2.890 -0.9961  1.1669 -0.5466
19549TIP3    H280063   3.266   4.616   2.777  0.9456 -0.8959  0.8056
19550TIP3   OH280064   0.962   6.216  13.324  0.4286 -0.2223  0.1181
19550TIP3    H180065   1.036   6.221  13.264  0.7237 -1.5117  0.3397
19550TIP3    H280066   0.890   6.257  13.277  1.1659  0.6369 -0.2858
19551TIP3   OH280067   0.863   2.683  17.091 -0.3886  0.0762 -0.0585
19551TIP3    H180068   0.843   2.625  17.164  1.3740 -0.5730 -0.0353
19551TIP3    H280069   0.786   2.679  17.034 -0.6352 -1.6542  0.3549
19552TIP3   OH280070   6.215   0.235  13.049  0.2688 -0.0749  0.6259
19552TIP3    H180071   6.158   0.161  13.070  0.3826  0.0167  1.2944
19552TIP3    H280072   6.157   0.300  13.010  0.4801 -1.2349 -1.8356
19553TIP3   OH280073   0.137   3.076   3.659  0.0616 -0.0237 -0.5912
19553TIP3    H180074   0.122   3.058   3.566 -0.8038 -1.8379 -0.1433
19553TIP3    H280075   0.208   3.016   3.684 -0.6810 -0.5880  0.2307
19554TIP3   OH280076   2.003   5.695  16.678 -0.0863 -0.0702  0.2295
19554TIP3    H180077   2.002   5.600  16.687  0.2810 -0.2812 -1.6522
19554TIP3    H280078   1.919   5.717  16.637  0.3879  0.2725 -0.5684
19555TIP3   OH280079   3.315   1.452   2.342 -0.5992 -0.0765 -0.4528
19555TIP3    H180080   3.239   1.404   2.377 -0.5569  0.3558  0.2445
19555TIP3    H280081   3.383   1.385   2.334  0.3197  0.2538  3.0490
19556TIP3   OH280082   1.313   6.334  13.755  0.1343  0.0164  0.2520
19556TIP3    H180083   1.271   6.300  13.835 -1.5888  2.2183  0.3781
19556TIP3    H280084   1.403   6.354  13.782 -0.0853 -0.3673  1.3300
19557TIP3   OH280085   5.393   1.077  14.706 -0.3670  0.1141  0.0028
19557TIP3    H180086   5.338   1.001  14.727 -1.9731  1.0357 -0.6818
19557TIP3    H280087   5.432   1.056  14.622  0.7904 -0.7697  0.7329
19558TIP3   OH280088   4.757   0.323   3.868 -0.6386  0.6123 -0.2240
19558TIP3    H180089   4.773   0.414   3.843 -2.0448  1.2995  1.1773
19558TIP3    H280090   4.844   0.287   3.885 -0.0079  1.4625 -1.4704
19559TIP3   OH280091   2.326   5.388   0.326 -0.4111 -0.0996 -0.7150
19559TIP3    H180092   2.244   5.420   0.287 -0.9147  2.9674  2.2908
19559TIP3    H280093   2.384   5.464   0.324  1.4559 -1.4553 -0.4358
19560TIP3   OH280094   3.877   3.464   1.734  0.5421 -0.2054 -0.2639
19560TIP3    H180095   3.788   3.474   1.700  0.1677 -2.2393 -0.0229
19560TIP3    H280096   3.921   3.409   1.669  1.2070 -0.3533  0.3028
19561TIP3   OH280097   4.979   5.614  11.615  0.8477 -0.0705 -0.0340
19561TIP3    H180098   5.069   5.597  11.586  0.5643  0.4184 -1.2519
19561TIP3    H280099   4.938   5.660  11.541 -0.9879 -2.0482 -0.3412
19562TIP3   OH280100   4.884   5.373  11.011 -0.1077 -0.1479 -0.1072
19562TIP3    H180101   4.895   5.425  10.932  0.0112  0.6033  0.3926
19562TIP3    H280102   4.920   5.287  10.989  1.6152  0.5813 -0.3028
19563TIP3   OH280103   5.481   6.157  11.789  0.4550 -0.0434 -0.2757
19563TIP3    H180104   5.391   6.126  11.799  0.7067 -0.9755 -0.8550
19563TIP3    H280105   5.471   6.251  11.771 -0.2968  0.2836  1.5570
19564TIP3   OH280106   1.789   3.575  16.051 -0.0516  0.1020  0.0713
19564TIP3    H180107   1.875   3.533  16.048 -0.5369 -1.0951  1.4895
19564TIP3    H280108   1.753   3.549  16.136 -2.1855 -0.1704 -0.8679
19565TIP3   OH280109   6.701   4.312   2.210 -0.0297 -0.0123 -0.3162
19565TIP3    H180110   6.641   4.260   2.263 -1.1554  0.3336 -1.2017
19565TIP3    H280111   6.693   4.276   2.122  1.0282  0.0929 -0.4705
19566TIP3   OH280112   1.725   1.977   0.461  0.3253  0.3507 -0.5150
19566TIP3    H180113   1.738   1.902   0.403 -1.5652  0.0563 -0.6062
19566TIP3    H280114   1.755   1.947   0.546 -0.1780 -0.4331 -0.6090
19567TIP3   OH280115   0.452   3.026   2.542 -0.1187 -0.1789  0.2523
19567TIP3    H180116   0.509   2.993   2.611  0.2605  0.6272  0.3400
19567TIP3    H280117   0.366   3.035   2.583  0.3484  1.3704  0.9690
19568TIP3   OH280118   1.856   3.267   3.371  0.3198  0.0080 -0.2837
19568TIP3    H180119   1.799   3.340   3.397 -1.5127 -0.7998 -1.7779
19568TIP3    H280120   1.836   3.198   3.435  0.0093 -0.1022 -0.5002
19569TIP3   OH280121   3.394   3.404   4.739  0.2148 -0.2653  1.0350
19569TIP3    H180122   3.459   3.338   4.762  0.0103 -0.5563  0.8040
19569TIP3    H280123   3.312   3.370   4.775 -0.0058 -0.4558  0.3797
19570TIP3   OH280124   4.681   0.331  16.861  0.4846  0.2642  0.0865
19570TIP3    H180125   4.650   0.286  16.783  1.5813  2.1226 -1.4877
19570TIP3    H280126   4.613   0.314  16.927 -2.0216  1.1163 -2.1289
19571TIP3   OH280127   1.306   4.532   0.436 -0.0031  0.1815  0.2258
19571TIP3    H180128   1.237   4.469   0.458 -1.1144  0.7874 -1.3871
19571TIP3    H280129   1.381   4.478   0.414 -0.0195 -0.4971  1.6943
19572TIP3   OH280130   3.716   0.127   1.967 -0.0303 -0.4110  0.1019
19572TIP3    H180131   3.804   0.165   1.961 -0.3083  0.1434 -0.7814
19572TIP3    H280132   3.686   0.149   2.055  1.6119 -2.7050  1.3505
19573TIP3   OH280133   4.417   5.836  15.400  0.0999  0.1492 -0.1179
19573TIP3    H180134   4.469   5.757  15.385 -0.6423 -0.1993 -0.9033
19573TIP3    H280135   4.338   5.824  15.347  0.9485  2.4159 -2.1105
19574TIP3   OH280136   0.943   0.344  16.171  0.0943 -0.1678 -0.1038
19574TIP3    H180137   0.893   0.361  16.251  0.1310 -2.1808  0.3830
19574TIP3    H280138   0.876   0.320  16.107  0.1880  0.1529 -0.3248
19575TIP3   OH280139   3.100   1.836   3.910 -0.2906  0.2580  0.6036
19575TIP3    H180140   3.024   1.852   3.855 -1.0844  0.5263  1.7492
19575TIP3    H280141   3.152   1.772   3.861 -1.6442 -0.5474  0.1568
19576TIP3   OH280142   3.429   1.691   2.346  0.4868  0.3633 -0.0693
19576TIP3    H180143   3.480   1.683   2.266  0.2136 -0.3407 -0.1758
19576TIP3    H280144   3.363   1.622   2.341 -0.5367  1.2960  0.0344
19577TIP3   OH280145   4.283   3.331  15.094 -0.0942  0.2344  0.6018
19577TIP3    H180146   4.215   3.372  15.147 -0.1510  0.8996  0.0383
19577TIP3    H280147   4.360   3.329  15.151 -0.1666  0.8933  0.7334
19578TIP3   OH280148   4.658   5.399   1.801  0.5634  0.0959  0.0999
19578TIP3    H180149   4.582   5.351   1.833  0.5323 -0.3582 -0.6428
19578TIP3    H280150   4.641   5.490   1.826 -0.2239 -0.0041 -0.0425
19579TIP3   OH280151   2.528   4.399  16.726 -0.3341 -0.1255  0.1028
19579TIP3    H180152   2.466   4.405  16.799 -0.2044  0.2897  0.1774
19579TIP3    H280153   2.498   4.464  16.664  0.0319  0.0770  0.1395
19580TIP3   OH280154   3.463   2.527   2.807  0.1456 -0.1156 -0.6894
19580TIP3    H180155   3.421   2.502   2.725  0.3438 -0.6981 -0.6200
19580TIP3    H280156   3.489   2.443   2.847 -1.4754  0.0208  0.7946
19581TIP3   OH280157   6.754   1.593   1.766  0.2538 -0.5232 -0.1824
19581TIP3    H180158   6.804   1.515   1.789  0.7623  0.3677  1.9934
19581TIP3    H280159   6.690   1.602   1.837 -1.4712 -0.3194 -1.6983
19582TIP3   OH280160   5.253   3.475  11.316 -0.2341  0.1364 -0.3601
19582TIP3    H180161   5.323   3.457  11.254  0.6131 -2.1303  1.1267
19582TIP3    H280162   5.274   3.561  11.353  1.4198 -0.2099 -0.4195
19583TIP3   OH280163   1.323   2.060   0.262 -0.0550  0.4749 -0.2640
19583TIP3    H180164   1.265   2.137   0.263 -0.3988  0.2190 -0.1219
19583TIP3    H280165   1.393   2.082   0.324  0.5079  1.1619 -1.1249
19584TIP3   OH280166   3.579   1.733   4.830 -0.4552  0.2469  0.8500
19584TIP3    H180167   3.557   1.824   4.810  0.8856  0.4416  0.2295
19584TIP3    H280168   3.674   1.728   4.823 -0.5365 -1.3138  0.4201
19585TIP3   OH280169   5.992   0.506  12.460 -0.7342 -0.1770 -0.3006
19585TIP3    H180170   6.011   0.413  12.467 -0.1017  0.0001  0.3638
19585TIP3    H280171   6.044   0.535  12.384 -1.2020 -0.4234 -0.7258
19586TIP3   OH280172   1.875   1.810  14.312 -0.0889 -0.1164  0.4591
19586TIP3    H180173   1.935   1.871  14.355  1.5707 -1.6583  0.4473
19586TIP3    H280174   1.930   1.735  14.289 -2.0064 -1.5390  0.3055
19587TIP3   OH280175   3.980   5.588  12.556  0.0553 -0.1721  0.3200
19587TIP3    H180176   4.054   5.528  12.569  0.0886 -0.2798 -0.3474
19587TIP3    H280177   4.015   5.657  12.499 -0.3665 -0.2403 -0.0247
19588TIP3   OH280178   5.127   5.338   5.566 -0.3693 -0.3469 -0.1835
19588TIP3    H180179   5.049   5.347   5.621  0.5207  1.0051  0.8985
19588TIP3    H280180   5.099   5.370   5.480 -1.2022 -0.5881 -0.0153
19589TIP3   OH280181   0.100   4.102   1.857 -0.5640  0.0326  0.5238
19589TIP3    H180182   0.171   4.166   1.855 -0.0165 -0.5611 -1.9141
19589TIP3    H280183   0.074   4.092   1.765 -1.5835 -2.2021  0.9926
19590TIP3   OH280184   3.301   0.247   4.622 -0.3846 -0.8500  0.3535
19590TIP3    H180185   3.268   0.244   4.532 -0.1584  0.0015  0.2374
19590TIP3    H280186   3.222   0.247   4.676 -0.6640  1.8351  0.0638
19591TIP3   OH280187   6.707   5.771   2.130 -0.7202 -0.4671  0.5669
19591TIP3    H180188   6.797   5.771   2.099 -0.6034  2.2461  0.6223
19591TIP3    H280189   6.655   5.792   2.053 -0.9253  1.1910  1.1020
19592TIP3   OH280190   1.098   3.530  11.122 -0.3061  0.3039 -0.2768
19592TIP3    H180191   1.173   3.550  11.178 -1.4167  0.5839  1.1526
19592TIP3    H280192   1.127   3.455  11.069 -0.2131 -1.9789  2.7630
19593TIP3   OH280193   4.151   1.543  13.923  0.0867  0.1024 -0.1576
19593TIP3    H180194   4.173   1.499  14.005  0.4081  1.8852  0.7784
19593TIP3    H280195   4.072   1.593  13.943  0.8743  1.5636 -0.5100
19594TIP3   OH280196   5.894   0.923  16.832 -0.2931  0.2149  0.0719
19594TIP3    H180197   5.810   0.894  16.866 -0.5293  1.3678  0.5166
19594TIP3    H280198   5.937   0.966  16.906  1.4340 -1.8129  0.3361
19595TIP3   OH280199   0.965   1.284  14.849  0.1533 -0.2827 -0.1134
19595TIP3    H180200   0.974   1.345  14.922  0.6999  1.3879 -1.4931
19595TIP3    H280201   1.004   1.331  14.774 -0.1659 -2.0062 -1.4204
19596TIP3   OH280202   0.841   5.165  12.659  0.1815 -0.4098 -0.4328
19596TIP3    H180203   0.765   5.184  12.605  0.6961  1.6837 -0.5213
19596TIP3    H280204   0.883   5.250  12.672 -0.1082 -0.6841  3.6013
19597TIP3   OH280205   3.689   3.256  11.059  0.5107  0.4733  0.2873
19597TIP3    H180206   3.718   3.337  11.017 -0.3228  1.1601  0.9850
19597TIP3    H280207   3.618   3.225  11.003  1.2326 -0.1205 -0.3158
19598TIP3   OH280208   6.112   5.672   5.841 -0.1301 -0.2318 -0.3571
19598TIP3    H180209   6.150   5.699   5.925 -0.3239 -1.4634  0.1471
19598TIP3    H280210   6.112   5.752   5.788 -1.9970  1.1424  1.5207
19599TIP3   OH280211   1.546   5.223   0.982  0.0670  0.6568 -0.2010
19599TIP3    H180212   1.555   5.152   0.918  1.1960  0.4093  0.2070
19599TIP3    H280213   1.452   5.228   0.998 -0.0475 -0.7036 -0.3004
19600TIP3   OH280214   1.776   2.018  12.318  0.4525  0.4154 -0.0602
19600TIP3    H180215   1.736   1.958  12.255 -0.6337  0.2928  0.7238
19600TIP3    H280216   1.839   1.963  12.366  0.1999  0.1420 -0.0375
19601TIP3   OH280217   2.589   0.800  16.472  0.4177  0.1325  0.0453
19601TIP3    H180218   2.634   0.804  16.387  1.6284 -1.2565  0.5977
19601TIP3    H280219   2.653   0.763  16.532 -0.2291  1.5918  1.7367
19602TIP3   OH280220   4.715   2.187   3.381 -0.3725 -0.6325  0.9562
19602TIP3    H180221   4.666   2.116   3.339  0.7556  0.0493 -1.7141
19602TIP3    H280222   4.673   2.267   3.350  1.3429 -0.0751 -0.0583
19603TIP3   OH280223   6.696   1.769  12.826  0.6151 -1.0333  0.1463
19603TIP3    H180224   6.617   1.734  12.868  0.4461  0.4871  1.1802
19603TIP3    H280225   6.694   1.732  12.738 -3.1498  1.4841 -1.1100
19604TIP3   OH280226   6.002   5.642  14.137  0.7227  0.1459 -0.1421
19604TIP3    H180227   6.088   5.642  14.178  0.8480 -1.0384 -0.3697
19604TIP3    H280228   5.999   5.561  14.087 -0.7995 -0.1846  0.4230
19605TIP3   OH280229   6.497   3.708   1.957 -0.7849 -0.0426 -0.0853
19605TIP3    H180230   6.539   3.622   1.950 -0.7910 -0.1578  1.1338
19605TIP3    H280231   6.564   3.770   1.929  0.0256 -0.2703  1.2797
19606TIP3   OH280232   2.282   6.474   3.942 -0.4690 -0.0375  0.0794
19606TIP3    H180233   2.365   6.512   3.912 -0.5974 -0.1206 -0.4028
19606TIP3    H280234   2.306   6.419   4.016 -0.1027  0.0231  0.0075
19607TIP3   OH280235   2.638   1.735   0.306 -0.4636  0.7469 -0.0185
19607TIP3    H180236   2.709   1.715   0.366  0.3379 -0.9309 -1.4437
19607TIP3    H280237   2.677   1.791   0.239 -0.9039  1.1480  0.0506
19608TIP3   OH280238   5.471   3.283  14.710 -0.0225  0.1340 -0.0665
19608TIP3    H180239   5.405   3.281  14.641 -0.6740  1.0561  0.5024
19608TIP3    H280240   5.494   3.192  14.725 -0.6192 -0.1405 -0.7894
19609TIP3   OH280241   2.945   3.760  16.798 -0.2760 -0.2885  0.3583
19609TIP3    H180242   2.960   3.680  16.748 -1.6618 -1.9412  2.4587
19609TIP3    H280243   2.854   3.783  16.780  0.4643  1.6855 -1.2953
19610TIP3   OH280244   3.160   1.565  14.968  0.2978 -0.1011 -0.1634
19610TIP3    H180245   3.112   1.501  14.914  2.3026 -2.3000  0.4700
19610TIP3    H280246   3.129   1.650  14.937 -1.5920 -1.3277 -1.9576
19611TIP3   OH280247   4.649   6.651   0.524  0.2819 -0.2017  0.0509
19611TIP3    H180248   4.735   6.610   0.537  1.1038  1.8950  1.9081
19611TIP3    H280249   4.648   6.676   0.431  2.6413  1.5332  0.3849
19612TIP3   OH280250   0.717   6.575   3.805  0.0418 -0.5322  0.0636
19612TIP3    H180251   0.792   6.602   3.752 -0.3685  1.8271  0.5596
19612TIP3    H280252   0.755   6.547   3.888  0.4614 -0.7743 -0.2088
19613TIP3   OH280253   2.693   1.930  14.332  0.3758 -0.9211  0.3938
19613TIP3    H180254   2.668   1.849  14.288 -1.3532  0.7107 -1.9017
19613TIP3    H280255   2.765   1.965  14.279 -1.3326  0.7696 -0.9637
19614TIP3   OH280256   2.333   6.554  12.291  0.1893  0.1428 -0.2164
19614TIP3    H180257   2.238   6.567  12.295  0.3904  1.7902  0.0618
19614TIP3    H280258   2.346   6.467  12.329 -1.2410 -0.3431 -0.7431
19615TIP3   OH280259   5.074   4.440  11.900 -0.2605  0.0157  0.1349
19615TIP3    H180260   5.129   4.507  11.941  0.6443 -0.3536 -0.4582
19615TIP3    H280261   5.018   4.490  11.839  0.1997  0.2723 -0.0846
19616TIP3   OH280262   4.613   2.041   1.889  0.0961 -0.1486 -0.1864
19616TIP3    H180263   4.580   1.952   1.878 -3.1597  0.5952  1.9552
19616TIP3    H280264   4.621   2.075   1.800 -1.3265 -1.7254 -0.9628
19617TIP3   OH280265   1.686   3.253  13.552 -0.2569  0.2851  0.3287
19617TIP3    H180266   1.673   3.158  13.557 -1.4025  0.3491 -0.8602
19617TIP3    H280267   1.657   3.286  13.637 -1.3454 -0.2934  0.1943
19618TIP3   OH280268   3.292   1.811  10.461 -0.0288  0.4357  0.5719
19618TIP3    H180269   3.367   1.754  10.441 -0.2208  0.8441 -1.6175
19618TIP3    H280270   3.330   1.898  10.470 -0.2486  0.7453 -1.1435
19619TIP3   OH280271   0.600   4.112   2.774  0.5346 -0.3315  0.5721
19619TIP3    H180272   0.504   4.113   2.775  0.5054 -1.5497  1.0881
19619TIP3    H280273   0.624   4.168   2.701 -0.5327  1.0429  1.2292
19620TIP3   OH280274   3.285   1.070  15.032 -0.4923 -0.3812  0.6624
19620TIP3    H180275   3.342   1.121  14.976 -1.4042 -2.6831 -2.6965
19620TIP3    H280276   3.201   1.068  14.986 -0.5380 -4.6454  0.5050
19621TIP3   OH280277   2.301   1.491  16.012  0.0953 -0.0043 -0.2811
19621TIP3    H180278   2.229   1.493  15.949  1.4146 -0.7709 -1.8848
19621TIP3    H280279   2.263   1.454  16.091 -0.9891 -1.6489 -1.5018
19622TIP3   OH280280   4.188   4.523   4.092 -0.5486  0.0732 -0.3744
19622TIP3    H180281   4.165   4.468   4.017 -0.7489 -0.3200 -0.0284
19622TIP3    H280282   4.112   4.517   4.150 -0.0768 -0.2457  0.2178
19623TIP3   OH280283   2.563   3.487   4.042  0.3402  0.0793  0.4501
19623TIP3    H180284   2.513   3.505   4.121 -1.2742  1.3036 -0.7685
19623TIP3    H280285   2.504   3.513   3.970  1.9827 -0.3426 -1.1225
19624TIP3   OH280286   1.945   5.981  16.361  0.0573  0.0181 -0.6817
19624TIP3    H180287   1.867   6.012  16.406  0.4091 -1.0862  0.7618
19624TIP3    H280288   1.950   5.888  16.383  1.3407 -0.1076 -1.3953
19625TIP3   OH280289   2.521   4.762  16.370 -0.2046 -0.1803 -0.3386
19625TIP3    H180290   2.537   4.688  16.311 -0.8822 -1.0185  0.4887
19625TIP3    H280291   2.455   4.814  16.325 -1.6745 -1.4967  0.1911
19626TIP3   OH280292   4.548   0.408   1.831  0.3403 -0.0387  0.1933
19626TIP3    H180293   4.576   0.336   1.774 -0.0458  0.1508 -0.2348
19626TIP3    H280294   4.579   0.382   1.918  0.2777 -0.6834  0.0294
19627TIP3   OH280295   5.607   4.984  15.924 -0.5369  0.6815 -0.0826
19627TIP3    H180296   5.630   4.951  15.837 -0.3539  0.0684  0.1952
19627TIP3    H280297   5.527   4.937  15.947 -0.3621  0.5437  0.2492
19628TIP3   OH280298   3.795   6.739  10.824  0.5818 -0.3677  0.1444
19628TIP3    H180299   3.719   6.702  10.778  0.6290  0.6708 -0.8264
19628TIP3    H280300   3.782   6.834  10.820  1.8537 -0.1697  0.0749
19629TIP3   OH280301   6.187   6.605  13.802 -0.1885  0.2279 -0.1495
19629TIP3    H180302   6.222   6.675  13.748  0.3713 -0.7253 -1.0597
19629TIP3    H280303   6.232   6.526  13.771 -0.4857 -0.4733  1.1334
19630TIP3   OH280304   1.803   4.994  14.418  0.1169  0.3529 -0.2823
19630TIP3    H180305   1.754   5.022  14.495  1.5482  1.3597  0.3007
19630TIP3    H280306   1.748   4.926  14.379 -0.3431 -0.7100  2.0108
19631TIP3   OH280307   0.474   4.619  12.557 -0.1280 -0.3631  0.6928
19631TIP3    H180308   0.510   4.708  12.568 -0.4020 -0.1940  0.2772
19631TIP3    H280309   0.384   4.626  12.588  0.4796 -1.0458  2.7154
19632TIP3   OH280310   5.771   3.432   5.504 -0.0350 -0.3856 -0.5345
19632TIP3    H180311   5.836   3.501   5.514  0.2642 -0.7533  0.1839
19632TIP3    H280312   5.769   3.413   5.410  0.1471  0.3392 -0.6851
19633TIP3   OH280313   6.181   3.188   4.608  0.4013  0.4151  0.5200
19633TIP3    H180314   6.237   3.243   4.554  0.6759 -0.0242  0.3516
19633TIP3    H280315   6.156   3.244   4.682  0.5276  0.8192  0.2556
19634TIP3   OH280316   5.798   0.514  16.368  0.2378 -0.2561 -0.1900
19634TIP3    H180317   5.882   0.484  16.333  0.6559 -1.1202  1.4525
19634TIP3    H280318   5.749   0.433  16.384 -0.8892  0.2299 -1.0092
19635TIP3   OH280319   5.309   3.084   0.303 -0.6334 -0.2052  0.9013
19635TIP3    H180320   5.387   3.083   0.248 -1.7393 -2.3766 -0.7935
19635TIP3    H280321   5.267   3.000   0.285 -4.0796  1.4168  0.7003
19636TIP3   OH280322   3.619   2.148  16.036  0.1845 -0.5167 -0.0006
19636TIP3    H180323   3.617   2.058  16.005  0.8797 -0.3906 -0.4284
19636TIP3    H280324   3.631   2.140  16.131 -2.8105 -0.9251  0.4740
19637TIP3   OH280325   6.438   4.101  10.589  0.6464 -0.3291 -0.2778
19637TIP3    H180326   6.405   4.140  10.508 -0.0980  0.8582  0.5707
19637TIP3    H280327   6.364   4.106  10.650  0.8117 -2.2393  0.1679
19638TIP3   OH280328   0.204   5.595  13.264 -0.2544 -0.2521 -0.2849
19638TIP3    H180329   0.264   5.651  13.313  0.0885 -1.7342  1.0866
19638TIP3    H280330   0.141   5.564  13.330 -0.4930 -1.3570 -1.0031
19639TIP3   OH280331   2.959   3.336   0.296 -0.7025  0.4585 -0.2246
19639TIP3    H180332   2.886   3.397   0.292 -0.9965  0.1180 -0.1013
19639TIP3    H280333   3.015   3.369   0.366 -0.3144  1.1814 -0.8537
19640TIP3   OH280334   4.837   6.480  16.780  0.2908 -0.0162  0.0348
19640TIP3    H180335   4.911   6.464  16.721  1.0619  1.8268  0.4144
19640TIP3    H280336   4.760   6.452  16.730  1.0989 -0.4251 -1.0310
19641TIP3   OH280337   6.002   3.420   1.603 -0.0214  0.2155  0.1620
19641TIP3    H180338   6.075   3.410   1.664  0.2980 -1.6974 -0.4526
19641TIP3    H280339   5.975   3.330   1.583 -1.8228  0.8499 -0.5084
19642TIP3   OH280340   4.058   4.471  17.209  0.1344  0.3559 -0.1195
19642TIP3    H180341   4.083   4.395  17.156 -1.5250  0.0762 -0.5475
19642TIP3    H280342   3.989   4.438  17.267 -0.3554  1.4494 -0.0606
19643TIP3   OH280343   4.159   1.470   3.771 -0.3326 -0.3722 -0.0298
19643TIP3    H180344   4.187   1.465   3.680 -0.4306  0.3111 -0.1045
19643TIP3    H280345   4.066   1.446   3.768 -1.4327  3.3275 -0.7199
19644TIP3   OH280346   3.699   1.193  14.692 -0.4403 -0.3182 -0.7136
19644TIP3    H180347   3.751   1.270  14.716 -1.8581  0.0661  1.3812
19644TIP3    H280348   3.754   1.119  14.718 -0.7079  0.0791  1.1649
19645TIP3   OH280349   1.226   4.901  14.773 -0.2527  0.0184 -0.0357
19645TIP3    H180350   1.248   4.893  14.680 -1.2833 -1.3913 -0.1864
19645TIP3    H280351   1.133   4.922  14.774 -0.3879 -0.5774  0.6794
19646TIP3   OH280352   4.137   5.099  11.989  0.3155 -0.2886 -0.3868
19646TIP3    H180353   4.231   5.118  11.986  0.6981 -1.5326  1.6364
19646TIP3    H280354   4.123   5.036  11.918  1.1719 -0.6573 -0.2435
19647TIP3   OH280355   1.664   5.512  14.828  0.3822  0.1258  0.1489
19647TIP3    H180356   1.583   5.516  14.878  0.0982 -0.0373 -0.2906
19647TIP3    H280357   1.669   5.421  14.797  0.4200  0.2852 -0.3273
19648TIP3   OH280358   2.598   2.213   2.013  0.5945 -1.1003  0.6688
19648TIP3    H180359   2.654   2.266   2.070  0.6461 -0.8759  0.4149
19648TIP3    H280360   2.518   2.199   2.063 -0.7578  1.9101 -0.4124
19649TIP3   OH280361   5.612   2.110  13.041  0.3414  0.6755  0.3808
19649TIP3    H180362   5.606   2.123  12.947 -0.7500 -1.1076  0.1710
19649TIP3    H280363   5.601   2.198  13.078 -1.0258  1.1524 -1.0860
19650TIP3   OH280364   2.108   5.749  17.048 -0.4574 -0.2977 -0.4091
19650TIP3    H180365   2.181   5.778  17.102 -0.0852  0.6321 -1.3543
19650TIP3    H280366   2.149   5.695  16.980 -0.5373  0.7118 -1.2911
19651TIP3   OH280367   1.172   1.618  17.222 -0.2300 -0.5046 -0.6970
19651TIP3    H180368   1.139   1.679  17.288  0.0673 -1.5461  0.4628
19651TIP3    H280369   1.197   1.673  17.148 -2.2003  0.5508 -0.6493
19652TIP3   OH280370   3.466   0.491  11.236 -0.3366  0.2148 -0.0416
19652TIP3    H180371   3.531   0.435  11.279  0.0734  0.1171 -0.7837
19652TIP3    H280372   3.464   0.570  11.289 -0.7735 -0.4049  0.9013
19653TIP3   OH280373   2.373   4.027  11.817 -0.4687 -0.0443  0.2817
19653TIP3    H180374   2.397   4.011  11.908 -1.5487  1.0462  0.7763
19653TIP3    H280375   2.284   4.061  11.821 -0.5879 -0.1135 -1.1975
19654TIP3   OH280376   3.667   2.002  17.092  0.7371  0.2256  0.2529
19654TIP3    H180377   3.669   1.979  16.999  1.3210 -1.7759  0.7243
19654TIP3    H280378   3.585   2.050  17.103  0.3435 -0.0806 -1.1554
19655TIP3   OH280379   3.057   0.397  10.866 -0.6122 -0.6222 -0.0625
19655TIP3    H180380   3.041   0.336  10.794  1.0455 -1.7833  0.5125
19655TIP3    H280381   3.134   0.447  10.838 -0.7965 -0.1065  0.3286
19656TIP3   OH280382   4.032   1.857   6.477  0.4450 -0.2950 -0.2236
19656TIP3    H180383   4.041   1.806   6.558 -0.3071 -0.3919 -0.1908
19656TIP3    H280384   3.970   1.807   6.424 -1.3731  1.2191  0.3622
19657TIP3   OH280385   4.129   2.101   4.704 -0.0161  0.0710 -0.6118
19657TIP3    H180386   4.137   2.115   4.610  0.8638  0.6517 -0.4643
19657TIP3    H280387   4.042   2.133   4.726  0.7125  2.3954 -0.8338
19658TIP3   OH280388   1.308   1.476   1.000 -0.2608 -0.8145 -0.5385
19658TIP3    H180389   1.227   1.524   0.985 -0.6448 -1.0580  0.6674
19658TIP3    H280390   1.293   1.390   0.960 -0.7141 -0.9665 -0.0405
19659TIP3   OH280391   2.189   3.244   3.820  0.2899 -0.1972 -0.3626
19659TIP3    H180392   2.250   3.181   3.859  0.8915  0.8416  0.4262
19659TIP3    H280393   2.103   3.218   3.853  0.3844 -1.1941 -0.8492
19660TIP3   OH280394   5.743   0.528   4.331  0.0669 -0.4004 -0.1017
19660TIP3    H180395   5.650   0.518   4.311  0.0085  1.3257 -0.8481
19660TIP3    H280396   5.750   0.512   4.425 -0.7237 -2.0286 -0.2818
19661TIP3   OH280397   3.647   0.023  16.076  0.0697 -0.0275 -0.0015
19661TIP3    H180398   3.609  -0.032  16.144  1.5565 -2.6400 -1.0932
19661TIP3    H280399   3.574   0.042  16.017 -0.9132  1.0161  1.4887
19662TIP3   OH280400   2.037   6.225  14.700  0.0981 -0.2580  0.3271
19662TIP3    H180401   2.097   6.284  14.745 -0.1185  0.5165 -0.3740
19662TIP3    H280402   2.025   6.152  14.760  1.6649 -0.3803  0.5090
19663TIP3   OH280403   3.560   5.907  14.179 -1.1104  0.0176  0.2577
19663TIP3    H180404   3.468   5.898  14.153 -1.6939 -1.6101  2.5029
19663TIP3    H280405   3.556   5.917  14.274  0.9895  1.6109  0.2321
19664TIP3   OH280406   3.059   4.851   4.229  0.2499  0.1124 -0.1330
19664TIP3    H180407   3.129   4.786   4.241 -0.0040 -0.4718 -1.6225
19664TIP3    H280408   3.105   4.931   4.204  0.4028 -0.2627 -1.0834
19665TIP3   OH280409   4.866   1.365  13.872 -0.1483 -0.2010 -0.0220
19665TIP3    H180410   4.835   1.456  13.875 -0.9464 -0.4572 -0.1503
19665TIP3    H280411   4.794   1.317  13.831  1.1243 -0.5611 -1.9531
19666TIP3   OH280412   2.881   1.888  16.749  0.0783 -0.0486 -0.4418
19666TIP3    H180413   2.914   1.804  16.781 -0.8255  0.1461  1.0493
19666TIP3    H280414   2.820   1.917  16.815 -1.1343  0.8598 -1.8938
19667TIP3   OH280415   0.024   6.326   4.123  0.3683  0.5393 -0.1452
19667TIP3    H180416  -0.006   6.411   4.091  0.5661 -0.0503 -1.9941
19667TIP3    H280417   0.037   6.274   4.044  0.2719 -1.2149  0.9532
19668TIP3   OH280418   4.324   6.097  13.238  0.0306  0.2182 -0.3383
19668TIP3    H180419   4.414   6.110  13.206  0.0267  1.2475  0.0340
19668TIP3    H280420   4.271   6.092  13.158  0.5102 -1.3891 -0.6048
19669TIP3   OH280421   0.765   2.256   1.160  0.0499 -0.5337 -0.2780
19669TIP3    H180422   0.737   2.172   1.196  0.0071 -0.4530 -0.1217
19669TIP3    H280423   0.843   2.279   1.212 -0.5573  0.0330  0.3993
19670TIP3   OH280424   4.637   1.160  10.977  0.0018 -0.3906 -0.4580
19670TIP3    H180425   4.679   1.087  11.021  1.5707  0.8964  0.2662
19670TIP3    H280426   4.582   1.200  11.045  1.7756  1.0903  0.1855
19671TIP3   OH280427   2.478   5.855   2.507 -0.1535  0.3955  0.2710
19671TIP3    H180428   2.498   5.949   2.501  0.6955  0.3951  2.2739
19671TIP3    H280429   2.383   5.850   2.494 -0.3067  1.6135  0.7742
19672TIP3   OH280430   0.904   1.860  15.822  0.1561 -0.3036  0.0472
19672TIP3    H180431   0.859   1.933  15.864  0.3198 -0.0449 -0.2237
19672TIP3    H280432   0.846   1.785  15.835 -0.3664  0.0288 -0.3269
19673TIP3   OH280433   3.680   3.865  15.876  0.3660 -0.0016  0.1074
19673TIP3    H180434   3.628   3.791  15.906 -0.7166  0.5308 -0.4143
19673TIP3    H280435   3.668   3.868  15.782 -2.3302  2.7400  0.3733
19674TIP3   OH280436   0.309   1.241  13.381  0.5687 -0.5367 -0.1175
19674TIP3    H180437   0.325   1.147  13.392  0.5127 -0.4420  0.8214
19674TIP3    H280438   0.323   1.256  13.288  2.9700 -1.0103  0.0985
19675TIP3   OH280439   0.485   6.587   2.822  0.5659 -0.1227  0.3544
19675TIP3    H180440   0.474   6.495   2.797  0.0688 -0.0445  0.2591
19675TIP3    H280441   0.400   6.627   2.802  0.4641  0.1449  1.3023
19676TIP3   OH280442   6.535   0.387   0.369  0.1805  0.2814 -0.1645
19676TIP3    H180443   6.505   0.307   0.325  1.0970  0.6634 -1.5535
19676TIP3    H280444   6.588   0.432   0.303 -0.5846  2.2189  0.4677
19677TIP3   OH280445   2.392   1.917   1.407  0.2278 -0.1756 -0.0837
19677TIP3    H180446   2.353   1.830   1.420 -0.4406  0.3697  2.0513
19677TIP3    H280447   2.318   1.977   1.416  0.7691  0.6426 -1.0407
19678TIP3   OH280448   1.018   5.038  14.443 -0.2071  0.1220 -0.4327
19678TIP3    H180449   0.950   4.978  14.475  0.2894  0.8365  2.2304
19678TIP3    H280450   1.099   5.004  14.481  0.2035  1.9528  0.4049
19679TIP3   OH280451   5.215   0.614   1.928  0.0439  0.3596  0.4981
19679TIP3    H180452   5.230   0.630   2.021 -2.5475  1.6662  0.7920
19679TIP3    H280453   5.227   0.699   1.886 -0.4079  0.1392 -0.1016
19680TIP3   OH280454   5.020   2.476  15.900 -0.0712 -0.4961  0.2725
19680TIP3    H180455   5.016   2.497  15.994 -1.4724 -2.1353  0.6281
19680TIP3    H280456   4.959   2.538  15.860  1.1448  0.7716  0.2710
19681TIP3   OH280457   1.105   3.235  16.110 -0.0845 -0.1760 -0.4162
19681TIP3    H180458   1.110   3.274  16.023 -0.4744  0.2214 -0.2661
19681TIP3    H280459   1.064   3.150  16.096  0.8539 -0.5868 -0.7609
19682TIP3   OH280460   1.337   1.301  14.972  0.1343 -0.1221 -0.1758
19682TIP3    H180461   1.325   1.330  15.062 -0.1523  1.4328 -0.6935
19682TIP3    H280462   1.310   1.375  14.919  3.0353  0.0776 -1.5530
19683TIP3   OH280463   0.410   3.205  15.140  0.1696  0.3711  1.0800
19683TIP3    H180464   0.424   3.112  15.157  0.1004  0.0857 -0.3129
19683TIP3    H280465   0.315   3.217  15.148 -0.0837 -0.1331 -0.6799
19684TIP3   OH280466   2.898   4.831   1.862  0.2165  0.0970 -0.7601
19684TIP3    H180467   2.830   4.892   1.834 -1.5409 -1.9579 -1.3070
19684TIP3    H280468   2.883   4.818   1.955 -0.4386 -0.6381 -0.9534
19685TIP3   OH280469   1.269   0.217   0.200  0.5477 -0.6167  0.5554
19685TIP3    H180470   1.187   0.196   0.246 -1.0700  0.6504 -1.5507
19685TIP3    H280471   1.302   0.295   0.245 -0.2545 -0.2186  0.4781
19686TIP3   OH280472   4.993   4.809  10.989  0.0192 -0.2279 -0.6592
19686TIP3    H180473   4.911   4.761  10.981  0.5129 -1.2579  0.1974
19686TIP3    H280474   5.029   4.812  10.900 -0.8266  0.0402 -0.9973
19687TIP3   OH280475   3.418   6.507  15.748  0.3344 -0.1934  0.0255
19687TIP3    H180476   3.495   6.495  15.804  0.3775 -0.5053 -0.0992
19687TIP3    H280477   3.372   6.581  15.788  1.1853  0.6162 -0.4490
19688TIP3   OH280478   5.834   6.184  15.515  0.1544  0.7826 -0.2623
19688TIP3    H180479   5.912   6.151  15.470 -0.2708  0.6835 -0.9472
19688TIP3    H280480   5.785   6.230  15.446  0.3867  2.2491  0.4965
19689TIP3   OH280481   0.690   3.641  16.601  0.1718 -0.3756 -0.5274
19689TIP3    H180482   0.600   3.648  16.633  0.4388  0.9254  0.0045
19689TIP3    H280483   0.696   3.553  16.565 -1.8947  0.1825 -2.4131
19690TIP3   OH280484   6.621   3.126   4.890  0.4113  0.5569 -0.5372
19690TIP3    H180485   6.579   3.049   4.926  2.2492  0.3644  1.3833
19690TIP3    H280486   6.549   3.185   4.867 -1.0480 -1.7495 -2.3111
19691TIP3   OH280487   0.846   5.462  13.053 -0.0556 -1.0198  0.0028
19691TIP3    H180488   0.900   5.409  13.112 -0.0889 -2.6521 -1.3594
19691TIP3    H280489   0.908   5.498  12.990 -0.1687 -0.2277  0.3341
19692TIP3   OH280490   3.425   6.713  14.932 -0.0189 -0.9451 -0.6976
19692TIP3    H180491   3.458   6.766  15.005 -2.6502 -1.2766  0.8570
19692TIP3    H280492   3.435   6.769  14.855  1.3372  0.0573  0.1622
19693TIP3   OH280493   2.628   5.049   0.455  0.7397  0.4709 -0.0911
19693TIP3    H180494   2.723   5.042   0.465  1.0846 -0.1220 -2.8951
19693TIP3    H280495   2.615   5.126   0.401 -0.4103  0.6862  0.4610
19694TIP3   OH280496   4.943   1.566  12.690 -0.1766  0.2476  0.2887
19694TIP3    H180497   4.913   1.591  12.778  0.2201 -1.5204  0.9532
19694TIP3    H280498   5.038   1.559  12.697  0.0984  2.0620 -0.8414
19695TIP3   OH280499   4.382   0.351  13.758 -0.1641 -0.4188 -0.1335
19695TIP3    H180500   4.432   0.428  13.732 -0.5245  0.6238  2.0257
19695TIP3    H280501   4.448   0.289  13.789 -0.0160 -0.0087  0.3939
19696TIP3   OH280502   5.724   4.731  12.249  0.0174 -0.3158 -0.4718
19696TIP3    H180503   5.750   4.821  12.271  0.6987 -1.0060  1.7581
19696TIP3    H280504   5.628   4.732  12.257  0.0951 -0.0321  0.6969
19697TIP3   OH280505   2.605   4.681   0.355  0.4533 -0.4409 -0.0052
19697TIP3    H180506   2.661   4.617   0.399  2.4255  0.5980 -0.8606
19697TIP3    H280507   2.526   4.685   0.409  1.8512 -0.8022  2.1841
19698TIP3   OH280508   5.865   0.613   5.525  0.6468 -0.5069  0.1529
19698TIP3    H180509   5.876   0.562   5.444  3.8471  1.2703 -0.6920
19698TIP3    H280510   5.844   0.547   5.591 -0.7132 -2.1996 -1.8175
19699TIP3   OH280511   1.411   2.060   3.967 -0.4157 -0.1384  0.2973
19699TIP3    H180512   1.375   2.004   3.897 -1.6986  0.3449  0.5349
19699TIP3    H280513   1.346   2.054   4.037 -0.2596  1.1357  0.5706
19700TIP3   OH280514   2.593   5.315  15.865 -0.2393 -0.1524  0.7176
19700TIP3    H180515   2.617   5.271  15.946  2.7307 -1.3346 -0.6866
19700TIP3    H280516   2.548   5.248  15.813 -0.9432  0.2259  0.8166
19701TIP3   OH280517   4.601   4.824   5.842 -0.3381 -0.1663  0.5197
19701TIP3    H180518   4.660   4.871   5.783  0.3754 -0.4603  0.9836
19701TIP3    H280519   4.578   4.887   5.910 -0.5461 -0.0554  0.3460
19702TIP3   OH280520   0.410   3.463   1.343 -0.0851 -0.0582 -0.3338
19702TIP3    H180521   0.497   3.449   1.380 -0.4600 -1.9096 -0.0348
19702TIP3    H280522   0.425   3.517   1.265  1.4232 -0.9493 -0.6908
19703TIP3   OH280523   1.885   6.341  15.995  0.1252 -0.2531  0.0882
19703TIP3    H180524   1.893   6.311  16.086  1.7672 -1.3932 -0.3840
19703TIP3    H280525   1.797   6.314  15.968 -0.9865  1.4628  1.7765
19704TIP3   OH280526   0.322   5.552   4.280  0.2690  0.0234  0.1180
19704TIP3    H180527   0.362   5.511   4.204  1.7419  0.9394  0.3603
19704TIP3    H280528   0.230   5.564   4.256  0.2106 -1.7159 -0.6382
19705TIP3   OH280529   2.374   4.844   1.173 -0.0651 -0.1597  0.0899
19705TIP3    H180530   2.376   4.916   1.236  2.4520 -0.7495  0.7913
19705TIP3    H280531   2.284   4.812   1.177 -0.4831  1.0523  1.9584
19706TIP3   OH280532   5.163   2.217  11.418 -0.0645  0.4019  0.4208
19706TIP3    H180533   5.157   2.247  11.328  1.0096  1.8722  0.7953
19706TIP3    H280534   5.092   2.263  11.463  0.1131  0.5674  0.5353
19707TIP3   OH280535   1.582   5.331   1.244  0.3247  0.2473  0.2360
19707TIP3    H180536   1.635   5.410   1.233  0.9829 -0.0653  1.0774
19707TIP3    H280537   1.579   5.292   1.156 -0.3255  1.3868 -0.2736
19708TIP3   OH280538   4.881   0.228  15.826  0.0405  0.2694  0.1005
19708TIP3    H180539   4.881   0.249  15.732  2.0564  1.1772  0.2674
19708TIP3    H280540   4.806   0.277  15.861 -1.5800 -1.1485 -1.2029
19709TIP3   OH280541   0.376   2.442   2.384 -0.2409 -0.3750  0.0567
19709TIP3    H180542   0.359   2.528   2.347 -0.0227  0.0384  0.8980
19709TIP3    H280543   0.294   2.393   2.370 -0.9573  0.5059  1.0756
19710TIP3   OH280544   1.798   4.002  15.908  0.2666 -0.2302 -0.2352
19710TIP3    H180545   1.766   4.068  15.846 -1.2755  0.3025  1.0690
19710TIP3    H280546   1.737   4.006  15.981  0.8368 -2.2984  0.4189
19711TIP3   OH280547   4.787   3.883  14.476  0.0349  0.4864  0.1836
19711TIP3    H180548   4.829   3.817  14.530 -0.7336  0.9491  1.3773
19711TIP3    H280549   4.846   3.894  14.401  1.1600 -0.1053  0.9622
19712TIP3   OH280550   4.773   3.340   5.131 -0.2010  0.3265  0.1029
19712TIP3    H180551   4.849   3.365   5.079 -0.0396  0.7958  0.5562
19712TIP3    H280552   4.747   3.420   5.176  0.9735 -0.4784  2.3989
19713TIP3   OH280553   3.654   6.213   2.930 -0.2836  0.2529 -0.1150
19713TIP3    H180554   3.603   6.216   3.011 -0.0385  3.2537  0.0410
19713TIP3    H280555   3.659   6.119   2.908 -1.7317 -0.5167  2.4225
19714TIP3   OH280556   0.042   4.295  17.140  0.1506 -0.2562  0.6037
19714TIP3    H180557   0.047   4.345  17.222  0.8298 -0.5901  0.7715
19714TIP3    H280558  -0.048   4.263  17.138  0.2261 -0.5504  1.4134
19715TIP3   OH280559   2.352   5.084   5.557  0.6052 -0.5007 -0.3236
19715TIP3    H180560   2.391   5.140   5.624 -0.0176 -0.3087 -0.1103
19715TIP3    H280561   2.259   5.107   5.558  0.1077 -2.3693  0.6002
19716TIP3   OH280562   1.058   1.705  14.821 -0.3423  0.2426  0.1739
19716TIP3    H180563   1.106   1.625  14.800 -0.2069  0.2268  0.5322
19716TIP3    H280564   1.049   1.751  14.738  2.2760  1.3455  0.3982
19717TIP3   OH280565   4.000   4.576  16.466 -0.3208  1.0008  0.8159
19717TIP3    H180566   4.039   4.506  16.518 -1.7888  0.6366  1.4828
19717TIP3    H280567   4.074   4.621  16.427  0.6472 -1.6760 -0.6488
19718TIP3   OH280568   2.914   3.649   6.005  0.4546 -0.4968 -0.1382
19718TIP3    H180569   2.898   3.692   6.089  0.0546  0.4341 -0.6853
19718TIP3    H280570   2.881   3.560   6.017 -1.0904  0.0875  0.1856
19719TIP3   OH280571   5.197   0.094  15.048  0.5614 -0.0705  0.0216
19719TIP3    H180572   5.258   0.075  14.977  0.2971  0.4248 -0.3407
19719TIP3    H280573   5.246   0.076  15.128  0.6562 -1.2722 -0.2907
19720TIP3   OH280574   4.951   1.991  13.851 -0.5734  0.4318 -0.1983
19720TIP3    H180575   4.982   2.057  13.913  0.6483 -0.7679  0.5063
19720TIP3    H280576   5.025   1.976  13.792 -0.6860 -0.5823 -0.1027
19721TIP3   OH280577   6.647   1.124  15.732 -0.7356 -0.2369  0.0971
19721TIP3    H180578   6.659   1.192  15.666 -0.9457 -0.5445 -0.2686
19721TIP3    H280579   6.562   1.085  15.710  0.1832 -1.8461 -0.8694
19722TIP3   OH280580   3.419   1.937   5.615 -0.4768 -0.1828  0.7185
19722TIP3    H180581   3.339   1.942   5.667 -0.3052 -0.8428  1.0594
19722TIP3    H280582   3.444   2.029   5.602 -1.4027  0.0389  0.4123
19723TIP3   OH280583   1.194   1.671  11.977  0.1386 -0.0332  0.3727
19723TIP3    H180584   1.141   1.718  11.912  0.2683  1.6039  1.3771
19723TIP3    H280585   1.202   1.733  12.050  2.4606 -0.6482  0.7370
19724TIP3   OH280586   3.127   4.041   2.489  0.2149 -0.4270  0.2706
19724TIP3    H180587   3.130   4.059   2.583 -0.0713 -1.0300  0.4032
19724TIP3    H280588   3.088   4.120   2.451 -1.2656 -0.8287  0.8608
19725TIP3   OH280589   4.558   0.536   1.526 -0.0817 -0.2139 -0.0972
19725TIP3    H180590   4.519   0.453   1.498  0.6703 -0.6482  0.1193
19725TIP3    H280591   4.621   0.511   1.593 -0.5685  0.6393  0.7003
19726TIP3   OH280592   1.392   4.500   2.244 -0.5660 -0.0563  0.3146
19726TIP3    H180593   1.387   4.427   2.183 -4.0564 -0.1139  0.4472
19726TIP3    H280594   1.339   4.472   2.319 -1.6400  2.3685  0.5540
19727TIP3   OH280595   2.230   1.662   3.778  0.1174 -0.4850 -0.3657
19727TIP3    H180596   2.249   1.752   3.802  0.8973 -1.2141  2.0684
19727TIP3    H280597   2.247   1.658   3.684  0.7640  1.7163 -0.3966
19728TIP3   OH280598   3.712   5.494  16.012 -0.1879 -0.0187 -0.0861
19728TIP3    H180599   3.736   5.402  16.003 -0.1794 -0.0003 -0.2493
19728TIP3    H280600   3.616   5.494  16.011 -0.1870  0.0952 -1.3206
19729TIP3   OH280601   3.894   6.591   3.298 -0.0887  0.3688  0.2277
19729TIP3    H180602   3.892   6.600   3.203  0.5486  0.0668  0.1814
19729TIP3    H280603   3.945   6.666   3.329 -1.8246  1.4930  0.4846
19730TIP3   OH280604   4.963   0.657   1.109  0.0684  0.5600  0.5678
19730TIP3    H180605   4.921   0.626   1.190  0.4587 -1.1944  0.1479
19730TIP3    H280606   4.944   0.587   1.045 -0.2544  1.9134 -0.8766
19731TIP3   OH280607   2.443   6.161  11.538  0.0905 -0.2179 -0.0137
19731TIP3    H180608   2.397   6.221  11.596  0.4222 -1.4056  1.5604
19731TIP3    H280609   2.374   6.104  11.503 -0.0989  0.4325 -0.7021
19732TIP3   OH280610   2.912   4.336  12.302 -0.0027  0.0966  0.2411
19732TIP3    H180611   2.895   4.345  12.208  1.3517 -2.9943 -0.4064
19732TIP3    H280612   3.003   4.308  12.308 -0.7685 -2.3154  2.2666
19733TIP3   OH280613   2.958   3.371   3.498 -0.3439  0.2666 -0.0637
19733TIP3    H180614   3.029   3.341   3.555 -0.2614  0.4247 -0.0817
19733TIP3    H280615   2.962   3.466   3.503 -0.1996  0.2870 -0.4985
19734TIP3   OH280616   0.312   1.564  12.186 -0.2394  0.0590 -0.2204
19734TIP3    H180617   0.403   1.542  12.204  0.2039  0.4149 -1.9167
19734TIP3    H280618   0.288   1.510  12.112 -1.4811 -0.1472  0.3014
19735TIP3   OH280619   3.850   4.357   2.100 -1.1048 -0.2688  0.7644
19735TIP3    H180620   3.899   4.417   2.044  0.8259 -0.3628  2.2492
19735TIP3    H280621   3.852   4.273   2.054 -1.4831  0.1651 -0.0525
19736TIP3   OH280622   4.951   3.585  16.052 -0.1803  0.1146  0.3421
19736TIP3    H180623   4.875   3.545  16.093 -0.8738  1.3109  0.2774
19736TIP3    H280624   5.014   3.514  16.042 -1.1009 -0.7879  0.8462
19737TIP3   OH280625   0.648   5.273  13.036 -1.0109 -0.2523  0.8739
19737TIP3    H180626   0.585   5.320  12.981 -0.7494 -0.8650  0.0230
19737TIP3    H280627   0.728   5.325  13.031 -0.4222 -1.2404 -0.8634
19738TIP3   OH280628   1.581   5.436   5.695  0.3556  0.5262  0.2795
19738TIP3    H180629   1.553   5.346   5.680  0.8100  0.4637 -0.2134
19738TIP3    H280630   1.608   5.438   5.787 -0.6039  0.4185  0.5726
19739TIP3   OH280631   6.304   6.318   3.573  0.7940  0.3940 -0.1453
19739TIP3    H180632   6.325   6.262   3.498  1.4840  1.1950 -0.5604
19739TIP3    H280633   6.292   6.405   3.536 -0.6714  0.4636  0.4447
19740TIP3   OH280634   5.979   6.148   2.271  0.1696  0.2268  0.2341
19740TIP3    H180635   5.991   6.233   2.315 -0.9876 -0.1577  1.3635
19740TIP3    H280636   5.888   6.150   2.241  0.5091 -0.1332 -0.8420
19741TIP3   OH280637   5.802   3.212   5.265 -0.3320  0.5326 -0.4245
19741TIP3    H180638   5.887   3.178   5.293 -0.2512 -0.1448 -1.4069
19741TIP3    H280639   5.738   3.156   5.310 -0.2638  0.9597  0.2147
19742TIP3   OH280640   2.610   0.097  16.829 -0.2349  0.1539  0.0313
19742TIP3    H180641   2.599   0.003  16.813  2.5586 -0.3511  0.5099
19742TIP3    H280642   2.671   0.101  16.902  0.6187  2.3587 -0.7388
19743TIP3   OH280643   3.272   1.212   2.937 -0.4665 -0.3775 -0.0023
19743TIP3    H180644   3.345   1.150   2.941  0.8801  1.1863  0.3592
19743TIP3    H280645   3.227   1.200   3.021 -1.5796 -2.3823 -0.8015
19744TIP3   OH280646   2.163   1.932   0.366  0.5160  0.2961 -0.3403
19744TIP3    H180647   2.147   1.956   0.274  0.3783  1.5771 -0.0005
19744TIP3    H280648   2.242   1.981   0.389  0.2029  0.4613  0.3965
19745TIP3   OH280649   0.856   5.262   4.139  0.0237 -0.1938 -0.0928
19745TIP3    H180650   0.891   5.297   4.221 -1.3202 -0.2186  0.5234
19745TIP3    H280651   0.817   5.338   4.096  0.5399 -0.2217 -0.6303
19746TIP3   OH280652   0.968   4.852   3.769 -0.3468  0.0533  0.6934
19746TIP3    H180653   0.931   4.840   3.856 -1.1462 -1.7320  0.1390
19746TIP3    H280654   1.056   4.886   3.786 -0.6701  0.2473  2.1583
19747TIP3   OH280655   2.265   6.112   4.158  0.0775  0.8342  0.3440
19747TIP3    H180656   2.184   6.078   4.118  1.2497 -1.8317  0.0146
19747TIP3    H280657   2.280   6.055   4.233  0.5799  2.6617  1.7094
19748TIP3   OH280658   3.449   0.626  16.167 -0.3709 -0.1133  0.4347
19748TIP3    H180659   3.493   0.590  16.244 -1.0033 -1.9534  0.0048
19748TIP3    H280660   3.363   0.653  16.199 -0.3543 -0.1616  0.5202
19749TIP3   OH280661   6.393   1.505  15.271 -0.0213  0.0001 -0.0937
19749TIP3    H180662   6.419   1.417  15.298  2.0800  0.9596  1.3582
19749TIP3    H280663   6.449   1.563  15.323 -2.7987  2.2764  0.6507
19750TIP3   OH280664   2.120   3.603  14.871 -0.0525 -0.1360  0.4933
19750TIP3    H180665   2.055   3.607  14.940 -1.0700 -1.0527 -0.3723
19750TIP3    H280666   2.113   3.514  14.836 -0.5339  0.6823 -1.6762
19751TIP3   OH280667   5.850   5.428  13.799  0.1232 -0.3877 -0.4724
19751TIP3    H180668   5.795   5.504  13.819  1.1073  0.2399 -0.0891
19751TIP3    H280669   5.880   5.397  13.884  1.8657  0.4284 -0.7407
19752TIP3   OH280670   2.480   4.350   5.901 -0.3907 -0.2167 -0.1170
19752TIP3    H180671   2.449   4.302   5.824 -0.9182 -0.6323  0.3462
19752TIP3    H280672   2.509   4.435   5.867  1.8320 -1.3053 -1.1615
19753TIP3   OH280673   2.008   3.563  16.509  0.1593  0.2826 -0.7613
19753TIP3    H180674   2.016   3.652  16.475 -1.1697  0.1960 -1.4009
19753TIP3    H280675   2.097   3.537  16.530  0.3719  2.8019  2.2639
19754TIP3   OH280676   5.251   5.521  11.675  0.1302 -0.1235 -0.0712
19754TIP3    H180677   5.272   5.473  11.755  1.5427  1.9215  0.8469
19754TIP3    H280678   5.304   5.478  11.608 -0.3550 -1.2594  0.2470
19755TIP3   OH280679   2.337   0.336  13.648  0.0870 -0.5042 -0.1738
19755TIP3    H180680   2.363   0.247  13.623  1.3586  0.2018 -1.5025
19755TIP3    H280681   2.295   0.372  13.570  1.5761  0.7870 -0.4265
19756TIP3   OH280682   0.971   0.999  12.072  0.1609  0.0106  0.0477
19756TIP3    H180683   0.949   0.969  12.160 -0.4910  0.2498 -0.0245
19756TIP3    H280684   1.006   0.922  12.028 -1.2319 -0.5959 -0.0514
19757TIP3   OH280685   5.458   4.565  17.394 -0.2698  0.3737 -0.5381
19757TIP3    H180686   5.513   4.639  17.420  1.1953 -0.3807 -1.4011
19757TIP3    H280687   5.490   4.491  17.445 -0.4008 -0.1112 -1.1523
19758TIP3   OH280688   6.373   0.616   4.796 -0.1990  0.0372  0.2528
19758TIP3    H180689   6.375   0.616   4.700  0.7174 -0.8772  0.2578
19758TIP3    H280690   6.363   0.708   4.820 -1.3607  0.1881 -0.7218
19759TIP3   OH280691   1.578   6.517   4.987  0.5809 -0.0882  0.4214
19759TIP3    H180692   1.656   6.469   4.961  0.1329 -0.3679 -0.4605
19759TIP3    H280693   1.521   6.514   4.910 -0.3609 -0.0138  1.0867
19760TIP3   OH280694   5.463   0.257  16.827  0.3445 -0.3757 -0.0047
19760TIP3    H180695   5.526   0.312  16.874 -0.0428  0.1559 -0.1145
19760TIP3    H280696   5.436   0.192  16.892  0.4612 -0.1680  0.2523
19761TIP3   OH280697   3.994   6.267   3.280  0.4196 -0.0899  0.3667
19761TIP3    H180698   3.948   6.335   3.232 -1.1345 -1.4193 -0.0955
19761TIP3    H280699   4.037   6.314   3.352 -0.1234  1.4413 -0.2618
19762TIP3   OH280700   2.685   2.895   5.426  0.2244 -0.0870  0.1118
19762TIP3    H180701   2.644   2.908   5.341  1.5580 -1.0938 -0.7235
19762TIP3    H280702   2.713   2.803   5.425 -2.0422 -0.9664  2.6826
19763TIP3   OH280703   1.447   2.960   4.596 -0.3720  0.2171 -0.2229
19763TIP3    H180704   1.447   3.050   4.627  1.1090  0.1690 -0.0325
19763TIP3    H280705   1.461   2.907   4.675  1.1134 -0.0291 -0.6163
19764TIP3   OH280706   5.630   1.116   2.541  0.6562 -0.5118  0.2547
19764TIP3    H180707   5.646   1.210   2.550  1.0110 -0.4251 -1.0822
19764TIP3    H280708   5.543   1.103   2.580  0.1978  0.5371 -0.3652
19765TIP3   OH280709   4.828   4.585   4.620  0.2958 -0.2043  0.0009
19765TIP3    H180710   4.842   4.575   4.714 -0.0118 -0.5814  0.0109
19765TIP3    H280711   4.781   4.506   4.594 -1.1131  0.6635 -0.1672
19766TIP3   OH280712   0.297   1.193   1.523 -0.3199  0.6424  0.1476
19766TIP3    H180713   0.234   1.140   1.474  0.7672 -0.2896 -0.3000
19766TIP3    H280714   0.243   1.252   1.576 -1.5458  1.5309 -1.9641
19767TIP3   OH280715   4.654   0.955  17.278 -0.4004 -0.6877  0.0312
19767TIP3    H180716   4.614   1.035  17.312  3.2851  1.0593  0.6648
19767TIP3    H280717   4.656   0.968  17.183  1.4940  0.7512  0.2163
19768TIP3   OH280718   1.512   3.683  12.681  0.6557  0.1747  0.3398
19768TIP3    H180719   1.420   3.662  12.664  0.6237  0.2395  0.4276
19768TIP3    H280720   1.561   3.617  12.633  0.5866  0.7254 -0.5111
19769TIP3   OH280721   1.615   4.367   2.350  0.5063  0.0611  1.2394
19769TIP3    H180722   1.558   4.438   2.319 -1.2687 -2.2739 -1.4039
19769TIP3    H280723   1.670   4.347   2.274 -1.1426 -3.2468  0.7415
19770TIP3   OH280724   4.793   4.969   4.385  0.2168 -0.4266  0.6097
19770TIP3    H180725   4.732   4.904   4.419 -1.4859  0.8244  0.1499
19770TIP3    H280726   4.789   4.958   4.290  1.6332 -1.0896  0.6090
19771TIP3   OH280727   1.964   1.689  17.330  0.4773 -0.0654  0.3040
19771TIP3    H180728   1.937   1.730  17.248  1.2341 -1.7764 -0.8514
19771TIP3    H280729   1.891   1.704  17.390  0.0465  1.4875 -0.5618
19772TIP3   OH280730   0.207   0.477   0.056 -0.5385  0.1437 -0.6504
19772TIP3    H180731   0.178   0.405   0.112  0.5580 -0.8901 -1.3587
19772TIP3    H280732   0.132   0.494  -0.002 -0.4650 -1.1537 -1.1645
19773TIP3   OH280733   2.898   2.642   0.569  0.1203  0.3387 -0.7549
19773TIP3    H180734   2.813   2.600   0.582  0.0865  0.1370 -1.6052
19773TIP3    H280735   2.937   2.643   0.657 -0.5330 -0.0377 -0.4487
19774TIP3   OH280736   5.229   5.846  14.155 -0.0633 -0.4113 -0.1743
19774TIP3    H180737   5.143   5.888  14.145 -0.1946 -0.2485  1.3240
19774TIP3    H280738   5.292   5.912  14.126 -0.4066 -0.2842 -0.6401
19775TIP3   OH280739   1.802   5.472   0.635 -0.4560  0.3632 -0.2859
19775TIP3    H180740   1.890   5.435   0.642 -0.5563 -0.0583 -1.2029
19775TIP3    H280741   1.746   5.399   0.609 -0.6965  1.0766 -1.9042
19776TIP3   OH280742   5.308   0.351  15.325 -0.2107  0.0261  0.1095
19776TIP3    H180743   5.349   0.270  15.296  1.2820  1.2444 -1.3778
19776TIP3    H280744   5.371   0.389  15.386  0.3450  1.2677 -1.1789
19777TIP3   OH280745   4.341   2.868   0.550 -0.5886  0.2329 -0.0618
19777TIP3    H180746   4.260   2.817   0.561 -0.5989  0.4243  0.7986
19777TIP3    H280747   4.314   2.943   0.498 -0.8535  0.0262 -0.2279
19778TIP3   OH280748   5.806   6.491   4.798 -0.1037  0.5710 -0.0072
19778TIP3    H180749   5.870   6.535   4.742 -1.5244  0.5227 -1.7807
19778TIP3    H280750   5.789   6.408   4.755  0.1212 -0.3167  1.5460
19779TIP3   OH280751   5.165   5.996   2.105 -0.4407 -0.2130  0.0581
19779TIP3    H180752   5.241   6.053   2.115 -0.1891 -0.3791 -0.8057
19779TIP3    H280753   5.200   5.915   2.069 -0.9973 -0.3729 -0.1377
19780TIP3   OH280754   4.863   1.564  16.016 -0.1863 -0.1007 -0.1615
19780TIP3    H180755   4.792   1.575  16.080  0.4632 -0.0275  0.5619
19780TIP3    H280756   4.833   1.493  15.960 -2.0254  1.6858 -1.5618
19781TIP3   OH280757   1.775   1.423   3.973 -0.0430 -0.4388 -0.5193
19781TIP3    H180758   1.855   1.429   4.026 -0.9527 -0.4820  0.9067
19781TIP3    H280759   1.803   1.447   3.885  1.3999  0.2551  0.0939
19782TIP3   OH280760   5.719   1.356  14.063  0.3401 -0.1605 -0.5752
19782TIP3    H180761   5.783   1.286  14.055 -0.9701 -1.2768 -1.9438
19782TIP3    H280762   5.696   1.378  13.972  0.0761  1.4524 -0.1619
19783TIP3   OH280763   1.645   4.543   5.455 -0.2846 -0.0141  0.3658
19783TIP3    H180764   1.723   4.594   5.434 -0.0849 -0.3983  0.1605
19783TIP3    H280765   1.625   4.566   5.545 -0.8195  1.2261 -0.0508
19784TIP3   OH280766   2.656   4.327   4.406 -0.7729 -0.1005  0.4252
19784TIP3    H180767   2.608   4.281   4.337 -0.6772 -0.4317  0.5790
19784TIP3    H280768   2.694   4.403   4.362  1.6738 -1.7712 -0.5890
19785TIP3   OH280769   3.985   5.346  11.863 -0.0073 -0.0477 -0.4368
19785TIP3    H180770   4.079   5.331  11.878  0.4345  0.6828 -2.2339
19785TIP3    H280771   3.942   5.306  11.939  1.8420  1.0266  1.2929
19786TIP3   OH280772   5.870   0.339  14.593 -0.5339 -0.5328  0.5095
19786TIP3    H180773   5.947   0.300  14.636  1.9998  2.2527 -1.0773
19786TIP3    H280774   5.842   0.407  14.653  0.4793  0.6996 -0.3545
19787TIP3   OH280775   1.774   3.245   4.605 -0.3055  0.2799 -0.3909
19787TIP3    H180776   1.795   3.184   4.676  1.5815 -1.2393 -2.1108
19787TIP3    H280777   1.853   3.299   4.596 -0.3740  0.2182 -1.5291
19788TIP3   OH280778   3.523   4.993   2.458  0.2545 -0.3448 -0.2252
19788TIP3    H180779   3.542   4.901   2.441  2.0737 -0.7593  3.1058
19788TIP3    H280780   3.581   5.016   2.531 -0.5235  3.3136 -0.5681
19789TIP3   OH280781   2.749   1.096  15.047 -0.3893 -0.1877  0.3199
19789TIP3    H180782   2.694   1.025  15.013  0.3344 -0.9427  0.6931
19789TIP3    H280783   2.688   1.168  15.061 -1.4216 -1.2114  1.3600
19790TIP3   OH280784   0.099   4.106   1.547  0.3284  0.2212  0.1448
19790TIP3    H180785   0.165   4.047   1.511  0.0860 -0.9410  1.5115
19790TIP3    H280786   0.107   4.186   1.495  2.2599 -0.1755 -0.2381
19791TIP3   OH280787   4.020   5.885   1.121  0.5963  0.2236  0.4870
19791TIP3    H180788   3.926   5.894   1.104  0.2027 -2.2329  0.9249
19791TIP3    H280789   4.062   5.923   1.044 -0.8210 -0.4773 -0.6927
19792TIP3   OH280790   2.200   6.221   0.559 -0.0331  0.7684 -0.5905
19792TIP3    H180791   2.282   6.269   0.545  0.3754  0.8210  1.6976
19792TIP3    H280792   2.212   6.140   0.509  0.2605  1.9094 -2.4974
19793TIP3   OH280793   2.382   5.838   5.523  0.7130  0.4008 -0.0103
19793TIP3    H180794   2.393   5.933   5.516  0.0848  0.5435  0.6981
19793TIP3    H280795   2.469   5.804   5.544  0.9682  0.7995 -0.4143
19794TIP3   OH280796   5.412   1.428  13.635  0.0612 -0.2255  0.7204
19794TIP3    H180797   5.424   1.457  13.726 -1.0748  0.7448  0.5897
19794TIP3    H280798   5.362   1.347  13.642 -0.3587  0.0477  0.9696
19795TIP3   OH280799   2.563   3.335  12.378 -0.8715  0.7342 -0.2809
19795TIP3    H180800   2.566   3.239  12.383  1.5359  0.5195 -3.0669
19795TIP3    H280801   2.645   3.363  12.419 -0.5854  1.4143 -1.2884
19796TIP3   OH280802   3.144   5.015   3.950 -0.2803 -0.7127  0.2656
19796TIP3    H180803   3.113   5.061   4.028  1.1445  0.0473  0.4200
19796TIP3    H280804   3.233   5.048   3.937  0.1503 -2.1523 -0.6514
19797TIP3   OH280805   3.446   2.207   2.531 -0.2458  0.0441 -0.8655
19797TIP3    H180806   3.422   2.166   2.448  2.1416 -0.7216 -1.2776
19797TIP3    H280807   3.533   2.245   2.514  1.5123 -2.3015  1.8822
19798TIP3   OH280808   1.278   3.058   3.907 -0.0081 -0.4504  0.1987
19798TIP3    H180809   1.237   3.076   3.822 -1.0989  0.7173  0.9416
19798TIP3    H280810   1.328   2.977   3.893 -1.2325 -0.9984 -1.1894
19799TIP3   OH280811   0.454   6.555  11.055 -0.2362 -0.5422  0.0210
19799TIP3    H180812   0.488   6.564  11.144 -1.8272 -1.9600  0.8363
19799TIP3    H280813   0.361   6.578  11.062 -0.7633 -2.1709 -0.9058
19800TIP3   OH280814   1.905   2.115  15.992  0.4906  0.4838  0.1091
19800TIP3    H180815   1.824   2.064  15.989  0.5945  0.3447 -0.6821
19800TIP3    H280816   1.972   2.052  16.019  0.1313  0.9138  2.1864
19801TIP3   OH280817   3.314   2.747   0.324  0.0019 -0.0580 -0.7285
19801TIP3    H180818   3.314   2.651   0.319  1.1991 -0.3181  2.1933
19801TIP3    H280819   3.244   2.768   0.385  1.3109  0.6988  0.5702
19802TIP3   OH280820   4.064   0.750   2.438 -0.6194 -0.3535  0.1519
19802TIP3    H180821   3.991   0.744   2.377 -1.4685  2.0697  0.7909
19802TIP3    H280822   4.027   0.726   2.523 -0.7136  0.8346  0.4695
19803TIP3   OH280823   1.138   3.960   3.701 -0.3036  0.5960  0.3397
19803TIP3    H180824   1.142   3.954   3.606 -0.4540 -1.3643  0.4218
19803TIP3    H280825   1.100   4.046   3.718  0.9811  1.5518 -1.3132
19804TIP3   OH280826   1.703   3.811  16.319  0.1477  0.3790 -0.3848
19804TIP3    H180827   1.798   3.798  16.312  0.5761  2.2633  0.9810
19804TIP3    H280828   1.679   3.768  16.401 -0.3114 -0.5494 -0.9868
19805TIP3   OH280829   5.454   5.084   5.667  0.3192 -0.1696  0.3708
19805TIP3    H180830   5.449   5.077   5.762  1.4191 -0.4114  0.4237
19805TIP3    H280831   5.547   5.073   5.647  0.0079 -0.8791 -0.7886
19806TIP3   OH280832   3.985   3.261  13.958 -0.3721 -0.0918  0.2167
19806TIP3    H180833   3.964   3.354  13.956  1.6787  0.3996 -0.7710
19806TIP3    H280834   4.006   3.243  14.049 -0.5409  0.4547  0.3678
19807TIP3   OH280835   3.046   1.364  15.733  0.2505  0.2353  0.5981
19807TIP3    H180836   3.023   1.281  15.776 -1.8893  0.9508  0.9825
19807TIP3    H280837   3.057   1.340  15.640  4.0995 -1.1736  1.2159
19808TIP3   OH280838   1.875   5.428  12.109 -0.2210 -0.4732  0.7431
19808TIP3    H180839   1.920   5.458  12.031 -0.7700 -1.9403 -0.1726
19808TIP3    H280840   1.799   5.485  12.116 -1.3026 -1.6150 -1.0185
19809TIP3   OH280841   1.787   2.378  13.959 -0.2888 -0.2122 -0.0765
19809TIP3    H180842   1.814   2.339  13.876 -0.3424 -0.7368  0.1462
19809TIP3    H280843   1.720   2.442  13.935  0.5182  0.4787 -0.5475
19810TIP3   OH280844   4.352   1.498   4.208 -0.7174 -0.0791  0.1571
19810TIP3    H180845   4.341   1.444   4.130 -2.1243  0.1166  0.1811
19810TIP3    H280846   4.262   1.524   4.231 -0.0224  4.9928 -1.6934
19811TIP3   OH280847   6.286   2.174  12.251 -0.0804 -0.8198  0.0934
19811TIP3    H180848   6.230   2.103  12.283  0.5424 -1.5777 -0.4694
19811TIP3    H280849   6.375   2.143  12.266  0.2160  0.4860  1.2039
19812TIP3   OH280850   5.861   5.203  11.021  0.5911 -0.6170  0.9050
19812TIP3    H180851   5.830   5.124  10.976 -1.6736 -1.9710  4.4584
19812TIP3    H280852   5.956   5.192  11.026  0.4322 -2.6038  0.3914
19813TIP3   OH280853   2.857   2.535  15.236 -0.2282 -0.5529 -0.1163
19813TIP3    H180854   2.814   2.459  15.274  1.2148 -1.1777  0.3322
19813TIP3    H280855   2.870   2.512  15.144 -0.7443 -0.3952 -0.2341
19814TIP3   OH280856   3.261   6.298  15.923 -0.7181  0.2301  0.0562
19814TIP3    H180857   3.237   6.216  15.880  2.1575 -1.3013  1.0886
19814TIP3    H280858   3.213   6.297  16.005 -0.5252 -0.5558  0.1665
19815TIP3   OH280859   5.478   5.085   4.734 -0.2902 -0.4278 -0.6597
19815TIP3    H180860   5.487   5.055   4.644  1.8387  2.0299 -1.3657
19815TIP3    H280861   5.568   5.098   4.765 -0.9497  3.0181  0.2225
19816TIP3   OH280862   2.851   6.001   3.902 -0.0012  0.0349  0.2212
19816TIP3    H180863   2.841   6.080   3.849 -0.7956 -0.3440 -0.2182
19816TIP3    H280864   2.761   5.978   3.928  0.2442 -0.5735  0.5546
19817TIP3   OH280865   5.403   5.026   0.276 -0.4090  0.5517 -0.4083
19817TIP3    H180866   5.433   4.970   0.204 -0.8274  0.3042 -0.3950
19817TIP3    H280867   5.462   5.006   0.349  0.5536  1.4163 -0.9241
19818TIP3   OH280868   4.552   4.650   0.022  0.3039 -0.4088 -0.9764
19818TIP3    H180869   4.619   4.582   0.009 -0.2863 -0.9598 -1.2024
19818TIP3    H280870   4.598   4.720   0.068  0.8707 -1.0780 -0.4848
19819TIP3   OH280871   4.711   3.093   5.218  0.2741 -0.1656  0.1306
19819TIP3    H180872   4.789   3.038   5.213 -1.2328 -2.2978 -1.4102
19819TIP3    H280873   4.740   3.179   5.189  1.9746 -1.0037 -0.7543
19820TIP3   OH280874   0.144   3.361   1.253  0.1240  0.4967  0.5346
19820TIP3    H180875   0.222   3.393   1.299  1.8362 -0.0472 -1.8167
19820TIP3    H280876   0.100   3.440   1.222  0.9730  0.7607 -0.0185
19821TIP3   OH280877   0.971   3.010  17.109  0.0715  0.3716 -0.6803
19821TIP3    H180878   0.982   2.915  17.117  1.8910  0.6347  0.5950
19821TIP3    H280879   1.053   3.041  17.071  1.0541  1.7432  2.2413
19822TIP3   OH280880   6.328   4.820  11.808 -0.0567 -0.0079 -0.7705
19822TIP3    H180881   6.293   4.756  11.747 -2.4460  0.3157  0.1369
19822TIP3    H280882   6.347   4.770  11.888  1.8473 -0.2069 -1.2933
19823TIP3   OH280883   3.240   5.935  16.037  0.3827  0.4971  0.2017
19823TIP3    H180884   3.257   5.986  16.116  0.3885 -0.2264  0.6809
19823TIP3    H280885   3.326   5.908  16.007  0.3739  0.6845  0.0138
19824TIP3   OH280886   2.922   5.980   4.511  0.2079 -0.0698  0.2737
19824TIP3    H180887   2.848   5.922   4.491 -0.3747  0.8446 -0.3119
19824TIP3    H280888   2.881   6.063   4.537  1.0082 -0.2483  2.2496
19825TIP3   OH280889   2.360   1.307   0.156  0.3383 -0.1879 -0.0860
19825TIP3    H180890   2.419   1.377   0.185  0.2043  0.6244 -1.6804
19825TIP3    H280891   2.302   1.350   0.094 -0.1785 -1.5862 -0.5884
19826TIP3   OH280892   0.200   6.044   4.561  0.3074  0.1701 -0.3601
19826TIP3    H180893   0.127   6.094   4.597  0.1508  0.4552 -1.0771
19826TIP3    H280894   0.237   5.998   4.637 -1.5407 -1.1883 -0.2161
19827TIP3   OH280895   2.527   1.070  16.445  0.4581  0.1943  0.1603
19827TIP3    H180896   2.614   1.101  16.420  0.8602  0.4264  1.7288
19827TIP3    H280897   2.531   0.975  16.433  0.1334  0.4107 -1.9884
19828TIP3   OH280898   4.477   6.326  16.062  0.1132  0.3055 -0.3747
19828TIP3    H180899   4.408   6.335  16.127  0.9426  1.7346  0.3372
19828TIP3    H280900   4.517   6.412  16.057  1.1034 -0.1966 -1.6326
19829TIP3   OH280901   3.330   5.476  11.816  0.2843 -0.1668 -0.0977
19829TIP3    H180902   3.422   5.454  11.832 -0.0562 -1.6530 -0.1285
19829TIP3    H280903   3.293   5.490  11.903  0.3625 -0.2530 -0.0511
19830TIP3   OH280904   1.266   4.641  12.584  0.2784 -0.3349  0.2823
19830TIP3    H180905   1.314   4.559  12.579 -1.6397 -1.5868  1.2336
19830TIP3    H280906   1.292   4.679  12.669 -0.0861 -0.7933  0.6009
19831TIP3   OH280907   2.335   1.155   3.358 -0.1457  0.3774 -0.0141
19831TIP3    H180908   2.407   1.206   3.394 -0.9466 -0.2035  2.6828
19831TIP3    H280909   2.345   1.162   3.263  3.1591  0.6829  0.2353
19832TIP3   OH280910   4.564   3.221  13.440 -0.2076  0.3353  0.1275
19832TIP3    H180911   4.578   3.313  13.464 -0.0182  0.4680 -0.4791
19832TIP3    H280912   4.563   3.174  13.523 -0.7357  0.9453  0.4679
19833TIP3   OH280913   4.403   5.388   4.768 -0.3723  0.4646 -0.7476
19833TIP3    H180914   4.363   5.302   4.773 -0.3795  0.5123  0.2701
19833TIP3    H280915   4.357   5.440   4.835  1.8577  0.3040  1.0401
19834TIP3   OH280916   5.812   6.377   5.699 -0.3651 -0.1653 -0.3536
19834TIP3    H180917   5.831   6.406   5.610 -0.5571  1.3162  0.0626
19834TIP3    H280918   5.736   6.319   5.689  0.5856 -1.3022 -1.3145
19835TIP3   OH280919   2.280   1.173  15.057  0.0826  0.3795 -0.4104
19835TIP3    H180920   2.213   1.201  14.995  0.4810  0.8955 -0.6180
19835TIP3    H280921   2.245   1.197  15.143 -0.5705 -0.5424 -0.4111
19836TIP3   OH280922   0.759   6.319  13.621  0.3671  1.1056 -0.0593
19836TIP3    H180923   0.749   6.250  13.555 -0.6704  0.3980  0.8001
19836TIP3    H280924   0.843   6.300  13.663  0.1449  0.4143  0.0881
19837TIP3   OH280925   0.277   2.840  15.821 -0.2436  0.2568 -0.1927
19837TIP3    H180926   0.234   2.925  15.806 -0.6322  0.0413 -0.3064
19837TIP3    H280927   0.232   2.780  15.761 -1.9183 -0.6730  1.8780
19838TIP3   OH280928   2.550   1.505  10.524 -0.3710 -0.1964 -0.4501
19838TIP3    H180929   2.580   1.576  10.467  1.7623 -0.3464  0.4002
19838TIP3    H280930   2.583   1.425  10.483  1.6568 -0.2671  1.1759
19839TIP3   OH280931   3.708   4.309   2.534 -0.1753  0.6294  0.0614
19839TIP3    H180932   3.731   4.331   2.625  0.3552 -2.0263  0.6371
19839TIP3    H280933   3.776   4.349   2.481  0.5301  0.6976  0.9988
19840TIP3   OH280934   2.565   0.558  10.243  0.4578 -0.1469 -0.2560
19840TIP3    H180935   2.532   0.606  10.168  0.3704 -0.8818 -0.6989
19840TIP3    H280936   2.539   0.610  10.319 -1.9899 -0.8127 -0.5578
19841TIP3   OH280937   6.019   2.262  14.935  0.1470 -0.1078  0.2869
19841TIP3    H180938   6.099   2.220  14.903  0.1259 -1.8248  2.2177
19841TIP3    H280939   6.050   2.331  14.994  0.2164 -0.2643  0.4352
19842TIP3   OH280940   0.937   4.214   4.733  0.6812 -0.1886  0.3804
19842TIP3    H180941   1.019   4.251   4.700  0.4135  0.8553  0.8551
19842TIP3    H280942   0.903   4.280   4.794 -1.7757  0.5888 -1.6551
19843TIP3   OH280943   0.220   4.134   0.363 -0.3929 -0.0895  0.3974
19843TIP3    H180944   0.259   4.153   0.448  1.4928 -0.3445 -0.3637
19843TIP3    H280945   0.170   4.213   0.341  1.6098  1.2419  0.4023
19844TIP3   OH280946   4.040   2.446  15.594  0.2631 -0.4906 -0.0012
19844TIP3    H180947   4.118   2.392  15.583  0.5702 -0.2819  1.0277
19844TIP3    H280948   4.000   2.415  15.675 -0.6039 -0.4474 -0.4031
19845TIP3   OH280949   3.948   3.921   2.118  0.1323 -0.3966 -0.2105
19845TIP3    H180950   3.990   3.851   2.068  0.8666 -2.1674  2.6222
19845TIP3    H280951   4.022   3.969   2.157 -0.3905  1.5011 -1.4113
19846TIP3   OH280952   2.145   0.384  14.879 -0.4736 -0.1772 -0.8596
19846TIP3    H180953   2.054   0.413  14.865 -0.9915 -0.5860  1.3485
19846TIP3    H280954   2.151   0.303  14.828 -1.3096 -0.0873 -1.1345
19847TIP3   OH280955   5.698   5.056  14.201 -0.3848 -0.6307  0.2251
19847TIP3    H180956   5.761   5.003  14.152 -1.3241 -0.1879 -1.5810
19847TIP3    H280957   5.710   5.145  14.167 -1.1539 -0.3274  0.7229
19848TIP3   OH280958   1.847   4.839   0.296  0.0699  0.3228  0.4921
19848TIP3    H180959   1.921   4.834   0.236 -0.4035 -0.9184 -0.0246
19848TIP3    H280960   1.792   4.764   0.273 -1.6750  1.5568  0.4353
19849TIP3   OH280961   6.015   6.013   0.521 -0.0542  0.3436  0.0198
19849TIP3    H180962   6.036   6.000   0.429 -1.0673  0.3091 -0.2195
19849TIP3    H280963   5.970   6.098   0.523 -0.3518  0.1807  0.4229
19850TIP3   OH280964   3.723   6.026   5.545 -1.0417 -0.1765 -0.5669
19850TIP3    H180965   3.708   6.043   5.452 -1.8429  0.7479 -0.2852
19850TIP3    H280966   3.777   6.100   5.575 -2.3055  0.5245  0.0841
19851TIP3   OH280967   1.797   1.997   2.805  0.1491  0.1580 -0.4428
19851TIP3    H180968   1.870   2.053   2.831 -0.8221  0.6820  1.3537
19851TIP3    H280969   1.836   1.911   2.790  1.0509  0.2332  1.2603
19852TIP3   OH280970   6.565   1.689  15.384  0.1146 -0.1160 -0.1888
19852TIP3    H180971   6.497   1.740  15.427  1.7305  2.0153 -0.0218
19852TIP3    H280972   6.591   1.741  15.308  2.3090 -0.2777  0.3732
19853TIP3   OH280973   1.742   3.384  14.482  0.6530  0.1234 -0.0571
19853TIP3    H180974   1.733   3.385  14.577  1.6694 -0.8452  0.0686
19853TIP3    H280975   1.825   3.427  14.465  2.5462 -3.1974 -0.1586
19854TIP3   OH280976   3.503   2.449   3.459  0.9472  0.1143 -0.4891
19854TIP3    H180977   3.417   2.456   3.418  2.4258  1.2845 -3.8538
19854TIP3    H280978   3.493   2.490   3.544 -2.0047 -0.7204 -0.3276
19855TIP3   OH280979   3.620   0.283  11.376  0.1436  0.0506 -0.3302
19855TIP3    H180980   3.565   0.204  11.378 -1.3247  1.0132 -0.6437
19855TIP3    H280981   3.653   0.291  11.465  0.6930 -1.1566 -0.3988
19856TIP3   OH280982   2.984   4.711   1.609 -0.2269 -0.0071 -0.0416
19856TIP3    H180983   2.923   4.640   1.590 -0.5999  0.6264 -1.3008
19856TIP3    H280984   2.960   4.741   1.696  1.4932 -2.9747  1.6248
19857TIP3   OH280985   3.169   4.274  15.560 -0.3040 -0.2225  0.1017
19857TIP3    H180986   3.075   4.263  15.575 -0.0710  0.4907  2.4315
19857TIP3    H280987   3.210   4.250  15.643  1.3067  2.8102  0.3269
19858TIP3   OH280988   0.149   3.214  14.905  0.1295  0.2622  0.0596
19858TIP3    H180989   0.115   3.201  14.993 -1.4607 -1.1027 -0.6989
19858TIP3    H280990   0.241   3.235  14.918 -0.1802  0.6158  2.0514
19859TIP3   OH280991   2.991   4.518   4.627 -0.0813 -0.8292 -0.2793
19859TIP3    H180992   2.977   4.453   4.558  1.6198 -1.4072 -0.1353
19859TIP3    H280993   2.963   4.601   4.588  1.4213 -1.0305 -1.9322
19860TIP3   OH280994   5.991   5.335  12.422 -0.7324 -0.1236 -0.2149
19860TIP3    H180995   6.047   5.297  12.354  0.0864 -2.2303  1.5380
19860TIP3    H280996   5.902   5.322  12.389 -0.3488 -1.1135 -0.9114
19861TIP3   OH280997   5.824   2.085  14.829 -0.1183 -0.0789  0.0849
19861TIP3    H180998   5.895   2.148  14.840  0.8781 -1.3235  1.1438
19861TIP3    H280999   5.814   2.077  14.734  1.5965 -0.2909 -0.1238
19862TIP3   OH281000   6.236   5.699  12.618 -0.4987 -0.3758 -0.2645
19862TIP3    H181001   6.304   5.632  12.611  0.6766  0.9378 -2.4673
19862TIP3    H281002   6.164   5.666  12.564 -0.6631 -0.6557  0.1157
19863TIP3   OH281003   3.099   6.333   6.256 -0.3023 -0.5737  0.0118
19863TIP3    H181004   3.046   6.411   6.236 -0.5631 -0.7846 -0.1172
19863TIP3    H281005   3.038   6.260   6.246  0.1073 -0.8460 -0.4892
19864TIP3   OH281006   1.145   0.999  14.015 -0.6099 -0.5043  0.0858
19864TIP3    H181007   1.067   0.946  14.031 -0.8285 -0.5377 -0.9869
19864TIP3    H281008   1.197   0.990  14.095 -1.9810  0.0286  1.0790
19865TIP3   OH281009   1.073   4.364   5.382 -0.9102  0.0201 -0.3573
19865TIP3    H181010   1.075   4.281   5.430 -0.2025  0.4802  0.4450
19865TIP3    H281011   1.120   4.347   5.301  0.9141  0.0934  0.6227
19866TIP3   OH281012   3.192   6.645  14.470  0.5523 -0.3604 -0.3028
19866TIP3    H181013   3.206   6.596  14.551 -0.9806 -0.7208 -0.2401
19866TIP3    H281014   3.272   6.630  14.420  0.9011 -1.3663  0.5124
19867TIP3   OH281015   2.179   1.838  11.360  0.0854 -0.4089 -0.2739
19867TIP3    H181016   2.134   1.849  11.444 -0.7905  0.6426 -0.8420
19867TIP3    H281017   2.132   1.897  11.300  0.5084 -1.3397 -1.5697
19868TIP3   OH281018   6.516   0.849   2.800 -0.6820 -0.4941 -0.4945
19868TIP3    H181019   6.586   0.906   2.833 -1.0730 -0.9745  1.2613
19868TIP3    H281020   6.484   0.803   2.878 -3.4060  0.1739 -1.1347
19869TIP3   OH281021   5.067   1.921   0.078  0.3173  0.0877  0.1027
19869TIP3    H181022   5.142   1.895   0.132 -0.6163  0.3332  1.5738
19869TIP3    H281023   4.992   1.880   0.121 -0.7706  2.3057  0.4456
19870TIP3   OH281024   2.237   5.983   0.405  0.5340  0.1023  0.2657
19870TIP3    H181025   2.230   6.027   0.321 -0.7948 -0.5967 -0.0248
19870TIP3    H281026   2.149   5.950   0.422  0.9842 -0.5358  1.5144
19871TIP3   OH281027   1.558   4.928   5.145  0.1284 -0.2334 -0.3178
19871TIP3    H181028   1.617   4.923   5.220 -0.1814  2.3459  0.2046
19871TIP3    H281029   1.489   4.989   5.172 -1.7079 -1.6120 -1.6302
19872TIP3   OH281030   3.148   5.374  13.994  0.0494 -0.1495  0.1253
19872TIP3    H181031   3.096   5.318  13.937 -2.3099  1.3609  0.6452
19872TIP3    H281032   3.225   5.396  13.942 -1.5780  0.4843 -2.2033
19873TIP3   OH281033   1.236   2.971  17.279  0.4403 -0.5414  0.2450
19873TIP3    H181034   1.190   2.898  17.238  2.1146 -1.4978  0.0046
19873TIP3    H281035   1.264   3.026  17.207  2.6613 -1.7929  0.0756
19874TIP3   OH281036   2.661   4.981   5.132  0.0874 -0.3446 -0.0246
19874TIP3    H181037   2.638   4.920   5.062 -0.9580 -0.3875  0.3495
19874TIP3    H281038   2.578   5.005   5.173  0.5705  0.5827  0.4648
19875TIP3   OH281039   6.558   6.008   1.220  0.0491 -0.2371  0.1636
19875TIP3    H181040   6.568   6.021   1.314  1.1733 -0.3060  0.0616
19875TIP3    H281041   6.463   6.005   1.206 -0.1404  0.8622  1.1367
19876TIP3   OH281042   1.384   1.669   0.421 -0.3081  0.2276 -0.0267
19876TIP3    H181043   1.479   1.667   0.419 -0.2515 -0.7086  1.7721
19876TIP3    H281044   1.358   1.652   0.330  1.2109  1.0638 -0.6603
19877TIP3   OH281045   1.806   2.149   0.818  0.0937  0.4495 -0.5653
19877TIP3    H181046   1.789   2.082   0.752  0.4986 -0.0023 -0.2186
19877TIP3    H281047   1.822   2.100   0.899 -0.0289  0.9822 -0.2123
19878TIP3   OH281048   3.149   5.113   1.364  0.3343  0.3520 -0.5314
19878TIP3    H181049   3.242   5.090   1.361 -0.0521 -1.2765 -0.6354
19878TIP3    H281050   3.133   5.133   1.456  1.2041  2.6709 -0.8027
19879TIP3   OH281051   6.271   3.288   5.244  0.3133 -0.4493 -0.1980
19879TIP3    H181052   6.281   3.324   5.332  0.7799 -2.1694  0.4980
19879TIP3    H281053   6.326   3.209   5.244 -0.6851 -1.1876 -1.6144
19880TIP3   OH281054   0.966   6.243   2.846 -0.2994  0.2250  0.0386
19880TIP3    H181055   0.971   6.210   2.756 -1.1816  0.1515  0.0133
19880TIP3    H281056   0.963   6.164   2.900  1.6106  0.2475  0.2403
19881TIP3   OH281057   1.836   2.388  16.512  0.6218 -0.4071 -0.3648
19881TIP3    H181058   1.892   2.380  16.434  1.0100 -1.8799  0.0470
19881TIP3    H281059   1.771   2.319  16.502 -1.3714  1.4447 -0.9684
19882TIP3   OH281060   1.681   4.085   5.788 -0.5649  0.2800  0.3767
19882TIP3    H181061   1.763   4.132   5.770 -1.2336  1.8788  1.2387
19882TIP3    H281062   1.683   4.070   5.883  0.1178 -2.4900  0.0041
19883TIP3   OH281063   3.728   2.728  15.951  0.3398 -0.4715 -1.4952
19883TIP3    H181064   3.816   2.695  15.933  0.1699 -0.2162 -2.9045
19883TIP3    H281065   3.672   2.650  15.948  0.3851 -0.5022 -1.5417
19884TIP3   OH281066   1.501   1.220  10.606 -0.4938 -0.4391  0.5761
19884TIP3    H181067   1.410   1.214  10.578  0.0187 -0.7847 -1.0799
19884TIP3    H281068   1.506   1.304  10.652 -0.9029  1.3748 -2.4088
19885TIP3   OH281069   4.571   1.935   3.216 -0.3636 -0.3390  0.4822
19885TIP3    H181070   4.569   1.843   3.241  0.6408 -0.6857 -0.6590
19885TIP3    H281071   4.500   1.975   3.267 -0.6043 -1.6692  1.2264
19886TIP3   OH281072   6.153   3.958  15.389 -0.7563  0.5328  0.1862
19886TIP3    H181073   6.170   4.043  15.349  1.4002  0.7436  1.4131
19886TIP3    H281074   6.184   3.895  15.324  1.4456  0.8418  0.8572
19887TIP3   OH281075   4.748   1.059   3.091 -0.1994 -0.6956  0.3122
19887TIP3    H181076   4.812   1.039   3.160 -0.2318 -0.9238  0.2735
19887TIP3    H281077   4.664   1.038   3.131 -0.2218 -0.7785  0.2200
19888TIP3   OH281078   4.900   3.304   3.521  0.1112  0.3269 -0.1040
19888TIP3    H181079   4.876   3.241   3.589  1.1666  0.2131  0.1896
19888TIP3    H281080   4.992   3.285   3.502 -0.3584 -0.1701 -2.1590
19889TIP3   OH281081   0.352   6.207   0.319 -0.0023  0.0620 -0.6091
19889TIP3    H181082   0.297   6.135   0.350 -1.2845  1.1168 -0.3139
19889TIP3    H281083   0.290   6.272   0.287  1.1101  1.0865 -0.7501
19890TIP3   OH281084   0.095   4.056  16.531 -0.2842 -0.9184  0.1589
19890TIP3    H181085   0.186   4.056  16.500 -0.4302  0.7672 -0.4048
19890TIP3    H281086   0.103   4.064  16.626  0.1436 -2.5066  0.2825
19891TIP3   OH281087   2.678   1.034  14.196 -0.4674  0.9455 -0.1354
19891TIP3    H181088   2.670   1.030  14.292 -2.1052 -1.1597 -0.2712
19891TIP3    H281089   2.593   1.004  14.164 -0.0834  2.0034 -2.2747
19892TIP3   OH281090   3.843   0.522   4.241  0.0589 -0.0460  0.3729
19892TIP3    H181091   3.864   0.475   4.322 -2.2524 -1.2722  0.3526
19892TIP3    H281092   3.921   0.512   4.187  1.0689 -0.5340  1.8443
19893TIP3   OH281093   5.307   0.572   2.405 -0.4042  0.0204  0.2526
19893TIP3    H181094   5.218   0.575   2.369 -0.4494 -0.3263  0.3271
19893TIP3    H281095   5.328   0.479   2.406 -0.4838  0.0045  1.3113
19894TIP3   OH281096   3.362   0.968   3.279  0.2303  0.2174 -0.2906
19894TIP3    H181097   3.285   0.926   3.239  0.5266 -0.5386 -0.0897
19894TIP3    H281098   3.400   1.019   3.208 -0.2534  0.3164 -0.4886
19895TIP3   OH281099   1.685   4.869   1.101 -0.0982  0.7340 -0.1659
19895TIP3    H181100   1.637   4.800   1.147  0.9064 -0.6442 -1.0923
19895TIP3    H281101   1.754   4.895   1.162  0.8156 -0.6124 -0.5785
19896TIP3   OH281102   6.203   0.660  12.604 -0.3383 -0.2093 -0.1212
19896TIP3    H181103   6.254   0.624  12.532  0.7148 -0.1137  0.5563
19896TIP3    H281104   6.120   0.611  12.602 -0.6954  0.3925 -1.9153
19897TIP3   OH281105   0.744   5.805   4.639  0.2267  0.1917  0.2300
19897TIP3    H181106   0.746   5.722   4.592 -0.3372 -1.5815  3.0840
19897TIP3    H281107   0.689   5.788   4.715 -0.4149  3.4037  0.6323
19898TIP3   OH281108   6.477   5.981  11.208  0.1983 -0.1837 -0.4868
19898TIP3    H181109   6.522   5.993  11.292 -0.6036  0.3952 -0.1265
19898TIP3    H281110   6.533   6.025  11.144  1.8554 -2.2969 -0.6303
19899TIP3   OH281111   2.752   1.926   3.333  0.0204 -0.0496 -0.5390
19899TIP3    H181112   2.676   1.899   3.384 -0.0149  1.8029  0.4855
19899TIP3    H281113   2.810   1.969   3.397  2.2516 -1.9224 -1.1541
19900TIP3   OH281114   3.692   1.841  14.004  0.0589 -0.0067 -0.0319
19900TIP3    H181115   3.681   1.934  13.984 -0.6902 -0.2628 -0.8639
19900TIP3    H281116   3.664   1.833  14.095 -0.6682  0.4466 -0.2123
19901TIP3   OH281117   1.253   1.937  12.047 -0.6127  0.0261  0.2866
19901TIP3    H181118   1.315   2.003  12.018 -0.0763 -1.2206 -1.6358
19901TIP3    H281119   1.175   1.986  12.073  0.4468  1.4903  0.7818
19902TIP3   OH281120   1.720   5.293  16.129 -0.0703  0.2384 -0.3888
19902TIP3    H181121   1.774   5.318  16.055  0.1249  1.5519  0.1753
19902TIP3    H281122   1.768   5.324  16.206 -0.7883 -0.1274  0.2272
19903TIP3   OH281123   4.313   6.333   4.440  0.2300 -0.3528  0.1171
19903TIP3    H181124   4.273   6.413   4.474  2.4989  1.0575 -0.3337
19903TIP3    H281125   4.375   6.306   4.509  1.4420 -0.1296 -0.8470
19904TIP3   OH281126   4.733   1.186  11.939 -0.6222  0.3262  0.0144
19904TIP3    H181127   4.804   1.168  12.001 -1.1445 -0.6234  0.3470
19904TIP3    H281128   4.726   1.107  11.886 -1.0800  0.6222 -0.3789
19905TIP3   OH281129   3.448   0.549  14.524 -0.0535  0.1489  0.4911
19905TIP3    H181130   3.407   0.464  14.508  1.5866 -0.6043  0.0863
19905TIP3    H281131   3.504   0.534  14.601 -1.1595  1.3882  1.5869
19906TIP3   OH281132   4.510   0.162  16.454  0.4594 -0.0339 -0.7334
19906TIP3    H181133   4.432   0.135  16.406 -0.7548  1.7683  0.1165
19906TIP3    H281134   4.582   0.150  16.392 -0.6432 -0.6330 -1.9362
19907TIP3   OH281135   2.027   3.734  10.828 -0.0333 -0.5093  0.0960
19907TIP3    H181136   1.961   3.729  10.759 -0.6208  2.1625  0.3739
19907TIP3    H281137   2.103   3.776  10.787  0.9910 -2.1626  0.1885
19908TIP3   OH281138   6.551   6.409   5.552  0.2729 -0.0851  0.1047
19908TIP3    H181139   6.518   6.344   5.614  1.4047 -0.7188  0.0638
19908TIP3    H281140   6.612   6.361   5.497  0.4897  0.8358 -0.4800
19909TIP3   OH281141   4.409   1.195  14.915 -0.5549  0.9117 -0.0096
19909TIP3    H181142   4.332   1.142  14.937 -0.3053  0.7971  0.6145
19909TIP3    H281143   4.415   1.191  14.820  0.1841 -1.2225  0.0725
19910TIP3   OH281144   2.359   2.740   1.305 -0.1443  0.5624  0.0458
19910TIP3    H181145   2.285   2.680   1.296  0.9955 -1.1384  1.3319
19910TIP3    H281146   2.409   2.705   1.378  2.0097  1.5802 -0.8517
19911TIP3   OH281147   5.856   4.231  14.824  0.8865 -0.0467  0.0911
19911TIP3    H181148   5.800   4.307  14.835  1.4930  0.3088  0.8450
19911TIP3    H281149   5.819   4.165  14.884  0.3201 -0.3819 -0.6134
19912TIP3   OH281150   6.531   6.669   4.582 -0.0430 -0.2493  0.3937
19912TIP3    H181151   6.493   6.595   4.629 -1.1254  0.6245  0.9291
19912TIP3    H281152   6.582   6.716   4.648  3.6453 -2.3573 -0.6428
19913TIP3   OH281153   2.531   1.845  14.574 -0.2867  0.1381 -0.0055
19913TIP3    H181154   2.471   1.872  14.505  0.1416  1.1169 -0.0171
19913TIP3    H281155   2.618   1.855  14.536 -0.0800 -0.2522  0.3581
19914TIP3   OH281156   0.329   4.729   2.654  0.3653 -0.5108 -0.2236
19914TIP3    H181157   0.349   4.637   2.671 -2.0671 -0.9025  1.0283
19914TIP3    H281158   0.289   4.761   2.735  1.6293  1.8436 -0.4288
19915TIP3   OH281159   6.554   4.617  14.342 -0.0199  0.1212 -0.1530
19915TIP3    H181160   6.590   4.623  14.430  1.3814 -0.6384 -0.6448
19915TIP3    H281161   6.527   4.706  14.321  1.4017  0.6800  0.3252
19916TIP3   OH281162   5.438   5.074   1.162  0.6316  0.2027 -0.1484
19916TIP3    H181163   5.496   5.012   1.118  0.1789  1.0144 -1.9595
19916TIP3    H281164   5.354   5.063   1.118 -0.5771 -0.7324  2.2284
19917TIP3   OH281165   1.048   1.835  14.567 -0.3335 -0.1592  0.0244
19917TIP3    H181166   1.055   1.747  14.529 -1.9222 -0.0186 -0.6626
19917TIP3    H281167   0.957   1.860  14.554 -0.3090  0.9389  1.7052
19918TIP3   OH281168   5.228   2.703  16.187  0.2050  0.3126 -0.2467
19918TIP3    H181169   5.244   2.616  16.150  0.3912  0.6328 -0.9447
19918TIP3    H281170   5.289   2.760  16.140 -1.2750  1.1592 -1.2273
19919TIP3   OH281171   6.477   2.900   2.212 -0.3007  0.1659  0.0232
19919TIP3    H181172   6.489   2.979   2.159  0.0804  1.2114  1.6165
19919TIP3    H281173   6.382   2.892   2.220 -0.5038 -1.4231 -2.7975
19920TIP3   OH281174   4.937   0.744  17.146  0.2102  0.7108 -0.1090
19920TIP3    H181175   4.984   0.793  17.080 -0.6472  1.0800 -0.4563
19920TIP3    H281176   4.960   0.652  17.129  0.1223  0.8189 -0.8074
19921TIP3   OH281177   5.258   4.044  16.624  0.0644 -0.2486  0.2201
19921TIP3    H181178   5.300   4.012  16.545 -0.1935  0.4958 -0.2305
19921TIP3    H281179   5.165   4.047  16.603  0.1162  1.1154  0.1149
19922TIP3   OH281180   4.144   3.702   4.133  0.2182 -0.2677 -1.0429
19922TIP3    H181181   4.051   3.681   4.132  0.0185  0.3521  0.7841
19922TIP3    H281182   4.185   3.629   4.178 -0.0557  1.4200  2.2921
19923TIP3   OH281183   5.938   3.703  13.858 -0.6509 -0.2544  0.1499
19923TIP3    H181184   5.883   3.769  13.899 -1.1468 -1.6170  1.7994
19923TIP3    H281185   5.887   3.673  13.783 -0.4244  1.1639 -0.6120
19924TIP3   OH281186   0.668   1.862   4.203 -0.0211 -0.1446 -0.1134
19924TIP3    H181187   0.578   1.877   4.231 -0.1093  1.5955 -1.2118
19924TIP3    H281188   0.716   1.843   4.284 -1.1422  0.0581  0.6127
19925TIP3   OH281189   1.149   4.628  11.470 -0.1619 -0.5941 -0.1636
19925TIP3    H181190   1.155   4.655  11.562  0.4473 -0.3598 -0.2687
19925TIP3    H281191   1.099   4.698  11.428 -0.1938 -0.5595 -0.0689
19926TIP3   OH281192   6.074   4.859  10.405 -0.1107  0.0921  0.2981
19926TIP3    H181193   5.994   4.884  10.451 -0.6969  0.1565 -0.7442
19926TIP3    H281194   6.144   4.900  10.456 -0.8686  1.7330  0.0686
19927TIP3   OH281195   1.777   1.136   4.227 -0.3730 -0.2361  0.1703
19927TIP3    H181196   1.681   1.140   4.225 -0.4477 -1.3528  0.7350
19927TIP3    H281197   1.804   1.184   4.149 -1.3725  0.5420  0.2822
19928TIP3   OH281198   5.419   6.376  11.622 -0.4406  0.0697 -0.3020
19928TIP3    H181199   5.456   6.343  11.540  1.0873 -0.1027  0.4232
19928TIP3    H281200   5.389   6.464  11.601 -1.5210 -0.5237 -1.4219
19929TIP3   OH281201   6.634   3.519  13.772 -0.1374 -0.3890 -0.1628
19929TIP3    H181202   6.575   3.577  13.723  1.0781  1.2222  0.2244
19929TIP3    H281203   6.608   3.530  13.864 -0.5241 -1.2061 -0.1669
19930TIP3   OH281204   5.904   0.210  16.738  0.1236  0.0976  0.2403
19930TIP3    H181205   5.906   0.294  16.784  2.2541  0.5448 -0.5265
19930TIP3    H281206   5.977   0.161  16.775  0.7681 -0.2248 -1.3651
19931TIP3   OH281207   6.614   2.139   4.190  0.1464  0.3239 -0.5576
19931TIP3    H181208   6.562   2.217   4.169  0.2341  0.8353  0.9897
19931TIP3    H281209   6.682   2.137   4.122 -0.2708  1.2093 -1.0190
19932TIP3   OH281210   1.250   6.708   4.258  0.3666  0.1623 -0.4435
19932TIP3    H181211   1.157   6.720   4.279  0.4741 -1.2287  1.0873
19932TIP3    H281212   1.250   6.637   4.193  0.2481  2.1417 -2.7523
19933TIP3   OH281213   0.862   0.176   4.387  0.5680 -0.5251 -0.2254
19933TIP3    H181214   0.820   0.257   4.416 -1.4612 -1.1568 -1.2030
19933TIP3    H281215   0.937   0.165   4.446 -1.6226 -0.2215  2.8476
19934TIP3   OH281216   2.074   3.453  10.500  0.1589 -0.6428  0.1907
19934TIP3    H181217   2.030   3.405  10.570  0.0287 -0.7781  0.0150
19934TIP3    H281218   2.163   3.467  10.533 -0.6564  1.8167  1.6313
19935TIP3   OH281219   0.439   1.753   5.768 -0.1072 -0.4387  0.1453
19935TIP3    H181220   0.507   1.819   5.781  0.6151 -0.9351 -0.9131
19935TIP3    H281221   0.460   1.684   5.831  1.1064 -1.1241 -0.9662
19936TIP3   OH281222   6.076   5.062  16.925  0.0926  0.2898  0.4265
19936TIP3    H181223   6.135   4.987  16.932  0.1725  0.2610 -0.4438
19936TIP3    H281224   6.084   5.091  16.834 -3.5317 -1.6454 -0.6987
19937TIP3   OH281225   6.261   4.051   5.017  0.6963 -0.2543  0.0989
19937TIP3    H181226   6.232   3.971   4.973  1.3172 -0.5602  0.2482
19937TIP3    H281227   6.256   4.118   4.949 -0.0703 -0.3597  0.0407
19938TIP3   OH281228   0.694   3.419  10.994  0.3612 -0.0090 -0.0413
19938TIP3    H181229   0.716   3.509  11.015  0.3476 -0.1781  0.7391
19938TIP3    H281230   0.761   3.367  11.037 -0.1263 -0.4075  0.2588
19939TIP3   OH281231   5.979   3.999   4.025 -0.2846 -0.4729  0.1227
19939TIP3    H181232   6.064   4.042   4.022 -1.1902  1.3777 -0.3582
19939TIP3    H281233   5.919   4.065   4.060 -1.9984 -0.8353 -1.8860
19940TIP3   OH281234   5.645   1.171   5.696 -0.0833 -0.3992 -0.0670
19940TIP3    H181235   5.612   1.246   5.647 -1.2360 -0.8320  0.0166
19940TIP3    H281236   5.724   1.203   5.739 -0.7144  0.8605  0.1977
19941TIP3   OH281237   0.722   0.751  14.090 -0.3029 -0.0360 -0.1490
19941TIP3    H181238   0.693   0.840  14.067 -1.3408 -0.0724  0.8840
19941TIP3    H281239   0.817   0.753  14.080 -0.5036  0.4283 -2.6259
19942TIP3   OH281240   4.890   2.439  14.060 -0.2404 -0.3976  0.3139
19942TIP3    H181241   4.820   2.378  14.035 -0.3374  0.1826 -0.9298
19942TIP3    H281242   4.950   2.438  13.986 -0.2739  1.0314  0.2350
19943TIP3   OH281243   2.476   0.826   3.560 -0.4039 -0.2922 -0.0792
19943TIP3    H181244   2.492   0.898   3.621  0.8165 -0.4913 -0.1488
19943TIP3    H281245   2.383   0.805   3.572 -0.3372  0.0710  1.2819
19944TIP3   OH281246   5.047   2.530  16.445  0.2409 -0.2417 -0.3044
19944TIP3    H181247   4.960   2.554  16.411  1.2750  2.4997 -1.2746
19944TIP3    H281248   5.104   2.532  16.368  1.8087  1.6451  0.8304
19945TIP3   OH281249   6.054   3.028  17.057  0.3821 -0.7494  0.0318
19945TIP3    H181250   6.041   3.103  16.999 -0.6905 -1.3357 -0.5273
19945TIP3    H281251   5.990   3.041  17.127  0.6612 -0.7971  0.2977
19946TIP3   OH281252   2.409   0.610   0.363 -0.1965  0.4195  0.1582
19946TIP3    H181253   2.353   0.603   0.441  1.2481 -0.4158  1.1695
19946TIP3    H281254   2.347   0.621   0.291 -1.6095  0.8801  1.3661
19947TIP3   OH281255   3.008   5.017  15.088 -0.3641 -0.2288  0.0901
19947TIP3    H181256   3.069   5.091  15.081 -2.1124  1.1517 -1.4503
19947TIP3    H281257   3.019   4.985  15.177  1.5170  0.9225  0.3218
19948TIP3   OH281258   5.751   6.758   2.400  0.2241  1.1007  1.1692
19948TIP3    H181259   5.660   6.730   2.410  0.2356  1.0334  1.0845
19948TIP3    H281260   5.756   6.841   2.448  0.3226  0.6913  1.8784
19949TIP3   OH281261   5.557   6.096  14.470  0.2819 -0.1688  0.4899
19949TIP3    H181262   5.513   6.159  14.414  1.7566 -0.8487 -1.5731
19949TIP3    H281263   5.487   6.055  14.521 -0.9285  1.5606  0.2785
19950TIP3   OH281264   4.453   2.035  15.903 -0.1635  0.4372 -0.1077
19950TIP3    H181265   4.445   1.992  15.818 -0.5750 -0.5506  0.4158
19950TIP3    H281266   4.366   2.031  15.941  0.1809  0.1672  0.6824
19951TIP3   OH281267   5.051   2.945  13.562  0.1187 -0.2515 -0.7891
19951TIP3    H181268   5.023   2.854  13.573  2.1470 -0.9126 -0.7030
19951TIP3    H281269   5.115   2.942  13.491 -0.5664  1.3153 -1.5432
19952TIP3   OH281270   0.460   1.110   3.630 -0.0983  0.3443 -0.1136
19952TIP3    H181271   0.549   1.082   3.652  0.2582  2.0145  0.7486
19952TIP3    H281272   0.431   1.046   3.565  2.1564  0.3923 -1.2872
19953TIP3   OH281273   0.642   5.210   2.775 -0.2253  0.0888  0.3091
19953TIP3    H181274   0.627   5.241   2.686  0.3677 -1.7971 -0.5067
19953TIP3    H281275   0.555   5.190   2.808 -0.6006  2.3007  0.7876
19954TIP3   OH281276   5.021   3.381   2.291 -0.1515 -0.3818  0.3286
19954TIP3    H181277   5.038   3.296   2.251  0.8149 -0.0568  0.0271
19954TIP3    H281278   4.993   3.361   2.380 -0.6910 -1.0414  0.0152
19955TIP3   OH281279   3.664   5.525  15.247 -0.0038  0.2642 -0.0691
19955TIP3    H181280   3.740   5.536  15.304 -1.3009  1.6536  1.4872
19955TIP3    H281281   3.601   5.590  15.278 -0.8589  0.9507 -3.0033
19956TIP3   OH281282   3.446   1.016   2.996  0.3142  0.4154  0.6120
19956TIP3    H181283   3.406   0.939   2.954 -0.1779  1.3815 -0.7610
19956TIP3    H281284   3.535   1.019   2.961 -0.0010  1.0500 -0.1682
19957TIP3   OH281285   2.090   2.570  11.431  0.4390 -0.7609  0.2372
19957TIP3    H181286   2.044   2.526  11.502  2.0095 -1.2350  1.0160
19957TIP3    H281287   2.156   2.623  11.475 -0.8384  1.7980 -0.7029
19958TIP3   OH281288   3.875   0.267  15.710  1.0597 -0.0540 -0.5084
19958TIP3    H181289   3.814   0.254  15.637  0.9361 -2.8263 -0.0378
19958TIP3    H281290   3.951   0.310  15.672 -0.7045  2.5470 -1.3263
19959TIP3   OH281291   6.598   6.029  11.445 -0.1252  0.3831 -0.1073
19959TIP3    H181292   6.631   6.001  11.530  1.3397  2.1865 -0.0219
19959TIP3    H281293   6.512   6.066  11.463 -0.5911 -0.8427  0.2813
19960TIP3   OH281294   2.981   6.277  13.668  0.3814  0.4303  0.3296
19960TIP3    H181295   2.908   6.241  13.718  0.7541 -1.4593 -0.3654
19960TIP3    H281296   3.048   6.208  13.672 -0.2623 -0.8012 -4.3003
19961TIP3   OH281297   2.207   2.473   1.509 -0.0330  0.3413  0.4413
19961TIP3    H181298   2.238   2.398   1.559 -1.8653  1.6637  3.9285
19961TIP3    H281299   2.258   2.547   1.542 -0.0386  1.0430 -1.0445
19962TIP3   OH281300   4.548   5.714   0.568  0.1296  0.2825 -0.1023
19962TIP3    H181301   4.578   5.805   0.561 -0.5432  0.4533 -1.0459
19962TIP3    H281302   4.502   5.698   0.485 -0.8366 -0.5183  0.5606
19963TIP3   OH281303   6.131   3.241   4.087 -0.0621 -0.6879  0.4368
19963TIP3    H181304   6.037   3.254   4.096 -0.6223 -3.3597 -0.6471
19963TIP3    H281305   6.143   3.213   3.997  2.1476  1.8620 -0.1893
19964TIP3   OH281306   5.014   0.775  14.536  0.4855  0.2123 -0.2372
19964TIP3    H181307   5.055   0.718  14.602 -0.5803 -0.4560 -0.1168
19964TIP3    H281308   5.045   0.863  14.558 -0.5400  0.1442  1.7655
19965TIP3   OH281309   4.590   3.908   1.283  0.0039 -0.3071 -0.0565
19965TIP3    H181310   4.664   3.895   1.225 -0.4751 -0.7177 -0.5905
19965TIP3    H281311   4.523   3.848   1.250 -0.8135  0.5626 -0.0236
19966LIG     O181312   3.132   3.348  16.630 -0.1752 -0.4119  0.1175
19966LIG     O281313   3.242   3.541  16.481 -0.3627 -0.1635 -0.4758
19966LIG     O381314   3.210   3.509  16.872  0.0071 -0.7206 -0.1344
19966LIG     O481315   3.238   3.730  16.344 -0.2804 -0.6568  0.3091
19966LIG     O581316   3.137   3.873  16.608  0.1306  0.2408  0.7389
19966LIG     O681317   3.445   3.761  16.711  0.2595 -0.4997  0.3857
19966LIG     O781318   3.582   3.806  16.461 -0.5540 -0.1232  0.0065
19966LIG     O881319   3.489   3.864  16.148  0.1219  0.7642  0.1872
19966LIG     O981320   3.499   3.642  16.192  0.7079 -0.2514 -0.2463
19966LIG      N81321   3.435   2.980  16.489  0.0796  0.5599  0.4023
19966LIG     C181322   3.274   3.221  16.509  0.3151  0.1837  0.9041
19966LIG     C281323   3.364   3.195  16.390  0.8999 -0.1599  0.0340
19966LIG     C381324   3.156   3.315  16.491 -1.1759  0.3494  0.2820
19966LIG     C481325   3.486   3.111  16.442 -0.0840  0.0279  0.0848
19966LIG     C581326   3.233   3.088  16.573  0.1180 -0.1154 -0.2032
19966LIG     C681327   3.352   3.277  16.621 -0.1812 -0.1053 -0.6019
19966LIG     C781328   3.569   3.196  16.539  0.5892  0.0072 -0.4216
19966LIG     C881329   3.346   2.983  16.607 -0.0493 -0.4557  0.1661
19966LIG     C981330   3.181   3.440  16.404 -0.0852  0.0377  0.7547
19966LIG    C1081331   3.483   3.277  16.640 -0.2613  0.3555 -0.0540
19966LIG    C1181332   3.378   3.318  16.304  0.7078  0.7030  0.0627
19966LIG    C1281333   3.257   3.350  16.693  0.0942 -0.3003  0.3748
19966LIG    C1381334   3.296   3.427  16.306 -0.6284 -0.2127  0.5860
19966LIG    C1481335   3.395   2.886  16.378 -0.2993 -0.1016  0.0723
19966LIG    C1581336   3.526   3.358  16.744 -0.0741 -0.0119 -0.7520
19966LIG    C1681337   3.300   3.423  16.800 -0.2428 -0.4719 -0.0403
19966LIG    C1781338   3.439   3.427  16.833  0.1184 -0.5712 -0.0590
19966LIG    C1881339   3.189   3.672  16.462 -0.4822  0.1506  0.7489
19966LIG    C1981340   3.228   3.762  16.592  0.2861 -0.6373 -0.3409
19966LIG    C2081341   3.381   3.807  16.591  0.5623 -0.4858 -0.8789
19966LIG    C2181342   3.451   3.752  16.470  0.6884  0.3877  0.0675
19966LIG    C2281343   3.367   3.790  16.348  0.4709 -0.1782  0.2440
19966LIG    C2381344   3.461   3.757  16.226  0.1930 -0.9178  0.1888
19966LIG     H181345   3.305   3.124  16.329 -0.0088 -0.5646  1.3249
19966LIG     H281346   3.073   3.254  16.449  1.5404 -2.1560 -1.8445
19966LIG     H381347   3.567   3.099  16.367  0.7061 -3.3307  1.3303
19966LIG     H481348   3.158   3.043  16.503 -1.1049 -1.3964  1.8227
19966LIG     H581349   3.179   3.103  16.669 -1.0552  1.6358 -1.0880
19966LIG     H681350   3.615   3.273  16.474 -1.0639  2.3704  1.0401
19966LIG     H781351   3.655   3.140  16.582 -0.1755 -1.4271 -0.6560
19966LIG     H881352   3.399   3.014  16.700  1.0679 -0.6966 -0.3808
19966LIG     H981353   3.307   2.880  16.624  0.3604 -0.7397 -0.5690
19966LIG    H1081354   3.093   3.476  16.346 -0.5286 -0.2391  1.2426
19966LIG    H1181355   3.458   3.304  16.229 -0.1980  1.6714 -1.1285
19966LIG    H1281356   3.328   3.516  16.251  0.2863 -0.1913  1.1294
19966LIG    H1381357   3.428   2.916  16.276  0.4767  0.2480  0.4151
19966LIG    H1481358   3.285   2.872  16.374 -0.4664  0.5430  1.6684
19966LIG    H1581359   3.442   2.789  16.403 -0.4034 -0.2417 -0.2713
19966LIG    H1681360   3.631   3.357  16.769  0.2669 -0.5656 -2.1564
19966LIG    H1781361   3.476   3.497  16.906  0.2835  2.6099 -2.9719
19966LIG    H1881362   3.078   3.664  16.458 -0.6727  2.4126  0.3528
19966LIG    H1981363   3.213   3.697  16.681  0.9814  0.2051  0.4068
19966LIG    H2081364   3.390   3.917  16.576  1.1827 -0.4855 -0.5542
19966LIG    H2181365   3.255   3.550  16.946  0.8600 -0.4718 -0.7794
19966LIG    H2281366   3.459   3.641  16.478 -0.0431  0.1349 -2.0804
19966LIG    H2381367   3.347   3.899  16.343 -1.4801 -0.5199 -0.0306
19966LIG    H2481368   3.071   3.844  16.671 -0.7833  0.3031 -0.1696
19966LIG    H2581369   3.404   3.793  16.792 -2.6610  1.2774 -1.5708
19966LIG    H2681370   3.642   3.742  16.501 -0.2923  0.4035  0.4688
19966LIG    H2781371   3.543   3.829  16.077  0.0641 -0.5929  0.7919
   6.76890   6.76890  17.41461
